
Create Br   file=TZ2P-Br
XC
  GGA blyp
  DISPERSION Grimme3 BJDAMP
End
End Input

 *******************************************************************************
 *                                                                             *
 *  -------------------------------------                                      *
 *   Amsterdam Density Functional  (ADF)         development version           *
 *  -------------------------------------                                      *
 *                                               r61132 2017-09-08             *
 *                                                                             *
 *                                                                             *
 *                              =================                              *
 *                              |               |                              *
 *                              |     A D F     |                              *
 *                              |               |                              *
 *                              =================                              *
 *                                                                             *
 *                                                                             *
 *   Online information and documentation:  https://www.scm.com/support/       *
 *   E-mail:  support@scm.com   info@scm.com                                   *
 *                                                                             *
 *   Scientific publications using ADF results must be properly referenced     *
 *   See the User Manuals (or the web site) for recommended citations          *
 *   The terms and conditions of the End User License Agreement apply to       *
 *   the use of ADF, https://www.scm.com/license-terms/                        *
 *                                                                             *
 **********************  x86_64_linux_intel / intelmpi  ************************
 
 Licensed to: VU/FEW (+ SARA) / ALGEMEEN / Amsterdam / THE NETHERLANDS
 SCM User ID: u7668
  
 ADF development version  RunTime: Apr18-2019 13:56:07  Nodes: 1  Procs: 1

 Temporary files are created in /local/datastore0/tcst25/186696/kid_0.FlsV3l

 Bromine (TZ2P)



 ===========================
 A T T A C H E D   F I L E S
 ===========================
  
 CREATE - Data File:    TZ2P-Br
                        Bromine (TZ2P)



 ===============================
 M O D E L   P A R A M E T E R S
 ===============================
  
 DENSITY FUNCTIONAL POTENTIAL (scf)
    LDA:                               Exchange only                           == Not Default ==
    Gradient Corrections:              Becke88 LYP                             == Not Default ==

 SPIN  (restricted / unrestr.)
    Molecule:                          Restricted                               

 OTHER ASPECTS
    Relativistic Corrections:          ---                                      

    Nuclear Charge Density Model:      Point Charge Nuclei                      
    Core Treatment:                    Frozen Orbital(s)                        

    Hyperfine or Zeeman Interaction:   ---                                      

 Settings for Grimme 3 dispersion correction

      damping                        BJ
      s6                          1.000
      a1                          0.430
      s8                          2.700
      a2                          4.236

 Other (technical) parameters

      alpha                      14.000
      version                         4
 



 =====================================
 S Y M M E T R Y ,   E L E C T R O N S
 =====================================
  
 Symmetry: ATOM

 Irreducible Representations, including subspecies
 -------------------------------------------------
 S
 P:x  P:y  P:z
 D:z2  D:x2-y2  D:xy  D:xz  D:yz
 F:z3  F:z  F:xyz  F:z2x  F:z2y  F:x  F:y


 Configuration of Valence Electrons
 ==================================

          Occupation Numbers
          -------------------------------------------------
 S        4*2
 P        2*6 5
 D        10
 F        0
          -------------------------------------------------

 Total:   35

 Net Charge: 0 (Nuclei minus Electrons)

 Preset values for MO occupations will be applied through SCF cycle no. 1000000
 Thereafter, the program will assign electrons to MOs that are spatially
 similar to the occupied MOs in a "reference" cycle ("KeepOrbitals").
 The reference cycle is always the PREVIOUS cycle: it will evolve with
 the SCF procedure.



 ================================
 (Slater-type)  F U N C T I O N S  ***  (Basis and Fit)  ***
 ================================
  

 Atom Type    1  (Br)
 ==============

 Valence Basis Sets:  20
 -----------------------
   1 S   41.300000
   1 S   32.800000
   2 S   13.900000
   2 P   19.450000
   2 P   13.100000
   3 S    7.200000
   3 S    4.950000
   3 P    7.900000
   3 P    5.050000
   3 D   10.900000
   3 D    6.050000
   3 D    3.500000
   4 S    4.500000
   4 S    2.800000
   4 S    1.800000
   4 P    3.250000
   4 P    1.950000
   4 P    1.200000
   4 D    1.800000
   4 F    1.800000


 BAS: List of all Elementary Cartesian Basis Functions
 =====================================================

 The numbering in the list below (to the right of the function characteristics) is referred
 to in print-outs of MO eigenvectors and Mulliken populations in the BAS representation
 (as contrasted to the SFO representation).

 Notes:
 1. The functions are characterized by a polynomial prefactor (powers of x,y,z and r) and
    an exponential decay factor alpha.
 2. Since the basis sets are specific for an atom TYPE, the individual functions occur on
    all atoms of that type.
 3. The word 'Core' in the left margin signals that it is a Core Function (CF) : not a
    degree of freedom in the valence set, but only used to ensure orthogonalization of
    the other valence basis functions on the frozen Core Orbitals.


 (power of) X  Y  Z  R     Alpha  on Atom
            ==========     =====     ==========

 Br                                   1
                                  ---------------------------------------------------------------------------
            0  0  0  0    41.300      1
            0  0  0  0    32.800      2
            0  0  0  1    13.900      3
            1  0  0  0    19.450      4
            0  1  0  0    19.450      5
            0  0  1  0    19.450      6
            1  0  0  0    13.100      7
            0  1  0  0    13.100      8
            0  0  1  0    13.100      9
            0  0  0  2     7.200     10
            0  0  0  2     4.950     11
            1  0  0  1     7.900     12
            0  1  0  1     7.900     13
            0  0  1  1     7.900     14
            1  0  0  1     5.050     15
            0  1  0  1     5.050     16
            0  0  1  1     5.050     17
            2  0  0  0    10.900     18
            1  1  0  0    10.900     19
            1  0  1  0    10.900     20
            0  2  0  0    10.900     21
            0  1  1  0    10.900     22
            0  0  2  0    10.900     23
            2  0  0  0     6.050     24
            1  1  0  0     6.050     25
            1  0  1  0     6.050     26
            0  2  0  0     6.050     27
            0  1  1  0     6.050     28
            0  0  2  0     6.050     29
            2  0  0  0     3.500     30
            1  1  0  0     3.500     31
            1  0  1  0     3.500     32
            0  2  0  0     3.500     33
            0  1  1  0     3.500     34
            0  0  2  0     3.500     35
            0  0  0  3     4.500     36
            0  0  0  3     2.800     37
            0  0  0  3     1.800     38
            1  0  0  2     3.250     39
            0  1  0  2     3.250     40
            0  0  1  2     3.250     41
            1  0  0  2     1.950     42
            0  1  0  2     1.950     43
            0  0  1  2     1.950     44
            1  0  0  2     1.200     45
            0  1  0  2     1.200     46
            0  0  1  2     1.200     47
            2  0  0  1     1.800     48
            1  1  0  1     1.800     49
            1  0  1  1     1.800     50
            0  2  0  1     1.800     51
            0  1  1  1     1.800     52
            0  0  2  1     1.800     53
            3  0  0  0     1.800     54
            2  1  0  0     1.800     55
            2  0  1  0     1.800     56
            1  2  0  0     1.800     57
            1  1  1  0     1.800     58
            1  0  2  0     1.800     59
            0  3  0  0     1.800     60
            0  2  1  0     1.800     61
            0  1  2  0     1.800     62
            0  0  3  0     1.800     63

 Total number of charge fitting functions (nprimf)       170
 Total number of Cartesian basis functions (naos)         63
 Total number of Cartesian core functions  (ncos)          0



 BAS: List of all Elementary Cartesian Basis Functions
 =====================================================

 The numbering in the list below (to the right of the function characteristics) is referred
 to in print-outs of MO eigenvectors and Mulliken populations in the BAS representation
 (as contrasted to the SFO representation).

 Notes:
 1. The functions are characterized by a polynomial prefactor (powers of x,y,z and r) and
    an exponential decay factor alpha.
 2. Since the basis sets are specific for an atom TYPE, the individual functions occur on
    all atoms of that type.
 3. The word 'Core' in the left margin signals that it is a Core Function (CF) : not a
    degree of freedom in the valence set, but only used to ensure orthogonalization of
    the other valence basis functions on the frozen Core Orbitals.


 (power of) X  Y  Z  R     Alpha  on Atom
            ==========     =====     ==========

 Br                                   1
                                  ---------------------------------------------------------------------------
            0  0  0  0    41.300      1
            0  0  0  0    32.800      2
            0  0  0  1    13.900      3
            1  0  0  0    19.450      4
            0  1  0  0    19.450      5
            0  0  1  0    19.450      6
            1  0  0  0    13.100      7
            0  1  0  0    13.100      8
            0  0  1  0    13.100      9
            0  0  0  2     7.200     10
            0  0  0  2     4.950     11
            1  0  0  1     7.900     12
            0  1  0  1     7.900     13
            0  0  1  1     7.900     14
            1  0  0  1     5.050     15
            0  1  0  1     5.050     16
            0  0  1  1     5.050     17
            2  0  0  0    10.900     18
            1  1  0  0    10.900     19
            1  0  1  0    10.900     20
            0  2  0  0    10.900     21
            0  1  1  0    10.900     22
            0  0  2  0    10.900     23
            2  0  0  0     6.050     24
            1  1  0  0     6.050     25
            1  0  1  0     6.050     26
            0  2  0  0     6.050     27
            0  1  1  0     6.050     28
            0  0  2  0     6.050     29
            2  0  0  0     3.500     30
            1  1  0  0     3.500     31
            1  0  1  0     3.500     32
            0  2  0  0     3.500     33
            0  1  1  0     3.500     34
            0  0  2  0     3.500     35
            0  0  0  3     4.500     36
            0  0  0  3     2.800     37
            0  0  0  3     1.800     38
            1  0  0  2     3.250     39
            0  1  0  2     3.250     40
            0  0  1  2     3.250     41
            1  0  0  2     1.950     42
            0  1  0  2     1.950     43
            0  0  1  2     1.950     44
            1  0  0  2     1.200     45
            0  1  0  2     1.200     46
            0  0  1  2     1.200     47
            2  0  0  1     1.800     48
            1  1  0  1     1.800     49
            1  0  1  1     1.800     50
            0  2  0  1     1.800     51
            0  1  1  1     1.800     52
            0  0  2  1     1.800     53
            3  0  0  0     1.800     54
            2  1  0  0     1.800     55
            2  0  1  0     1.800     56
            1  2  0  0     1.800     57
            1  1  1  0     1.800     58
            1  0  2  0     1.800     59
            0  3  0  0     1.800     60
            0  2  1  0     1.800     61
            0  1  2  0     1.800     62
            0  0  3  0     1.800     63
1
 ***************************************************************************************************



                                              ***********************
                                              *  T E C H N I C A L  *
                                              ***********************
  



 =============================================================
 P A R A L L E L I Z A T I O N  and  V E C T O R I Z A T I O N
 =============================================================
  
 Nr of parallel processes:                                1
 Maximum vector length in NumInt loops:                 128

 IO buffersize (Mb):                                     64.000000



 =====================
 S C F   U P D A T E S
 =====================
  
 Max. nr. of cycles:                               300
 Convergence criterion:                              0.0000000100
   secondary criterion:                              0.0000000100

 Mix parameter (when DIIS does not apply):           0.2000000000
 Special mix parameter for the first cycle:          1.0000000000
 Mixed ADIIS+DIIS will be used
    Max number of expansion vectors:                10
    Pure ADIIS when Max([F,P]) is above              0.1000000000
    Pure DIIS when Max([F,P]) is below               0.0010000000
 Automatic ElectronSmearing (in case of problematic SCF convergence) disabled



 =================
 P R E C I S I O N  ***  (General: NumInt, NeglectFunctionTails, ...)  ***
 =================
  

 NumInt:           Target precision:                12.0000000000
 -------           Initial precision:               10.0000000000
                   Min. precision (optimization):   10.0000000000

 Neglect Functions:          Basis functions:        0.1000000000E-13
 ------------------          Fit functions:          0.1000000000E-13



 ===========================
 L I N E A R   S C A L I N G
 ===========================
  

 Cut-off radii density fit:                        0.1000000000E-97
 Overlap cut-off criterion AO matrix elements:     0.1000000000E-97
 Cut-offs for Coulomb potential and fitted density:0.1000000000E-97
 Cut-off criterion for Coulomb multipole terms:    0.1000000000E-97
 Progressive Convergence parameter:                 0.000000000    
1
 ***************************************************************************************************



                                            ***************************
                                            *  C O M P U T A T I O N  *
                                            ***************************
  

 Number of elements of the density matrix on this node (used, total):      2016      2016



 ===========================================
 Numerical Integration : Fuzzy Cells (Becke)
 ===========================================
  
 Becke grid quality: VERYGOOD       
  
 Lebedev angular grid order:             min:  13 max:  41
 Nr. of radial points:                   min: 106 max: 106

 Total nr. of points:        106
 Nr. of blocks:                1
 Block length:               106
 Nr. of dummy points:          0


 Test of Precision of the Numerical Integration Grid
 ===================================================

 Integral of the Total Core Density:                   0.00000000000000



 ========================
 Density Fitting (zlmFit)
 ========================
  
 ZlmFit Fit Quality: VERYGOOD       
  
 Max L-expansion:                        min:   0 max:   0
 Nr. of radial interpolation points:     min: 240 max: 240



 =====
 S C F  ***  ScaSCF  ***
 =====
  

 CYCLE    1
 SCF Error: norm([F,P])=      0.000000000000, max([F,P])=      0.000000000000
 orbitals (Q,E):
 ---------------
 S :1...8            ( 2.00  -612.4786)  ( 2.00  -152.6714)  ( 2.00   -67.1618)  ( 2.00   -37.3471)
                     ( 0.00   -23.4672)  ( 0.00   -15.4322)  ( 0.00    -9.8352)  ( 0.00   627.8721)
 P :1...7            ( 6.00  -153.0715)  ( 6.00   -67.2002)  ( 5.00   -36.6918)  ( 0.00   -21.5714)
                     ( 0.00   -12.7861)  ( 0.00    -7.3590)  ( 0.00    16.5106)
 D :1...4            (10.00   -67.9473)  ( 0.00   -38.1263)  ( 0.00   -23.3212)  ( 0.00   -12.4393)
 F :1...1            ( 0.00   -14.1300)

 CYCLE    2
  SDIIS (wt  0.000):  1.0000 -0.0000
 A-DIIS (wt  1.000):  0.0000  1.0000
  DIIS coefficients:  0.0000  1.0000
 SCF Error: norm([F,P])=    133.903788591766, max([F,P])=     33.002638835768
 orbitals (Q,E):
 ---------------
 S :1...5            ( 2.00  -440.6623)  ( 2.00   -34.4608)  ( 2.00    -0.4838)  ( 2.00     0.2836)
                     ( 0.00     1.7588)
 P :1...4            ( 6.00   -26.4444)  ( 6.00     0.0834)  ( 5.00     0.3720)  ( 0.00     1.4169)
 D :1...2            (10.00     0.6774)  ( 0.00     3.4882)
 F :1...1            ( 0.00     1.3965)

 CYCLE    3
  SDIIS (wt  0.000):  0.1412  0.8588
 A-DIIS (wt  1.000):  0.4812  0.5188
  DIIS coefficients:  0.4812  0.5188
 SCF Error: norm([F,P])=     49.629143697465, max([F,P])=     17.595188807560
 orbitals (Q,E):
 ---------------
 S :1...5            ( 2.00  -480.8932)  ( 2.00   -64.7226)  ( 2.00   -13.6294)  ( 2.00    -3.4868)
                     ( 0.00    -0.5582)
 P :1...4            ( 6.00   -58.1726)  ( 6.00   -11.4786)  ( 5.00    -2.7508)  ( 0.00    -0.3243)
 D :1...2            (10.00    -7.6458)  ( 0.00    -1.4985)
 F :1...1            ( 0.00    -0.1774)

 CYCLE    4
  SDIIS (wt  0.000):  0.0224 -0.0021  0.9797
 A-DIIS (wt  1.000):  0.0000  0.0000  1.0000
  DIIS coefficients:  0.0000  0.0000  1.0000
 SCF Error: norm([F,P])=      9.092094844053, max([F,P])=      2.124855053538
 orbitals (Q,E):
 ---------------
 S :1...5            ( 2.00  -477.9553)  ( 2.00   -58.6455)  ( 2.00    -6.0025)  ( 2.00    -0.0887)
                     ( 0.00     0.6741)
 P :1...4            ( 6.00   -52.5726)  ( 6.00    -3.9206)  ( 5.00     0.0754)  ( 0.00     0.4470)
 D :1...2            (10.00    -0.2229)  ( 0.00     0.6460)
 F :1...1            ( 0.00     1.2104)

 CYCLE    5
  SDIIS (wt  0.000):  0.0181 -0.0308  0.6039  0.4089
 A-DIIS (wt  1.000):  0.0000  0.0000  0.5822  0.4178
  DIIS coefficients:  0.0000  0.0000  0.5822  0.4178
 SCF Error: norm([F,P])=     11.701584191545, max([F,P])=      3.988425979038
 orbitals (Q,E):
 ---------------
 S :1...5            ( 2.00  -481.8352)  ( 2.00   -62.3102)  ( 2.00    -8.5155)  ( 2.00    -0.7697)
                     ( 0.00     0.1875)
 P :1...4            ( 6.00   -56.2897)  ( 6.00    -6.4201)  ( 5.00    -0.3523)  ( 0.00     0.1239)
 D :1...2            (10.00    -2.6384)  ( 0.00     0.1906)
 F :1...1            ( 0.00     0.7840)

 CYCLE    6
  SDIIS (wt  0.000): -0.0026 -0.0016  0.0582  0.1076  0.8383
 A-DIIS (wt  1.000):  0.0000  0.0000  0.0000  0.0000  1.0000
  DIIS coefficients:  0.0000  0.0000  0.0000  0.0000  1.0000
 SCF Error: norm([F,P])=      1.823540048332, max([F,P])=      0.456619293025
 orbitals (Q,E):
 ---------------
 S :1...5            ( 2.00  -480.3974)  ( 2.00   -61.3034)  ( 2.00    -8.2095)  ( 2.00    -0.6754)
                     ( 0.00     0.2537)
 P :1...4            ( 6.00   -55.2073)  ( 6.00    -6.1080)  ( 5.00    -0.2621)  ( 0.00     0.1463)
 D :1...2            (10.00    -2.3134)  ( 0.00     0.2796)
 F :1...1            ( 0.00     0.8617)

 CYCLE    7
  SDIIS (wt  0.000): -0.0001  0.0001  0.0162 -0.0122  0.4359  0.5600
 A-DIIS (wt  1.000):  0.0000  0.0000  0.0000  0.0000  0.5218  0.4782
  DIIS coefficients:  0.0000  0.0000  0.0000  0.0000  0.5218  0.4782
 SCF Error: norm([F,P])=      1.607695839970, max([F,P])=      0.415842628956
 orbitals (Q,E):
 ---------------
 S :1...5            ( 2.00  -481.0075)  ( 2.00   -61.7929)  ( 2.00    -8.4313)  ( 2.00    -0.7171)
                     ( 0.00     0.2346)
 P :1...4            ( 6.00   -55.7193)  ( 6.00    -6.3308)  ( 5.00    -0.2925)  ( 0.00     0.1353)
 D :1...2            (10.00    -2.5382)  ( 0.00     0.2584)
 F :1...1            ( 0.00     0.8462)

 CYCLE    8
  SDIIS (wt  0.813): -0.0000  0.0000  0.0003 -0.0007  0.1156  0.1336  0.7512
 A-DIIS (wt  0.187):  0.0000  0.0000  0.0000  0.0000  0.0000  0.0000  1.0000
  DIIS coefficients: -0.0000  0.0000  0.0003 -0.0005  0.0941  0.1086  0.7976
 SCF Error: norm([F,P])=      0.065754007621, max([F,P])=      0.019467288040
 orbitals (Q,E):
 ---------------
 S :1...5            ( 2.00  -480.9996)  ( 2.00   -61.7672)  ( 2.00    -8.3915)  ( 2.00    -0.6991)
                     ( 0.00     0.2415)
 P :1...4            ( 6.00   -55.6965)  ( 6.00    -6.2914)  ( 5.00    -0.2791)  ( 0.00     0.1389)
 D :1...2            (10.00    -2.4995)  ( 0.00     0.2673)
 F :1...1            ( 0.00     0.8551)

 CYCLE    9
  SDIIS (wt  0.928): -0.0000 -0.0000 -0.0004  0.0001  0.0270  0.0241  0.3726  0.5766
 A-DIIS (wt  0.072):  0.0000  0.0000  0.0000  0.0000  0.0000  0.0000  0.1253  0.8747
  DIIS coefficients: -0.0000 -0.0000 -0.0004  0.0001  0.0251  0.0224  0.3549  0.5979
 SCF Error: norm([F,P])=      0.026013191770, max([F,P])=      0.008091160141
 orbitals (Q,E):
 ---------------
 S :1...5            ( 2.00  -481.0129)  ( 2.00   -61.7801)  ( 2.00    -8.4039)  ( 2.00    -0.7064)
                     ( 0.00     0.2380)
 P :1...4            ( 6.00   -55.7094)  ( 6.00    -6.3038)  ( 5.00    -0.2850)  ( 0.00     0.1366)
 D :1...2            (10.00    -2.5117)  ( 0.00     0.2628)
 F :1...1            ( 0.00     0.8506)

 CYCLE   10
  SDIIS (wt  1.000): -0.0000  0.0000 -0.0000 -0.0000  0.0019  0.0015  0.0216  0.0490  0.9260
  DIIS coefficients: -0.0000  0.0000 -0.0000 -0.0000  0.0019  0.0015  0.0216  0.0490  0.9260
 SCF Error: norm([F,P])=      0.000463673934, max([F,P])=      0.000100374140
 orbitals (Q,E):
 ---------------
 S :1...5            ( 2.00  -481.0128)  ( 2.00   -61.7801)  ( 2.00    -8.4038)  ( 2.00    -0.7064)
                     ( 0.00     0.2380)
 P :1...4            ( 6.00   -55.7094)  ( 6.00    -6.3036)  ( 5.00    -0.2850)  ( 0.00     0.1366)
 D :1...2            (10.00    -2.5116)  ( 0.00     0.2628)
 F :1...1            ( 0.00     0.8506)

 CYCLE   11
  SDIIS (wt  1.000): -0.0000  0.0000 -0.0000 -0.0000  0.0000  0.0000  0.0003  0.0002 -0.0123  1.0118
  DIIS coefficients: -0.0000  0.0000 -0.0000 -0.0000  0.0000  0.0000  0.0003  0.0002 -0.0123  1.0118
 SCF Error: norm([F,P])=      0.000010859570, max([F,P])=      0.000002783508
 orbitals (Q,E):
 ---------------
 S :1...5            ( 2.00  -481.0127)  ( 2.00   -61.7800)  ( 2.00    -8.4038)  ( 2.00    -0.7064)
                     ( 0.00     0.2380)
 P :1...4            ( 6.00   -55.7094)  ( 6.00    -6.3036)  ( 5.00    -0.2850)  ( 0.00     0.1366)
 D :1...2            (10.00    -2.5116)  ( 0.00     0.2628)
 F :1...1            ( 0.00     0.8506)

 CYCLE   12
  SDIIS (wt  1.000): -0.0000  0.0000  0.0000 -0.0114  1.0114
  DIIS coefficients: -0.0000  0.0000  0.0000 -0.0114  1.0114
 SCF Error: norm([F,P])=      0.000000253930, max([F,P])=      0.000000059057
 orbitals (Q,E):
 ---------------
 S :1...5            ( 2.00  -481.0127)  ( 2.00   -61.7800)  ( 2.00    -8.4038)  ( 2.00    -0.7064)
                     ( 0.00     0.2380)
 P :1...4            ( 6.00   -55.7094)  ( 6.00    -6.3036)  ( 5.00    -0.2850)  ( 0.00     0.1366)
 D :1...2            (10.00    -2.5116)  ( 0.00     0.2628)
 F :1...1            ( 0.00     0.8506)

 CYCLE   13
  SDIIS (wt  1.000):  0.0000 -0.0000 -0.0002  0.0471  0.9531
  DIIS coefficients:  0.0000 -0.0000 -0.0002  0.0471  0.9531
 SCF Error: norm([F,P])=      0.000000008155, max([F,P])=      0.000000002198
 orbitals (Q,E):
 ---------------
 S :1...5            ( 2.00  -481.0127)  ( 2.00   -61.7800)  ( 2.00    -8.4038)  ( 2.00    -0.7064)
                     ( 0.00     0.2380)
 P :1...4            ( 6.00   -55.7094)  ( 6.00    -6.3036)  ( 5.00    -0.2850)  ( 0.00     0.1366)
 D :1...2            (10.00    -2.5116)  ( 0.00     0.2628)
 F :1...1            ( 0.00     0.8506)

 SCF CONVERGED

 CYCLE   14
1
 ***************************************************************************************************



                                                *******************
                                                *  R E S U L T S  *
                                                *******************
  
 *** Setting up for NEW gradients in Focky
 *** Using FIT density in Focky

 Orbital Energies, per Irrep and Spin:
 ======================================
                        Occup              E (au)              E (eV)       Diff (eV) with prev. cycle
                        -----      --------------------        ------       --------------------------
 S
               1        2.000     -0.48101274587878E+03    -13089.023              -3.04E-09
               2        2.000     -0.61780048652771E+02     -1681.121              -1.34E-09
               3        2.000     -0.84037718795878E+01      -228.678              -2.41E-09
               4        2.000     -0.70640809652969E+00       -19.222              -2.95E-09
               5        0.000      0.23797090184223E+00         6.476
               6        0.000      0.24655941619106E+01        67.092
               7        0.000      0.14293653166501E+02       388.950
               8        0.000      0.74647931329125E+03     20312.736
 P
               1        6.000     -0.55709370544448E+02     -1515.929              -1.52E-09
               2        6.000     -0.63036166135521E+01      -171.530              -2.40E-09
               3        5.000     -0.28498840632730E+00        -7.755              -2.43E-09
               4        0.000      0.13662305746043E+00         3.718
               5        0.000      0.12150701661255E+01        33.064
               6        0.000      0.88352207867398E+01       240.419
               7        0.000      0.10087703617678E+03      2745.004
 D
               1       10.000     -0.25115984206637E+01       -68.344              -2.32E-09
               2        0.000      0.26280809227207E+00         7.151
               3        0.000      0.26773687643252E+01        72.855
               4        0.000      0.20605889125446E+02       560.715
 F
               1        0.000      0.85063213392399E+00        23.147


 Partially Occupied:
               3 P                -0.28498840632730E+00
  
 HOMO :        4 S                -0.70640809652969E+00
 LUMO :        4 P                 0.13662305746043E+00
  


 Orbital Energies, all Irreps
 ========================================

 Irrep        no.  (spin)   Occup              E (au)                E (eV)
 ---------------------------------------------------------------------------
 S             1             2.00       -0.48101274587878E+03    -13089.0228
 S             2             2.00       -0.61780048652771E+02     -1681.1207
 P             1             6.00       -0.55709370544448E+02     -1515.9291
 S             3             2.00       -0.84037718795878E+01      -228.6783
 P             2             6.00       -0.63036166135521E+01      -171.5301
 D             1            10.00       -0.25115984206637E+01       -68.3441
 S             4             2.00       -0.70640809652969E+00       -19.2223
 P             3             5.00       -0.28498840632730E+00        -7.7549
 P             4             0.00        0.13662305746043E+00         3.7177
 S             5             0.00        0.23797090184223E+00         6.4755
 D             2             0.00        0.26280809227207E+00         7.1514
 F             1             0.00        0.85063213392399E+00        23.1469
 P             5             0.00        0.12150701661255E+01        33.0637
 S             6             0.00        0.24655941619106E+01        67.0922
 D             3             0.00        0.26773687643252E+01        72.8549
 P             6             0.00        0.88352207867398E+01       240.4186
 S             7             0.00        0.14293653166501E+02       388.9501
 D             4             0.00        0.20605889125446E+02       560.7148
 P             7             0.00        0.10087703617678E+03      2745.0038
 S             8             0.00        0.74647931329125E+03     20312.7356


 All Electron Calculation, thus no Orbital Energies of the Core Orbitals are calculated



 =======================================
 M U L L I K E N   P O P U L A T I O N S
 =======================================
  
 The survey below gives for each atom:
 a) the total charge (Z minus electrons)
 b) the net spin polarization (nr of electrons spin-A minus spin-B)
 c) for each spin the atomic electron valence density (integrated) per L-value.

 Atom              Charge    Spin density          S         P         D         F
 ----              ------    ------------       ------    ------    ------    ------
 1 Br              0.0000                       8.0000   17.0000   10.0000    0.0000

 Populations of individual BAS functions
 ----------------------------------------
 1 Br           0.3604  1.5689  2.0728  0.7136  0.7136  0.7136  1.2644  1.2644  1.2644  1.4494
                0.5676  1.1356  1.1356  1.1356  0.8920  0.8920  0.8920  0.2683  0.4025  0.4025
                0.2683  0.4025  0.2683  0.7743  1.1615  1.1615  0.7743  1.1615  0.7743  0.2907
                0.4361  0.4361  0.2907  0.4361  0.2907  0.2958  1.2583  0.4268  0.5585  0.5585
                0.5585  0.8946  0.8946  0.8946  0.2080  0.2080  0.2080 -0.0001 -0.0001 -0.0001
               -0.0001 -0.0001 -0.0001  0.0000  0.0000  0.0000  0.0000  0.0000  0.0000  0.0000
                0.0000  0.0000  0.0000

 Gross Charges per Atom (Z minus electrons)
 ==========================================
             0.0000
 Net Total:  0.00000000



 =======================================================================
 Electrostatic potential at the Nuclei due to electrons and other nuclei
 =======================================================================
  
         Atom                  Potential
         ----                  ---------
     1)   Br                175.92949555
 
 
 ========================
 No memory problems found
 ========================
 
 Maximum number of active allocate calls:         447
 
 *******************************************************************************

                             A D F   E X I T
 NORMAL TERMINATION



 =================
 Timing Statistics
 =================
  
 Total Used :                     CPU=        0.82      System=        0.03     Elapsed=        0.85

 Calls  Section                     ( Mean, Percentage )
 ---------------------------------------------------------------------------------------------------
     3  ><      ................      0.00    0.12             0.00    0.00             0.00    0.09
     1  INIT    ................      0.01    1.10             0.01   43.75             0.03    2.96
     1  GEOMET  ................      0.00    0.49             0.00   15.62             0.01    1.00
     1  INPUTA  ................      0.00    0.12             0.00    0.00             0.00    0.19
     1  MAINSY  ................      0.00    0.61             0.00    3.13             0.01    0.69
     1  SYMFIT  ................      0.00    0.00             0.00    3.13             0.00    0.09
     1  CORORT  ................      0.00    0.00             0.00    0.00             0.00    0.03
     1  SYMORB  ................      0.00    0.12             0.00    0.00             0.00    0.08
     1  CLSMAT  ................      0.00    0.49             0.00    3.13             0.01    0.61
     1  ORTHON  ................      0.00    0.24             0.00    0.00             0.00    0.19
     1  GENPT   ................      0.02    3.05             0.00    0.00             0.02    2.93
     1  PTBAS   ................      0.00    0.49             0.00    0.00             0.00    0.43
    14  FOCKY   ................      0.05   81.83             0.00   18.75             0.05   79.07
    14  FOCKTR  ................      0.00    1.34             0.00    0.00             0.00    1.46
    14  SDIIS   ................      0.00    2.68             0.00    3.13             0.00    2.74
     1  COREPS  ................      0.04    4.39             0.00    0.00             0.04    4.29
     1  POPAN   ................      0.00    0.61             0.00    3.13             0.01    0.63
     1  DEBYE   ................      0.00    0.00             0.00    0.00             0.00    0.10
     1  EXIT PROCEDURE .........      0.02    2.32             0.00    6.25             0.02    2.41


 Currently Open Files (EXIT00)
 ====================

 Unit    Access Format  Status   Type       Ident (file)
 -------------------------------------------------------
   3      SEQ    FORM   TRANSP  NORMAL      LOGFILE
                                          ( logfile )


 Buffered I/O statistics
 =======================
 Memory available:                     67108864
 Number of records fitting in memory:     16131
 Input :   0.1% of                        29683  *4k bytes
 Output:  11.9% of                         1574  *4k bytes
 Records from serial files evicted:           0
                    others evicted:           0
 Hash table lookups:      77061 with          0 conflicts (  0.00%)

 ***************************************************************************************************
 (LOGFILE)
 <Apr18-2019> <13:56:07>  ADF development version  RunTime: Apr18-2019 13:56:07  Nodes: 1  Procs: 1
 <Apr18-2019> <13:56:07>  Bromine (TZ2P)
 <Apr18-2019> <13:56:07>  RunType   : CREATE
 <Apr18-2019> <13:56:07>  Net Charge: 0 (Nuclei minus Electrons)
 <Apr18-2019> <13:56:07>  Symmetry  : ATOM
  Coordinates
    Atom         X           Y           Z   (Angstrom)
    1.Br        0.000000    0.000000    0.000000
 <Apr18-2019> <13:56:07>  >>>> CORORT
 <Apr18-2019> <13:56:07>  >>>> CLSMAT
 <Apr18-2019> <13:56:07>  >>>> ORTHON
 <Apr18-2019> <13:56:07>  >>>> GENPT
 <Apr18-2019> <13:56:07>  Block Length= 106
 <Apr18-2019> <13:56:07>  >>>> PTBAS
 <Apr18-2019> <13:56:07>  >>>> CYCLE
 <Apr18-2019> <13:56:07>              |Error|         MaxErr       Wt(A-DIIS)
 <Apr18-2019> <13:56:07>      1      0.00000000      0.00000000
 <Apr18-2019> <13:56:07>      2    133.90378859     33.00263884    100.0
 <Apr18-2019> <13:56:07>      3     49.62914370     17.59518881    100.0
 <Apr18-2019> <13:56:07>      4      9.09209484      2.12485505    100.0
 <Apr18-2019> <13:56:07>      5     11.70158419      3.98842598    100.0
 <Apr18-2019> <13:56:07>      6      1.82354005      0.45661929    100.0
 <Apr18-2019> <13:56:08>      7      1.60769584      0.41584263    100.0
 <Apr18-2019> <13:56:08>      8      0.06575401      0.01946729     18.7
 <Apr18-2019> <13:56:08>      9      0.02601319      0.00809116      7.2
 <Apr18-2019> <13:56:08>     10      0.00046367      0.00010037      0.0
 <Apr18-2019> <13:56:08>     11      0.00001086      0.00000278      0.0
 <Apr18-2019> <13:56:08>     12      0.00000025      0.00000006      0.0
 <Apr18-2019> <13:56:08>     13      0.00000001      0.00000000      0.0
 <Apr18-2019> <13:56:08>  SCF converged
 <Apr18-2019> <13:56:08>     14      0.00000000      0.00000000      0.0
 <Apr18-2019> <13:56:08>  >>>> POPAN
 <Apr18-2019> <13:56:08>  >>>> DEBYE
 <Apr18-2019> <13:56:08>  NORMAL TERMINATION
 <Apr18-2019> <13:56:08>  END

Create Cl   file=TZ2P-Cl
XC
  GGA blyp
  DISPERSION Grimme3 BJDAMP
End
End Input

 *******************************************************************************
 *                                                                             *
 *  -------------------------------------                                      *
 *   Amsterdam Density Functional  (ADF)         development version           *
 *  -------------------------------------                                      *
 *                                               r61132 2017-09-08             *
 *                                                                             *
 *                                                                             *
 *                              =================                              *
 *                              |               |                              *
 *                              |     A D F     |                              *
 *                              |               |                              *
 *                              =================                              *
 *                                                                             *
 *                                                                             *
 *   Online information and documentation:  https://www.scm.com/support/       *
 *   E-mail:  support@scm.com   info@scm.com                                   *
 *                                                                             *
 *   Scientific publications using ADF results must be properly referenced     *
 *   See the User Manuals (or the web site) for recommended citations          *
 *   The terms and conditions of the End User License Agreement apply to       *
 *   the use of ADF, https://www.scm.com/license-terms/                        *
 *                                                                             *
 **********************  x86_64_linux_intel / intelmpi  ************************
 
 Licensed to: VU/FEW (+ SARA) / ALGEMEEN / Amsterdam / THE NETHERLANDS
 SCM User ID: u7668
  
 ADF development version  RunTime: Apr18-2019 13:56:08  Nodes: 1  Procs: 1

 Temporary files are created in /local/datastore0/tcst25/186696/kid_0.Kafg2k

 Chlorine (TZ2P)



 ===========================
 A T T A C H E D   F I L E S
 ===========================
  
 CREATE - Data File:    TZ2P-Cl
                        Chlorine (TZ2P)



 ===============================
 M O D E L   P A R A M E T E R S
 ===============================
  
 DENSITY FUNCTIONAL POTENTIAL (scf)
    LDA:                               Exchange only                           == Not Default ==
    Gradient Corrections:              Becke88 LYP                             == Not Default ==

 SPIN  (restricted / unrestr.)
    Molecule:                          Restricted                               

 OTHER ASPECTS
    Relativistic Corrections:          ---                                      

    Nuclear Charge Density Model:      Point Charge Nuclei                      
    Core Treatment:                    Frozen Orbital(s)                        

    Hyperfine or Zeeman Interaction:   ---                                      

 Settings for Grimme 3 dispersion correction

      damping                        BJ
      s6                          1.000
      a1                          0.430
      s8                          2.700
      a2                          4.236

 Other (technical) parameters

      alpha                      14.000
      version                         4
 



 =====================================
 S Y M M E T R Y ,   E L E C T R O N S
 =====================================
  
 Symmetry: ATOM

 Irreducible Representations, including subspecies
 -------------------------------------------------
 S
 P:x  P:y  P:z
 D:z2  D:x2-y2  D:xy  D:xz  D:yz
 F:z3  F:z  F:xyz  F:z2x  F:z2y  F:x  F:y


 Configuration of Valence Electrons
 ==================================

          Occupation Numbers
          -------------------------------------------------
 S        3*2
 P        6 5
 D        0
 F        0
          -------------------------------------------------

 Total:   17

 Net Charge: 0 (Nuclei minus Electrons)

 Preset values for MO occupations will be applied through SCF cycle no. 1000000
 Thereafter, the program will assign electrons to MOs that are spatially
 similar to the occupied MOs in a "reference" cycle ("KeepOrbitals").
 The reference cycle is always the PREVIOUS cycle: it will evolve with
 the SCF procedure.



 ================================
 (Slater-type)  F U N C T I O N S  ***  (Basis and Fit)  ***
 ================================
  

 Atom Type    1  (Cl)
 ==============

 Valence Basis Sets:  14
 -----------------------
   1 S   20.300000
   1 S   15.250000
   2 S    6.250000
   2 S    4.450000
   2 P    8.850000
   2 P    5.050000
   3 S    3.450000
   3 S    2.300000
   3 S    1.600000
   3 P    3.350000
   3 P    2.050000
   3 P    1.200000
   3 D    2.000000
   4 F    2.000000


 BAS: List of all Elementary Cartesian Basis Functions
 =====================================================

 The numbering in the list below (to the right of the function characteristics) is referred
 to in print-outs of MO eigenvectors and Mulliken populations in the BAS representation
 (as contrasted to the SFO representation).

 Notes:
 1. The functions are characterized by a polynomial prefactor (powers of x,y,z and r) and
    an exponential decay factor alpha.
 2. Since the basis sets are specific for an atom TYPE, the individual functions occur on
    all atoms of that type.
 3. The word 'Core' in the left margin signals that it is a Core Function (CF) : not a
    degree of freedom in the valence set, but only used to ensure orthogonalization of
    the other valence basis functions on the frozen Core Orbitals.


 (power of) X  Y  Z  R     Alpha  on Atom
            ==========     =====     ==========

 Cl                                   1
                                  ---------------------------------------------------------------------------
            0  0  0  0    20.300      1
            0  0  0  0    15.250      2
            0  0  0  1     6.250      3
            0  0  0  1     4.450      4
            1  0  0  0     8.850      5
            0  1  0  0     8.850      6
            0  0  1  0     8.850      7
            1  0  0  0     5.050      8
            0  1  0  0     5.050      9
            0  0  1  0     5.050     10
            0  0  0  2     3.450     11
            0  0  0  2     2.300     12
            0  0  0  2     1.600     13
            1  0  0  1     3.350     14
            0  1  0  1     3.350     15
            0  0  1  1     3.350     16
            1  0  0  1     2.050     17
            0  1  0  1     2.050     18
            0  0  1  1     2.050     19
            1  0  0  1     1.200     20
            0  1  0  1     1.200     21
            0  0  1  1     1.200     22
            2  0  0  0     2.000     23
            1  1  0  0     2.000     24
            1  0  1  0     2.000     25
            0  2  0  0     2.000     26
            0  1  1  0     2.000     27
            0  0  2  0     2.000     28
            3  0  0  0     2.000     29
            2  1  0  0     2.000     30
            2  0  1  0     2.000     31
            1  2  0  0     2.000     32
            1  1  1  0     2.000     33
            1  0  2  0     2.000     34
            0  3  0  0     2.000     35
            0  2  1  0     2.000     36
            0  1  2  0     2.000     37
            0  0  3  0     2.000     38

 Total number of charge fitting functions (nprimf)       106
 Total number of Cartesian basis functions (naos)         38
 Total number of Cartesian core functions  (ncos)          0



 BAS: List of all Elementary Cartesian Basis Functions
 =====================================================

 The numbering in the list below (to the right of the function characteristics) is referred
 to in print-outs of MO eigenvectors and Mulliken populations in the BAS representation
 (as contrasted to the SFO representation).

 Notes:
 1. The functions are characterized by a polynomial prefactor (powers of x,y,z and r) and
    an exponential decay factor alpha.
 2. Since the basis sets are specific for an atom TYPE, the individual functions occur on
    all atoms of that type.
 3. The word 'Core' in the left margin signals that it is a Core Function (CF) : not a
    degree of freedom in the valence set, but only used to ensure orthogonalization of
    the other valence basis functions on the frozen Core Orbitals.


 (power of) X  Y  Z  R     Alpha  on Atom
            ==========     =====     ==========

 Cl                                   1
                                  ---------------------------------------------------------------------------
            0  0  0  0    20.300      1
            0  0  0  0    15.250      2
            0  0  0  1     6.250      3
            0  0  0  1     4.450      4
            1  0  0  0     8.850      5
            0  1  0  0     8.850      6
            0  0  1  0     8.850      7
            1  0  0  0     5.050      8
            0  1  0  0     5.050      9
            0  0  1  0     5.050     10
            0  0  0  2     3.450     11
            0  0  0  2     2.300     12
            0  0  0  2     1.600     13
            1  0  0  1     3.350     14
            0  1  0  1     3.350     15
            0  0  1  1     3.350     16
            1  0  0  1     2.050     17
            0  1  0  1     2.050     18
            0  0  1  1     2.050     19
            1  0  0  1     1.200     20
            0  1  0  1     1.200     21
            0  0  1  1     1.200     22
            2  0  0  0     2.000     23
            1  1  0  0     2.000     24
            1  0  1  0     2.000     25
            0  2  0  0     2.000     26
            0  1  1  0     2.000     27
            0  0  2  0     2.000     28
            3  0  0  0     2.000     29
            2  1  0  0     2.000     30
            2  0  1  0     2.000     31
            1  2  0  0     2.000     32
            1  1  1  0     2.000     33
            1  0  2  0     2.000     34
            0  3  0  0     2.000     35
            0  2  1  0     2.000     36
            0  1  2  0     2.000     37
            0  0  3  0     2.000     38
1
 ***************************************************************************************************



                                              ***********************
                                              *  T E C H N I C A L  *
                                              ***********************
  



 =============================================================
 P A R A L L E L I Z A T I O N  and  V E C T O R I Z A T I O N
 =============================================================
  
 Nr of parallel processes:                                1
 Maximum vector length in NumInt loops:                 128

 IO buffersize (Mb):                                     64.000000



 =====================
 S C F   U P D A T E S
 =====================
  
 Max. nr. of cycles:                               300
 Convergence criterion:                              0.0000000100
   secondary criterion:                              0.0000000100

 Mix parameter (when DIIS does not apply):           0.2000000000
 Special mix parameter for the first cycle:          1.0000000000
 Mixed ADIIS+DIIS will be used
    Max number of expansion vectors:                10
    Pure ADIIS when Max([F,P]) is above              0.1000000000
    Pure DIIS when Max([F,P]) is below               0.0010000000
 Automatic ElectronSmearing (in case of problematic SCF convergence) disabled



 =================
 P R E C I S I O N  ***  (General: NumInt, NeglectFunctionTails, ...)  ***
 =================
  

 NumInt:           Target precision:                12.0000000000
 -------           Initial precision:               10.0000000000
                   Min. precision (optimization):   10.0000000000

 Neglect Functions:          Basis functions:        0.1000000000E-13
 ------------------          Fit functions:          0.1000000000E-13



 ===========================
 L I N E A R   S C A L I N G
 ===========================
  

 Cut-off radii density fit:                        0.1000000000E-97
 Overlap cut-off criterion AO matrix elements:     0.1000000000E-97
 Cut-offs for Coulomb potential and fitted density:0.1000000000E-97
 Cut-off criterion for Coulomb multipole terms:    0.1000000000E-97
 Progressive Convergence parameter:                 0.000000000    
1
 ***************************************************************************************************



                                            ***************************
                                            *  C O M P U T A T I O N  *
                                            ***************************
  

 Number of elements of the density matrix on this node (used, total):       741       741



 ===========================================
 Numerical Integration : Fuzzy Cells (Becke)
 ===========================================
  
 Becke grid quality: VERYGOOD       
  
 Lebedev angular grid order:             min:  13 max:  41
 Nr. of radial points:                   min:  93 max:  93

 Total nr. of points:         93
 Nr. of blocks:                1
 Block length:                93
 Nr. of dummy points:          0


 Test of Precision of the Numerical Integration Grid
 ===================================================

 Integral of the Total Core Density:                   0.00000000000000



 ========================
 Density Fitting (zlmFit)
 ========================
  
 ZlmFit Fit Quality: VERYGOOD       
  
 Max L-expansion:                        min:   0 max:   0
 Nr. of radial interpolation points:     min: 200 max: 200



 =====
 S C F  ***  ScaSCF  ***
 =====
  

 CYCLE    1
 SCF Error: norm([F,P])=      0.000000000000, max([F,P])=      0.000000000000
 orbitals (Q,E):
 ---------------
 S :1...7            ( 2.00  -144.4893)  ( 2.00   -36.0966)  ( 2.00   -16.0338)  ( 0.00    -8.9253)
                     ( 0.00    -5.5262)  ( 0.00    -3.6296)  ( 0.00   175.9783)
 P :1...5            ( 6.00   -36.1179)  ( 5.00   -15.7666)  ( 0.00    -8.4199)  ( 0.00    -4.8064)
                     ( 0.00    -2.9092)
 D :1...1            ( 0.00    -9.3333)
 F :1...1            ( 0.00    -6.5000)

 CYCLE    2
  SDIIS (wt  0.000):  1.0000 -0.0000
 A-DIIS (wt  1.000):  0.0000  1.0000
  DIIS coefficients:  0.0000  1.0000
 SCF Error: norm([F,P])=     37.918093115371, max([F,P])=     10.754162001971
 orbitals (Q,E):
 ---------------
 S :1...4            ( 2.00   -86.3665)  ( 2.00    -3.0042)  ( 2.00     0.0879)  ( 0.00     0.9074)
 P :1...3            ( 6.00    -0.5941)  ( 5.00     0.2005)  ( 0.00     1.0624)
 D :1...1            ( 0.00     1.3908)
 F :1...1            ( 0.00     1.7118)

 CYCLE    3
  SDIIS (wt  0.000):  0.2468  0.7532
 A-DIIS (wt  1.000):  0.2184  0.7816
  DIIS coefficients:  0.2184  0.7816
 SCF Error: norm([F,P])=     20.757708249348, max([F,P])=      6.871796656039
 orbitals (Q,E):
 ---------------
 S :1...4            ( 2.00  -105.5772)  ( 2.00   -12.2185)  ( 2.00    -1.9200)  ( 0.00    -0.1982)
 P :1...3            ( 6.00   -10.2793)  ( 5.00    -1.3974)  ( 0.00    -0.0873)
 D :1...1            ( 0.00    -0.4679)
 F :1...1            ( 0.00     0.6062)

 CYCLE    4
  SDIIS (wt  0.000): -0.0788  0.1328  0.9460
 A-DIIS (wt  1.000):  0.0000  0.0000  1.0000
  DIIS coefficients:  0.0000  0.0000  1.0000
 SCF Error: norm([F,P])=      6.021405452047, max([F,P])=      2.061487593708
 orbitals (Q,E):
 ---------------
 S :1...4            ( 2.00   -97.6728)  ( 2.00    -7.4155)  ( 2.00    -0.2425)  ( 0.00     0.4293)
 P :1...3            ( 6.00    -5.1248)  ( 5.00     0.0322)  ( 0.00     0.5151)
 D :1...1            ( 0.00     0.8498)
 F :1...1            ( 0.00     1.4674)

 CYCLE    5
  SDIIS (wt  0.000): -0.0198 -0.0624  0.3895  0.6927
 A-DIIS (wt  1.000):  0.0000  0.0000  0.4691  0.5309
  DIIS coefficients:  0.0000  0.0000  0.4691  0.5309
 SCF Error: norm([F,P])=      4.122826282833, max([F,P])=      1.762338952725
 orbitals (Q,E):
 ---------------
 S :1...4            ( 2.00  -100.7640)  ( 2.00    -9.3467)  ( 2.00    -0.9097)  ( 0.00     0.1217)
 P :1...3            ( 6.00    -7.1584)  ( 5.00    -0.4570)  ( 0.00     0.1672)
 D :1...1            ( 0.00     0.2335)
 F :1...1            ( 0.00     1.0657)

 CYCLE    6
  SDIIS (wt  0.000): -0.0001 -0.0138  0.0424  0.0981  0.8734
 A-DIIS (wt  1.000):  0.0000  0.0000  0.0000  0.0000  1.0000
  DIIS coefficients:  0.0000  0.0000  0.0000  0.0000  1.0000
 SCF Error: norm([F,P])=      0.297134459880, max([F,P])=      0.111907135573
 orbitals (Q,E):
 ---------------
 S :1...4            ( 2.00  -100.6199)  ( 2.00    -9.0705)  ( 2.00    -0.6673)  ( 0.00     0.2275)
 P :1...3            ( 6.00    -6.8928)  ( 5.00    -0.2439)  ( 0.00     0.2570)
 D :1...1            ( 0.00     0.4575)
 F :1...1            ( 0.00     1.2382)

 CYCLE    7
  SDIIS (wt  0.000): -0.0002  0.0003  0.0119 -0.0199  0.3831  0.6249
 A-DIIS (wt  1.000):  0.0000  0.0000  0.0000  0.0000  0.4431  0.5569
  DIIS coefficients:  0.0000  0.0000  0.0000  0.0000  0.4431  0.5569
 SCF Error: norm([F,P])=      0.268270877863, max([F,P])=      0.112251171075
 orbitals (Q,E):
 ---------------
 S :1...4            ( 2.00  -100.8158)  ( 2.00    -9.2442)  ( 2.00    -0.7560)  ( 0.00     0.1940)
 P :1...3            ( 6.00    -7.0691)  ( 5.00    -0.3171)  ( 0.00     0.2236)
 D :1...1            ( 0.00     0.3804)
 F :1...1            ( 0.00     1.1860)

 CYCLE    8
  SDIIS (wt  0.746):  0.0001 -0.0001 -0.0028  0.0035  0.0906  0.1300  0.7787
 A-DIIS (wt  0.254):  0.0000  0.0000  0.0000  0.0000  0.0000  0.0000  1.0000
  DIIS coefficients:  0.0000 -0.0001 -0.0021  0.0026  0.0676  0.0969  0.8350
 SCF Error: norm([F,P])=      0.071559445743, max([F,P])=      0.026187079053
 orbitals (Q,E):
 ---------------
 S :1...4            ( 2.00  -100.7523)  ( 2.00    -9.2108)  ( 2.00    -0.7461)  ( 0.00     0.1973)
 P :1...3            ( 6.00    -7.0328)  ( 5.00    -0.3089)  ( 0.00     0.2267)
 D :1...1            ( 0.00     0.3881)
 F :1...1            ( 0.00     1.1908)

 CYCLE    9
  SDIIS (wt  0.957):  0.0000 -0.0000 -0.0001  0.0003  0.0037 -0.0063  0.1578  0.8445
 A-DIIS (wt  0.043):  0.0000  0.0000  0.0000  0.0000  0.0000  0.0000  0.0000  1.0000
  DIIS coefficients:  0.0000 -0.0000 -0.0001  0.0003  0.0036 -0.0060  0.1511  0.8511
 SCF Error: norm([F,P])=      0.013066268529, max([F,P])=      0.005220141314
 orbitals (Q,E):
 ---------------
 S :1...4            ( 2.00  -100.7623)  ( 2.00    -9.2169)  ( 2.00    -0.7484)  ( 0.00     0.1965)
 P :1...3            ( 6.00    -7.0393)  ( 5.00    -0.3108)  ( 0.00     0.2259)
 D :1...1            ( 0.00     0.3862)
 F :1...1            ( 0.00     1.1896)

 CYCLE   10
  SDIIS (wt  1.000):  0.0000  0.0000 -0.0000 -0.0000  0.0002  0.0011 -0.0030  0.0039  0.9977
  DIIS coefficients:  0.0000  0.0000 -0.0000 -0.0000  0.0002  0.0011 -0.0030  0.0039  0.9977
 SCF Error: norm([F,P])=      0.000485727205, max([F,P])=      0.000202934402
 orbitals (Q,E):
 ---------------
 S :1...4            ( 2.00  -100.7620)  ( 2.00    -9.2166)  ( 2.00    -0.7483)  ( 0.00     0.1965)
 P :1...3            ( 6.00    -7.0390)  ( 5.00    -0.3107)  ( 0.00     0.2259)
 D :1...1            ( 0.00     0.3863)
 F :1...1            ( 0.00     1.1896)

 CYCLE   11
  SDIIS (wt  1.000):  0.0000  0.0000  0.0000  0.0000 -0.0002 -0.0009  0.0045  0.9965
  DIIS coefficients:  0.0000  0.0000  0.0000  0.0000 -0.0002 -0.0009  0.0045  0.9965
 SCF Error: norm([F,P])=      0.000002451026, max([F,P])=      0.000000874874
 orbitals (Q,E):
 ---------------
 S :1...4            ( 2.00  -100.7620)  ( 2.00    -9.2166)  ( 2.00    -0.7483)  ( 0.00     0.1965)
 P :1...3            ( 6.00    -7.0390)  ( 5.00    -0.3107)  ( 0.00     0.2259)
 D :1...1            ( 0.00     0.3863)
 F :1...1            ( 0.00     1.1896)

 CYCLE   12
  SDIIS (wt  1.000):  0.0000  0.0000 -0.0000 -0.0000  0.0001  0.0049  0.9950
  DIIS coefficients:  0.0000  0.0000 -0.0000 -0.0000  0.0001  0.0049  0.9950
 SCF Error: norm([F,P])=      0.000000029116, max([F,P])=      0.000000011194
 orbitals (Q,E):
 ---------------
 S :1...4            ( 2.00  -100.7620)  ( 2.00    -9.2166)  ( 2.00    -0.7483)  ( 0.00     0.1965)
 P :1...3            ( 6.00    -7.0390)  ( 5.00    -0.3107)  ( 0.00     0.2259)
 D :1...1            ( 0.00     0.3863)
 F :1...1            ( 0.00     1.1896)

 CYCLE   13
  SDIIS (wt  1.000):  0.0000 -0.0004  0.0111  0.9893
  DIIS coefficients:  0.0000 -0.0004  0.0111  0.9893
 SCF Error: norm([F,P])=      0.000000001290, max([F,P])=      0.000000000495
 orbitals (Q,E):
 ---------------
 S :1...4            ( 2.00  -100.7620)  ( 2.00    -9.2166)  ( 2.00    -0.7483)  ( 0.00     0.1965)
 P :1...3            ( 6.00    -7.0390)  ( 5.00    -0.3107)  ( 0.00     0.2259)
 D :1...1            ( 0.00     0.3863)
 F :1...1            ( 0.00     1.1896)

 SCF CONVERGED

 CYCLE   14
1
 ***************************************************************************************************



                                                *******************
                                                *  R E S U L T S  *
                                                *******************
  
 *** Setting up for NEW gradients in Focky
 *** Using FIT density in Focky

 Orbital Energies, per Irrep and Spin:
 ======================================
                        Occup              E (au)              E (eV)       Diff (eV) with prev. cycle
                        -----      --------------------        ------       --------------------------
 S
               1        2.000     -0.10076196025470E+03     -2741.872               4.83E-10
               2        2.000     -0.92166234791376E+01      -250.797               4.96E-10
               3        2.000     -0.74829309878317E+00       -20.362               4.12E-10
               4        0.000      0.19650378945431E+00         5.347
               5        0.000      0.20105214794381E+01        54.709
               6        0.000      0.12737820956871E+02       346.614
               7        0.000      0.21467502602048E+03      5841.605
 P
               1        6.000     -0.70390087591571E+01      -191.541               4.92E-10
               2        5.000     -0.31074821072056E+00        -8.456               3.59E-10
               3        0.000      0.22590803353600E+00         6.147
               4        0.000      0.21023976914888E+01        57.209
               5        0.000      0.18828233069566E+02       512.342
 D
               1        0.000      0.38627333037828E+00        10.511
 F
               1        0.000      0.11896264283968E+01        32.371


 Partially Occupied:
               2 P                -0.31074821072056E+00
  
 HOMO :        3 S                -0.74829309878317E+00
 LUMO :        4 S                 0.19650378945431E+00
  


 Orbital Energies, all Irreps
 ========================================

 Irrep        no.  (spin)   Occup              E (au)                E (eV)
 ---------------------------------------------------------------------------
 S             1             2.00       -0.10076196025470E+03     -2741.8724
 S             2             2.00       -0.92166234791376E+01      -250.7971
 P             1             6.00       -0.70390087591571E+01      -191.5412
 S             3             2.00       -0.74829309878317E+00       -20.3621
 P             2             5.00       -0.31074821072056E+00        -8.4559
 S             4             0.00        0.19650378945431E+00         5.3471
 P             3             0.00        0.22590803353600E+00         6.1473
 D             1             0.00        0.38627333037828E+00        10.5110
 F             1             0.00        0.11896264283968E+01        32.3714
 S             5             0.00        0.20105214794381E+01        54.7091
 P             4             0.00        0.21023976914888E+01        57.2092
 S             6             0.00        0.12737820956871E+02       346.6137
 P             5             0.00        0.18828233069566E+02       512.3423
 S             7             0.00        0.21467502602048E+03      5841.6047


 All Electron Calculation, thus no Orbital Energies of the Core Orbitals are calculated



 =======================================
 M U L L I K E N   P O P U L A T I O N S
 =======================================
  
 The survey below gives for each atom:
 a) the total charge (Z minus electrons)
 b) the net spin polarization (nr of electrons spin-A minus spin-B)
 c) for each spin the atomic electron valence density (integrated) per L-value.

 Atom              Charge    Spin density          S         P         D         F
 ----              ------    ------------       ------    ------    ------    ------
 1 Cl              0.0000                       6.0000   11.0000    0.0000    0.0000

 Populations of individual BAS functions
 ----------------------------------------
 1 Cl           0.5041  1.4544  1.7124  0.2493  0.7286  0.7286  0.7286  1.2681  1.2681  1.2681
                0.6256  1.0927  0.3615  0.2681  0.2681  0.2681  1.0016  1.0016  1.0016  0.4002
                0.4002  0.4002  0.0000  0.0000  0.0000  0.0000  0.0000  0.0000  0.0000  0.0000
                0.0000  0.0000  0.0000  0.0000  0.0000  0.0000  0.0000  0.0000

 Gross Charges per Atom (Z minus electrons)
 ==========================================
             0.0000
 Net Total:  0.00000000



 =======================================================================
 Electrostatic potential at the Nuclei due to electrons and other nuclei
 =======================================================================
  
         Atom                  Potential
         ----                  ---------
     1)   Cl                 64.38336388
 
 
 ========================
 No memory problems found
 ========================
 
 Maximum number of active allocate calls:         447
 
 *******************************************************************************

                             A D F   E X I T
 NORMAL TERMINATION



 =================
 Timing Statistics
 =================
  
 Total Used :                     CPU=        0.64      System=        0.02     Elapsed=        0.67

 Calls  Section                     ( Mean, Percentage )
 ---------------------------------------------------------------------------------------------------
     3  ><      ................      0.00    0.16             0.00    0.00             0.00    0.12
     1  INIT    ................      0.01    1.73             0.01   58.33             0.03    5.18
     1  GEOMET  ................      0.00    0.63             0.00   16.67             0.01    1.26
     1  INPUTA  ................      0.00    0.16             0.00    0.00             0.00    0.23
     1  MAINSY  ................      0.00    0.79             0.00    4.17             0.01    0.89
     1  SYMFIT  ................      0.00    0.16             0.00    0.00             0.00    0.12
     1  CORORT  ................      0.00    0.00             0.00    0.00             0.00    0.04
     1  SYMORB  ................      0.00    0.16             0.00    0.00             0.00    0.10
     1  CLSMAT  ................      0.00    0.79             0.00    0.00             0.01    0.78
     1  ORTHON  ................      0.00    0.31             0.00    0.00             0.00    0.23
     1  GENPT   ................      0.02    2.99             0.00    0.00             0.02    2.82
     1  PTBAS   ................      0.00    0.47             0.00    0.00             0.00    0.52
    14  FOCKY   ................      0.04   78.30             0.00   12.50             0.04   74.80
    14  FOCKTR  ................      0.00    2.20             0.00    0.00             0.00    1.78
    14  SDIIS   ................      0.00    3.14             0.00    4.17             0.00    3.42
     1  COREPS  ................      0.03    4.09             0.00    4.17             0.03    3.99
     1  POPAN   ................      0.00    0.79             0.00    0.00             0.01    0.78
     1  DEBYE   ................      0.00    0.16             0.00    0.00             0.00    0.09
     1  EXIT PROCEDURE .........      0.02    2.99             0.00    0.00             0.02    2.85


 Currently Open Files (EXIT00)
 ====================

 Unit    Access Format  Status   Type       Ident (file)
 -------------------------------------------------------
   3      SEQ    FORM   TRANSP  NORMAL      LOGFILE
                                          ( logfile )


 Buffered I/O statistics
 =======================
 Memory available:                     67108864
 Number of records fitting in memory:     16131
 Input :   0.1% of                        29192  *4k bytes
 Output:  12.9% of                         1456  *4k bytes
 Records from serial files evicted:           0
                    others evicted:           0
 Hash table lookups:      75541 with          0 conflicts (  0.00%)

 ***************************************************************************************************
 (LOGFILE)
 <Apr18-2019> <13:56:07>  ADF development version  RunTime: Apr18-2019 13:56:07  Nodes: 1  Procs: 1
 <Apr18-2019> <13:56:07>  Bromine (TZ2P)
 <Apr18-2019> <13:56:07>  RunType   : CREATE
 <Apr18-2019> <13:56:07>  Net Charge: 0 (Nuclei minus Electrons)
 <Apr18-2019> <13:56:07>  Symmetry  : ATOM
  Coordinates
    Atom         X           Y           Z   (Angstrom)
    1.Br        0.000000    0.000000    0.000000
 <Apr18-2019> <13:56:07>  >>>> CORORT
 <Apr18-2019> <13:56:07>  >>>> CLSMAT
 <Apr18-2019> <13:56:07>  >>>> ORTHON
 <Apr18-2019> <13:56:07>  >>>> GENPT
 <Apr18-2019> <13:56:07>  Block Length= 106
 <Apr18-2019> <13:56:07>  >>>> PTBAS
 <Apr18-2019> <13:56:07>  >>>> CYCLE
 <Apr18-2019> <13:56:07>              |Error|         MaxErr       Wt(A-DIIS)
 <Apr18-2019> <13:56:07>      1      0.00000000      0.00000000
 <Apr18-2019> <13:56:07>      2    133.90378859     33.00263884    100.0
 <Apr18-2019> <13:56:07>      3     49.62914370     17.59518881    100.0
 <Apr18-2019> <13:56:07>      4      9.09209484      2.12485505    100.0
 <Apr18-2019> <13:56:07>      5     11.70158419      3.98842598    100.0
 <Apr18-2019> <13:56:07>      6      1.82354005      0.45661929    100.0
 <Apr18-2019> <13:56:08>      7      1.60769584      0.41584263    100.0
 <Apr18-2019> <13:56:08>      8      0.06575401      0.01946729     18.7
 <Apr18-2019> <13:56:08>      9      0.02601319      0.00809116      7.2
 <Apr18-2019> <13:56:08>     10      0.00046367      0.00010037      0.0
 <Apr18-2019> <13:56:08>     11      0.00001086      0.00000278      0.0
 <Apr18-2019> <13:56:08>     12      0.00000025      0.00000006      0.0
 <Apr18-2019> <13:56:08>     13      0.00000001      0.00000000      0.0
 <Apr18-2019> <13:56:08>  SCF converged
 <Apr18-2019> <13:56:08>     14      0.00000000      0.00000000      0.0
 <Apr18-2019> <13:56:08>  >>>> POPAN
 <Apr18-2019> <13:56:08>  >>>> DEBYE
 <Apr18-2019> <13:56:08>  NORMAL TERMINATION
 <Apr18-2019> <13:56:08>  END
 <Apr18-2019> <13:56:08>  ADF development version  RunTime: Apr18-2019 13:56:08  Nodes: 1  Procs: 1
 <Apr18-2019> <13:56:08>  Chlorine (TZ2P)
 <Apr18-2019> <13:56:08>  RunType   : CREATE
 <Apr18-2019> <13:56:08>  Net Charge: 0 (Nuclei minus Electrons)
 <Apr18-2019> <13:56:08>  Symmetry  : ATOM
  Coordinates
    Atom         X           Y           Z   (Angstrom)
    1.Cl        0.000000    0.000000    0.000000
 <Apr18-2019> <13:56:08>  >>>> CORORT
 <Apr18-2019> <13:56:08>  >>>> CLSMAT
 <Apr18-2019> <13:56:08>  >>>> ORTHON
 <Apr18-2019> <13:56:08>  >>>> GENPT
 <Apr18-2019> <13:56:08>  Block Length=  93
 <Apr18-2019> <13:56:08>  >>>> PTBAS
 <Apr18-2019> <13:56:08>  >>>> CYCLE
 <Apr18-2019> <13:56:08>              |Error|         MaxErr       Wt(A-DIIS)
 <Apr18-2019> <13:56:08>      1      0.00000000      0.00000000
 <Apr18-2019> <13:56:08>      2     37.91809312     10.75416200    100.0
 <Apr18-2019> <13:56:08>      3     20.75770825      6.87179666    100.0
 <Apr18-2019> <13:56:08>      4      6.02140545      2.06148759    100.0
 <Apr18-2019> <13:56:08>      5      4.12282628      1.76233895    100.0
 <Apr18-2019> <13:56:08>      6      0.29713446      0.11190714    100.0
 <Apr18-2019> <13:56:08>      7      0.26827088      0.11225117    100.0
 <Apr18-2019> <13:56:08>      8      0.07155945      0.02618708     25.4
 <Apr18-2019> <13:56:08>      9      0.01306627      0.00522014      4.3
 <Apr18-2019> <13:56:08>     10      0.00048573      0.00020293      0.0
 <Apr18-2019> <13:56:08>     11      0.00000245      0.00000087      0.0
 <Apr18-2019> <13:56:08>     12      0.00000003      0.00000001      0.0
 <Apr18-2019> <13:56:09>     13      0.00000000      0.00000000      0.0
 <Apr18-2019> <13:56:09>  SCF converged
 <Apr18-2019> <13:56:09>     14      0.00000000      0.00000000      0.0
 <Apr18-2019> <13:56:09>  >>>> POPAN
 <Apr18-2019> <13:56:09>  >>>> DEBYE
 <Apr18-2019> <13:56:09>  NORMAL TERMINATION
 <Apr18-2019> <13:56:09>  END


 Parallel Execution: Process Information
 ==============================================================================
 Rank   Node Name                              NodeID   MyNodeRank  NodeMaster
    0   BAZIS-cn076                               0          0          0
    1   BAZIS-cn076                               0          1         -1
    2   BAZIS-cn076                               0          2         -1
    3   BAZIS-cn076                               0          3         -1
    4   BAZIS-cn076                               0          4         -1
    5   BAZIS-cn076                               0          5         -1
    6   BAZIS-cn076                               0          6         -1
    7   BAZIS-cn076                               0          7         -1
    8   BAZIS-cn076                               0          8         -1
    9   BAZIS-cn076                               0          9         -1
   10   BAZIS-cn076                               0         10         -1
   11   BAZIS-cn076                               0         11         -1
 ==============================================================================


May use up to 30736MB of RAM as shared memory on node 0


XC
  GGA blyp
  DISPERSION Grimme3 BJDAMP
END

ANALYTICALFREQ
END

SCF
  iterations 250
END

Geometry
  Iterations 300
  Optim Cartesian
  Convergence E=1e-4 grad=1e-4
End

SYMMETRY nosym
CHARGE -1

ZLMFIT
  Quality normal
END

BECKEGRID
  Quality good
End

ATOMS
Br     -4.94867129       3.04098476       0.02199102
Cl     -3.76372578       1.14672480       0.05741844
Cl    -6.06298381       5.11120939      -0.21661069
END

Fragments
Br t21.Br
Cl t21.Cl
End
end input

 *******************************************************************************
 *                                                                             *
 *  -------------------------------------                                      *
 *   Amsterdam Density Functional  (ADF)         development version           *
 *  -------------------------------------                                      *
 *                                               r61132 2017-09-08             *
 *                                                                             *
 *                                                                             *
 *                              =================                              *
 *                              |               |                              *
 *                              |     A D F     |                              *
 *                              |               |                              *
 *                              =================                              *
 *                                                                             *
 *                                                                             *
 *   Online information and documentation:  https://www.scm.com/support/       *
 *   E-mail:  support@scm.com   info@scm.com                                   *
 *                                                                             *
 *   Scientific publications using ADF results must be properly referenced     *
 *   See the User Manuals (or the web site) for recommended citations          *
 *   The terms and conditions of the End User License Agreement apply to       *
 *   the use of ADF, https://www.scm.com/license-terms/                        *
 *                                                                             *
 **********************  x86_64_linux_intel / intelmpi  ************************
 
 Licensed to: VU/FEW (+ SARA) / ALGEMEEN / Amsterdam / THE NETHERLANDS
 SCM User ID: u7668
  
 ADF development version  RunTime: Apr18-2019 13:56:09  Nodes: 1  Procs: 12

 Temporary files are created in /local/datastore0/tcst25/186696/kid_0.DTDPgS


Communication costs MPI_COMM_WORLD:      2.543 usec per message,   0.0134 usec per 8-byte item
Communication costs for intra-node:      2.503 usec per message,   0.0133 usec per 8-byte item

 *** (NO TITLE) ***



 ===========================
 A T T A C H E D   F I L E S
 ===========================
  



 ===============================
 M O D E L   P A R A M E T E R S
 ===============================
  
 DENSITY FUNCTIONAL POTENTIAL (scf)
    LDA:                               Exchange only                           == Not Default ==
    Gradient Corrections:              Becke88 LYP                             == Not Default ==

 SPIN  (restricted / unrestr.)
    Molecule:                          Restricted                               
    Fragments:                         Restricted                               

 OTHER ASPECTS
    Relativistic Corrections:          ---                                      

    Nuclear Charge Density Model:      Point Charge Nuclei                      
    Core Treatment:                    Frozen Orbital(s)                        

    Hyperfine or Zeeman Interaction:   ---                                      

 Settings for Grimme 3 dispersion correction

      damping                        BJ
      s6                          1.000
      a1                          0.430
      s8                          2.700
      a2                          4.236

 Other (technical) parameters

      alpha                      14.000
      version                         4
 


 Fragment File(s)
 ----------------
 Br:
         file : t21.Br
         jobid: ADF development version  RunTime: Apr18-2019 13:56:07  Nodes: 1  Procs: 1
         title: Bromine (TZ2P)
 Cl:
         file : t21.Cl
         jobid: ADF development version  RunTime: Apr18-2019 13:56:08  Nodes: 1  Procs: 1
         title: Chlorine (TZ2P)



                                   *********************************************
                                   *  R U N   T Y P E : GEOMETRY OPTIMIZATION  *
                                   *********************************************
  



 ===============
 G E O M E T R Y  ***  Planar Molecule  ***
 ===============
  

 ATOMS
 =====                            X Y Z                    CHARGE
                                (Angstrom)             Nucl     +Core       At.Mass
                       --------------------------    ----------------       -------
    1  Br             -4.9487    3.0410    0.0220     35.00     35.00       78.9183
    2  Cl             -3.7637    1.1467    0.0574     17.00     17.00       34.9689
    3  Cl             -6.0630    5.1112   -0.2166     17.00     17.00       34.9689


 FRAGMENTS
 =========                                     Atoms in this Fragment     Cart. coord.s (Angstrom)
                                               -------------------------------------------------------
    1  Br                                                1  Br          -4.9487    3.0410    0.0220
    2  Cl                                                2  Cl          -3.7637    1.1467    0.0574
    3  Cl                                                3  Cl          -6.0630    5.1112   -0.2166


 Interatomic Distance Matrix (Angstrom)
 --------------------------------------

   1)     0.000
   2)     2.235   0.000
   3)     2.363   4.591   0.000

 Min. Distance =    2.2346
 Max. Distance =    4.5912



 =====================================
 S Y M M E T R Y ,   E L E C T R O N S
 =====================================
  
 Symmetry: NOSYM

 Irreducible Representations, including subspecies
 -------------------------------------------------
 A


 Configuration of Valence Electrons
 ==================================
 ( determined in the SCF procedure )

 Total:   70

 Net Charge: -1 (Nuclei minus Electrons)

 Aufbau principle for MO occupations will be applied through SCF cycle no.     125
 Thereafter, the program will assign electrons to MOs that are spatially
 similar to the occupied MOs in a "reference" cycle ("KeepOrbitals").
 The reference cycle is always the PREVIOUS cycle: it will evolve with
 the SCF procedure.
1
 ***************************************************************************************************



                                      ****************************************
                                      *  B U I L D : (Fragments, Functions)  *
                                      ****************************************
  



 =======
 S F O s  ***  (Symmetrized Fragment Orbitals)  ***
 =======
  
 SFOs are linear combinations of (valence) Fragment Orbitals (FOs), such that the SFOs transform as the
 irreducible representations of the (molecular) symmetry group. Each SFO is therefore characterized by
 an irrep of the molecule and by a few (or only one) generating FOs.
 The SFOs constitute a symmetry-adapted basis for the Fock matrix. The MO eigenvector coefficients in
 this basis provide a direct interpretation of the MOs in terms of Frontier Orbital Theory.

 The SFOs are combined with auxiliary Core Functions (CFs) to ensure orthogonalization on the (frozen)
 Core Orbitals (COs). The Core-orthogonalized SFOs (CSFOs) constitute the true Fock basis.

 The FOs, and hence also the (C)SFOs are combinations of the elementary basis functions (BAS). The basis
 functions that participate in the description of the SFOs depend on the irrep. The indices of the
 involved functions are printed below for each irrep.
 (The complete list of primitive basis functions is printed in another section)

 Total nr. of (C)SFOs (summation over all irreps) :   124

 NOTE: a (C)SFO that is defined as a combination of more than one FO is usually NOT normalized.



                                       === A ===
 Nr. of SFOs :  124
 Cartesian basis functions that participate in this irrep (total number =   139) :
      1     2     3    10    11    36    37    38     4     7
     12    15    39    42    45     5     8    13    16    40
     43    46     6     9    14    17    41    44    47    18
     24    30    48    19    25    31    49    20    26    32
     50    21    27    33    51    22    28    34    52    23
     29    35    53    54    55    56    57    58    59    60
     61    62    63    64    65    66    67    74    75    76
     68    71    77    80    83    69    72    78    81    84
     70    73    79    82    85    86    87    88    89    90
     91    92    93    94    95    96    97    98    99   100
    101   102   103   104   105   112   113   114   106   109
    115   118   121   107   110   116   119   122   108   111
    117   120   123   124   125   126   127   128   129   130
    131   132   133   134   135   136   137   138   139

[...]
  Coordinates in Geometry Cycle 1
    Atom         X           Y           Z   (Angstrom)
    1.Br       -4.948671    3.040985    0.021991
    2.Cl       -3.763726    1.146725    0.057418
    3.Cl       -6.062984    5.111209   -0.216611
 <Apr18-2019> <13:56:09>  >>>> CORORT
 <Apr18-2019> <13:56:09>  >>>> CLSMAT
 <Apr18-2019> <13:56:09>  >>>> ORTHON
 <Apr18-2019> <13:56:09>  >>>> GENPT
 <Apr18-2019> <13:56:09>  Block Length= 128
 <Apr18-2019> <13:56:09>  >>>> PTBAS
 <Apr18-2019> <13:56:09>  >>>> CYCLE
 <Apr18-2019> <13:56:10>              |Error|         MaxErr       Wt(A-DIIS)
 <Apr18-2019> <13:56:10>      1      2.44814684      0.77470824
 <Apr18-2019> <13:56:10>      2      0.35181038      0.10974041    100.0
 <Apr18-2019> <13:56:10>      3      0.20671646      0.06696508    100.0
 <Apr18-2019> <13:56:10>      4      0.22767007      0.07459074     74.3
 <Apr18-2019> <13:56:10>      5      0.24101358      0.07090915    100.0
 <Apr18-2019> <13:56:10>      6      0.07833859      0.01682128     16.0
 <Apr18-2019> <13:56:10>      7      0.05331289      0.01207660     11.2
 <Apr18-2019> <13:56:10>      8      0.00463247      0.00090361      0.0
 <Apr18-2019> <13:56:10>      9      0.00120224      0.00024028      0.0
 <Apr18-2019> <13:56:10>     10      0.00037925      0.00009015      0.0
 <Apr18-2019> <13:56:11>     11      0.00005210      0.00000985      0.0
 <Apr18-2019> <13:56:11>     12      0.00001916      0.00000624      0.0
 <Apr18-2019> <13:56:11>     13      0.00000501      0.00000117      0.0
 <Apr18-2019> <13:56:11>     14      0.00000026      0.00000006      0.0
 <Apr18-2019> <13:56:11>  SCF converged
 <Apr18-2019> <13:56:11>     15      0.00000013      0.00000003      0.0
 <Apr18-2019> <13:56:11>  >>>> TOTEN
 <Apr18-2019> <13:56:11>  >>>> POPAN
 <Apr18-2019> <13:56:11>  >>>> DEBYE
 <Apr18-2019> <13:56:11>  >>>> ENGRAD
 <Apr18-2019> <13:56:11>  current energy                               -0.29509625 Hartree
 <Apr18-2019> <13:56:11>  energy change                      -0.29509625     0.00010000    F
 <Apr18-2019> <13:56:11>  constrained gradient max            0.09083666     0.00010000    F
 <Apr18-2019> <13:56:11>  constrained gradient rms            0.04313492     0.00006667    F
 <Apr18-2019> <13:56:11>  gradient max                        0.09083666
 <Apr18-2019> <13:56:11>  gradient rms                        0.04313492
 <Apr18-2019> <13:56:11>  cart. step max                      0.11307854     0.01000000    F
 <Apr18-2019> <13:56:11>  cart. step rms                      0.06110412     0.00666667    F
  Coordinates in Geometry Cycle 2
    Atom         X           Y           Z   (Angstrom)
    1.Br       -4.921124    3.057431   -0.020167
    2.Cl       -3.717152    1.033646    0.086259
    3.Cl       -6.137105    5.207842   -0.203294
 <Apr18-2019> <13:56:11>  >>>> CORORT
 <Apr18-2019> <13:56:11>  >>>> CLSMAT
 <Apr18-2019> <13:56:11>  >>>> ORTHON
 <Apr18-2019> <13:56:11>  >>>> GENPT
 <Apr18-2019> <13:56:11>  Block Length= 128
 <Apr18-2019> <13:56:11>  >>>> PTBAS
 <Apr18-2019> <13:56:11>  >>>> CYCLE
 <Apr18-2019> <13:56:12>              |Error|         MaxErr       Wt(A-DIIS)
 <Apr18-2019> <13:56:12>      1      0.54605420      0.17789198
 <Apr18-2019> <13:56:12>      2      0.03751744      0.00739908    100.0
 <Apr18-2019> <13:56:12>      3      0.07078493      0.01411751    100.0
 <Apr18-2019> <13:56:12>      4      0.01903324      0.00372062      2.7
 <Apr18-2019> <13:56:12>      5      0.00604105      0.00118374      0.2
 <Apr18-2019> <13:56:12>      6      0.00117770      0.00020774      0.0
 <Apr18-2019> <13:56:12>      7      0.00056739      0.00011987      0.0
 <Apr18-2019> <13:56:12>      8      0.00004117      0.00000712      0.0
 <Apr18-2019> <13:56:12>      9      0.00001774      0.00000454      0.0
 <Apr18-2019> <13:56:12>     10      0.00000244      0.00000066      0.0
 <Apr18-2019> <13:56:12>  SCF converged
 <Apr18-2019> <13:56:12>     11      0.00000063      0.00000015      0.0
 <Apr18-2019> <13:56:12>  >>>> TOTEN
 <Apr18-2019> <13:56:13>  >>>> POPAN
 <Apr18-2019> <13:56:13>  >>>> DEBYE
 <Apr18-2019> <13:56:13>  >>>> ENGRAD
 <Apr18-2019> <13:56:13>  current energy                               -0.30858057 Hartree
 <Apr18-2019> <13:56:13>  energy change                      -0.01348433     0.00010000    F
 <Apr18-2019> <13:56:13>  constrained gradient max            0.03549037     0.00010000    F
 <Apr18-2019> <13:56:13>  constrained gradient rms            0.01682102     0.00006667    F
 <Apr18-2019> <13:56:13>  gradient max                        0.03549037
 <Apr18-2019> <13:56:13>  gradient rms                        0.01682102
 <Apr18-2019> <13:56:13>  cart. step max                      0.08108539     0.01000000    F
 <Apr18-2019> <13:56:13>  cart. step rms                      0.04499372     0.00666667    F
  Coordinates in Geometry Cycle 3
    Atom         X           Y           Z   (Angstrom)
    1.Br       -4.906863    3.076741   -0.049663
    2.Cl       -3.727198    0.952561    0.154993
    3.Cl       -6.141320    5.269617   -0.242531
 <Apr18-2019> <13:56:13>  >>>> CORORT
 <Apr18-2019> <13:56:13>  >>>> CLSMAT
 <Apr18-2019> <13:56:13>  >>>> ORTHON
 <Apr18-2019> <13:56:13>  >>>> GENPT
 <Apr18-2019> <13:56:13>  Block Length= 128
 <Apr18-2019> <13:56:13>  >>>> PTBAS
 <Apr18-2019> <13:56:13>  >>>> CYCLE
 <Apr18-2019> <13:56:13>              |Error|         MaxErr       Wt(A-DIIS)
 <Apr18-2019> <13:56:13>      1      0.26696516      0.07767928
 <Apr18-2019> <13:56:13>      2      0.03725148      0.00762741    100.0
 <Apr18-2019> <13:56:13>      3      0.12294512      0.02701346    100.0
 <Apr18-2019> <13:56:13>      4      0.04058282      0.00876766      7.8
 <Apr18-2019> <13:56:13>      5      0.00480002      0.00121207      0.2
 <Apr18-2019> <13:56:14>      6      0.00135393      0.00029343      0.0
 <Apr18-2019> <13:56:14>      7      0.00016927      0.00004235      0.0
 <Apr18-2019> <13:56:14>      8      0.00004860      0.00001359      0.0
 <Apr18-2019> <13:56:14>      9      0.00000849      0.00000186      0.0
 <Apr18-2019> <13:56:14>     10      0.00000217      0.00000048      0.0
 <Apr18-2019> <13:56:14>  SCF converged
 <Apr18-2019> <13:56:14>     11      0.00000032      0.00000006      0.0
 <Apr18-2019> <13:56:14>  >>>> TOTEN
 <Apr18-2019> <13:56:14>  >>>> POPAN
 <Apr18-2019> <13:56:14>  >>>> DEBYE
 <Apr18-2019> <13:56:14>  >>>> ENGRAD
 <Apr18-2019> <13:56:14>  current energy                               -0.31124652 Hartree
 <Apr18-2019> <13:56:14>  energy change                      -0.00266594     0.00010000    F
 <Apr18-2019> <13:56:14>  constrained gradient max            0.01232440     0.00010000    F
 <Apr18-2019> <13:56:14>  constrained gradient rms            0.00645637     0.00006667    F
 <Apr18-2019> <13:56:14>  gradient max                        0.01232440
 <Apr18-2019> <13:56:14>  gradient rms                        0.00645637
 <Apr18-2019> <13:56:14>  cart. step max                      0.05111455     0.01000000    F
 <Apr18-2019> <13:56:14>  cart. step rms                      0.03004774     0.00666667    F
  Coordinates in Geometry Cycle 4
    Atom         X           Y           Z   (Angstrom)
    1.Br       -4.907394    3.087552   -0.056759
    2.Cl       -3.747036    0.911511    0.206108
    3.Cl       -6.120950    5.299855   -0.286550
 <Apr18-2019> <13:56:14>  >>>> CORORT
 <Apr18-2019> <13:56:14>  >>>> CLSMAT
 <Apr18-2019> <13:56:14>  >>>> ORTHON
 <Apr18-2019> <13:56:14>  >>>> GENPT
 <Apr18-2019> <13:56:14>  Block Length= 128
 <Apr18-2019> <13:56:14>  >>>> PTBAS
 <Apr18-2019> <13:56:14>  >>>> CYCLE
 <Apr18-2019> <13:56:15>              |Error|         MaxErr       Wt(A-DIIS)
 <Apr18-2019> <13:56:15>      1      0.11437922      0.03513156
 <Apr18-2019> <13:56:15>      2      0.02811020      0.00652652    100.0
 <Apr18-2019> <13:56:15>      3      0.10315868      0.02406940    100.0
 <Apr18-2019> <13:56:15>      4      0.03602063      0.00826189    100.0
 <Apr18-2019> <13:56:15>      5      0.00320894      0.00074402      0.0
 <Apr18-2019> <13:56:15>      6      0.00078490      0.00015326      0.0
 <Apr18-2019> <13:56:15>      7      0.00013354      0.00002891      0.0
 <Apr18-2019> <13:56:15>      8      0.00003204      0.00000923      0.0
 <Apr18-2019> <13:56:15>      9      0.00000685      0.00000174      0.0
 <Apr18-2019> <13:56:15>     10      0.00000118      0.00000027      0.0
 <Apr18-2019> <13:56:15>  SCF converged
 <Apr18-2019> <13:56:16>     11      0.00000028      0.00000006      0.0
 <Apr18-2019> <13:56:16>  >>>> TOTEN
 <Apr18-2019> <13:56:16>  >>>> POPAN
 <Apr18-2019> <13:56:16>  >>>> DEBYE
 <Apr18-2019> <13:56:16>  >>>> ENGRAD
 <Apr18-2019> <13:56:16>  current energy                               -0.31162370 Hartree
 <Apr18-2019> <13:56:16>  energy change                      -0.00037718     0.00010000    F
 <Apr18-2019> <13:56:16>  constrained gradient max            0.00602442     0.00010000    F
 <Apr18-2019> <13:56:16>  constrained gradient rms            0.00303163     0.00006667    F
 <Apr18-2019> <13:56:16>  gradient max                        0.00602442
 <Apr18-2019> <13:56:16>  gradient rms                        0.00303163
 <Apr18-2019> <13:56:16>  cart. step max                      0.00874612     0.01000000    T
 <Apr18-2019> <13:56:16>  cart. step rms                      0.00535541     0.00666667    T
  Coordinates in Geometry Cycle 5
    Atom         X           Y           Z   (Angstrom)
    1.Br       -4.914861    3.090497   -0.050592
    2.Cl       -3.747609    0.908774    0.208687
    3.Cl       -6.112910    5.299648   -0.295296
 <Apr18-2019> <13:56:16>  >>>> CORORT
 <Apr18-2019> <13:56:16>  >>>> CLSMAT
 <Apr18-2019> <13:56:16>  >>>> ORTHON
 <Apr18-2019> <13:56:16>  >>>> GENPT
 <Apr18-2019> <13:56:16>  Block Length= 128
 <Apr18-2019> <13:56:16>  >>>> PTBAS
 <Apr18-2019> <13:56:16>  >>>> CYCLE
 <Apr18-2019> <13:56:16>              |Error|         MaxErr       Wt(A-DIIS)
 <Apr18-2019> <13:56:16>      1      0.02304162      0.00590499
 <Apr18-2019> <13:56:16>      2      0.01293240      0.00316469    100.0
 <Apr18-2019> <13:56:16>      3      0.01046978      0.00256046    100.0
 <Apr18-2019> <13:56:16>      4      0.01029331      0.00251863      1.5
 <Apr18-2019> <13:56:16>      5      0.01944942      0.00462202    100.0
 <Apr18-2019> <13:56:17>      6      0.00397863      0.00090680      0.0
 <Apr18-2019> <13:56:17>      7      0.00040567      0.00010111      0.0
 <Apr18-2019> <13:56:17>      8      0.00004178      0.00001296      0.0
 <Apr18-2019> <13:56:17>      9      0.00001810      0.00000954      0.0
 <Apr18-2019> <13:56:17>     10      0.00001525      0.00000807      0.0
 <Apr18-2019> <13:56:17>     11      0.00001283      0.00000683      0.0
 <Apr18-2019> <13:56:17>     12      0.00000906      0.00000501      0.0
 <Apr18-2019> <13:56:17>     13      0.00000423      0.00000219      0.0
 <Apr18-2019> <13:56:17>     14      0.00000014      0.00000002      0.0
 <Apr18-2019> <13:56:17>  SCF converged
 <Apr18-2019> <13:56:17>     15      0.00000005      0.00000001      0.0
 <Apr18-2019> <13:56:17>  >>>> TOTEN
 <Apr18-2019> <13:56:18>  >>>> POPAN
 <Apr18-2019> <13:56:18>  >>>> DEBYE
 <Apr18-2019> <13:56:18>  >>>> ENGRAD
 <Apr18-2019> <13:56:18>  current energy                               -0.31168649 Hartree
 <Apr18-2019> <13:56:18>  energy change                      -0.00006280     0.00010000    T
 <Apr18-2019> <13:56:18>  constrained gradient max            0.00424253     0.00010000    F
 <Apr18-2019> <13:56:18>  constrained gradient rms            0.00209409     0.00006667    F
 <Apr18-2019> <13:56:18>  gradient max                        0.00424253
 <Apr18-2019> <13:56:18>  gradient rms                        0.00209409
 <Apr18-2019> <13:56:18>  cart. step max                      0.01143128     0.01000000    F
 <Apr18-2019> <13:56:18>  cart. step rms                      0.00641730     0.00666667    T
  Coordinates in Geometry Cycle 6
    Atom         X           Y           Z   (Angstrom)
    1.Br       -4.926293    3.097917   -0.043220
    2.Cl       -3.740523    0.903236    0.204784
    3.Cl       -6.108565    5.297765   -0.298765
 <Apr18-2019> <13:56:18>  >>>> CORORT
 <Apr18-2019> <13:56:18>  >>>> CLSMAT
 <Apr18-2019> <13:56:18>  >>>> ORTHON
 <Apr18-2019> <13:56:18>  >>>> GENPT
 <Apr18-2019> <13:56:18>  Block Length= 128
 <Apr18-2019> <13:56:18>  >>>> PTBAS
 <Apr18-2019> <13:56:18>  >>>> CYCLE
 <Apr18-2019> <13:56:18>              |Error|         MaxErr       Wt(A-DIIS)
 <Apr18-2019> <13:56:18>      1      0.04159098      0.01182109
 <Apr18-2019> <13:56:18>      2      0.02619146      0.00641776    100.0
 <Apr18-2019> <13:56:18>      3      0.08928538      0.02125064    100.0
 <Apr18-2019> <13:56:18>      4      0.03032475      0.00716518    100.0
 <Apr18-2019> <13:56:18>      5      0.00181961      0.00045838      0.0
 <Apr18-2019> <13:56:18>      6      0.00064759      0.00017937      0.0
 <Apr18-2019> <13:56:19>      7      0.00007325      0.00001878      0.0
 <Apr18-2019> <13:56:19>      8      0.00001247      0.00000254      0.0
 <Apr18-2019> <13:56:19>      9      0.00000252      0.00000054      0.0
 <Apr18-2019> <13:56:19>  SCF converged
 <Apr18-2019> <13:56:19>     10      0.00000071      0.00000017      0.0
 <Apr18-2019> <13:56:19>  >>>> TOTEN
 <Apr18-2019> <13:56:19>  >>>> POPAN
 <Apr18-2019> <13:56:19>  >>>> DEBYE
 <Apr18-2019> <13:56:19>  >>>> ENGRAD
 <Apr18-2019> <13:56:19>  current energy                               -0.31173843 Hartree
 <Apr18-2019> <13:56:19>  energy change                      -0.00005194     0.00010000    T
 <Apr18-2019> <13:56:19>  constrained gradient max            0.00047895     0.00010000    F
 <Apr18-2019> <13:56:19>  constrained gradient rms            0.00022659     0.00006667    F
 <Apr18-2019> <13:56:19>  gradient max                        0.00047895
 <Apr18-2019> <13:56:19>  gradient rms                        0.00022659
 <Apr18-2019> <13:56:19>  cart. step max                      0.00115047     0.01000000    T
 <Apr18-2019> <13:56:19>  cart. step rms                      0.00070293     0.00666667    T
  Coordinates in Geometry Cycle 7
    Atom         X           Y           Z   (Angstrom)
    1.Br       -4.925866    3.098873   -0.044371
    2.Cl       -3.740461    0.902189    0.205459
    3.Cl       -6.109054    5.297857   -0.298289
 <Apr18-2019> <13:56:19>  >>>> CORORT
 <Apr18-2019> <13:56:19>  >>>> CLSMAT
 <Apr18-2019> <13:56:19>  >>>> ORTHON
 <Apr18-2019> <13:56:19>  >>>> GENPT
 <Apr18-2019> <13:56:19>  Block Length= 128
 <Apr18-2019> <13:56:19>  >>>> PTBAS
 <Apr18-2019> <13:56:19>  >>>> CYCLE
 <Apr18-2019> <13:56:19>              |Error|         MaxErr       Wt(A-DIIS)
 <Apr18-2019> <13:56:19>      1      0.00382344      0.00107007
 <Apr18-2019> <13:56:20>      2      0.00177513      0.00042824    100.0
 <Apr18-2019> <13:56:20>      3      0.00685957      0.00163928    100.0
 <Apr18-2019> <13:56:20>      4      0.00246050      0.00058230      0.0
 <Apr18-2019> <13:56:20>      5      0.00010310      0.00002674      0.0
 <Apr18-2019> <13:56:20>      6      0.00003479      0.00000857      0.0
 <Apr18-2019> <13:56:20>      7      0.00000576      0.00000131      0.0
 <Apr18-2019> <13:56:20>      8      0.00000096      0.00000029      0.0
 <Apr18-2019> <13:56:20>  SCF converged
 <Apr18-2019> <13:56:20>      9      0.00000020      0.00000004      0.0
 <Apr18-2019> <13:56:20>  >>>> TOTEN
 <Apr18-2019> <13:56:20>  >>>> POPAN
 <Apr18-2019> <13:56:20>  >>>> DEBYE
 <Apr18-2019> <13:56:20>  >>>> ENGRAD
 <Apr18-2019> <13:56:20>  current energy                               -0.31173964 Hartree
 <Apr18-2019> <13:56:20>  energy change                      -0.00000121     0.00010000    T
 <Apr18-2019> <13:56:20>  constrained gradient max            0.00019100     0.00010000    F
 <Apr18-2019> <13:56:20>  constrained gradient rms            0.00010281     0.00006667    F
 <Apr18-2019> <13:56:20>  gradient max                        0.00019100
 <Apr18-2019> <13:56:20>  gradient rms                        0.00010281
 <Apr18-2019> <13:56:20>  cart. step max                      0.00100068     0.01000000    T
 <Apr18-2019> <13:56:20>  cart. step rms                      0.00053865     0.00666667    T
  Coordinates in Geometry Cycle 8
    Atom         X           Y           Z   (Angstrom)
    1.Br       -4.925107    3.099603   -0.045730
    2.Cl       -3.740832    0.901853    0.206108
    3.Cl       -6.109442    5.297463   -0.297580
 <Apr18-2019> <13:56:21>  >>>> CORORT
 <Apr18-2019> <13:56:21>  >>>> CLSMAT
 <Apr18-2019> <13:56:21>  >>>> ORTHON
 <Apr18-2019> <13:56:21>  >>>> GENPT
 <Apr18-2019> <13:56:21>  Block Length= 128
 <Apr18-2019> <13:56:21>  >>>> PTBAS
 <Apr18-2019> <13:56:21>  >>>> CYCLE
 <Apr18-2019> <13:56:21>              |Error|         MaxErr       Wt(A-DIIS)
 <Apr18-2019> <13:56:21>      1      0.00275854      0.00066663
 <Apr18-2019> <13:56:21>      2      0.00099302      0.00023637    100.0
 <Apr18-2019> <13:56:21>      3      0.00019182      0.00004236    100.0
 <Apr18-2019> <13:56:21>      4      0.00022533      0.00006495      0.0
 <Apr18-2019> <13:56:21>      5      0.00004811      0.00001171      0.0
 <Apr18-2019> <13:56:21>      6      0.00000885      0.00000200      0.0
 <Apr18-2019> <13:56:21>      7      0.00000280      0.00000065      0.0
 <Apr18-2019> <13:56:21>  SCF converged
 <Apr18-2019> <13:56:21>      8      0.00000064      0.00000013      0.0
 <Apr18-2019> <13:56:21>  >>>> TOTEN
 <Apr18-2019> <13:56:22>  >>>> POPAN
 <Apr18-2019> <13:56:22>  >>>> DEBYE
 <Apr18-2019> <13:56:22>  >>>> ENGRAD
 <Apr18-2019> <13:56:22>  current energy                               -0.31173987 Hartree
 <Apr18-2019> <13:56:22>  energy change                      -0.00000023     0.00010000    T
 <Apr18-2019> <13:56:22>  constrained gradient max            0.00007491     0.00010000    T
 <Apr18-2019> <13:56:22>  constrained gradient rms            0.00003705     0.00006667    T
 <Apr18-2019> <13:56:22>  gradient max                        0.00007491
 <Apr18-2019> <13:56:22>  gradient rms                        0.00003705
 <Apr18-2019> <13:56:22>  cart. step max                      0.00049198     0.01000000    T
 <Apr18-2019> <13:56:22>  cart. step rms                      0.00028447     0.00666667    T
 <Apr18-2019> <13:56:22>  GEOMETRY CONVERGED
 <Apr18-2019> <13:56:22>  Calculating Energy Terms for Final Geometry
  Coordinates in Geometry Cycle 8
    Atom         X           Y           Z   (Angstrom)
    1.Br       -4.925107    3.099603   -0.045730
    2.Cl       -3.740832    0.901853    0.206108
    3.Cl       -6.109442    5.297463   -0.297580
 <Apr18-2019> <13:56:22>  >>>> CORORT
 <Apr18-2019> <13:56:22>  >>>> CLSMAT
 <Apr18-2019> <13:56:22>  >>>> ORTHON
 <Apr18-2019> <13:56:22>  >>>> GENPT
 <Apr18-2019> <13:56:22>  Block Length= 128
 <Apr18-2019> <13:56:22>  >>>> PTBAS
 <Apr18-2019> <13:56:22>  >>>> CYCLE
 <Apr18-2019> <13:56:22>              |Error|         MaxErr       Wt(A-DIIS)
 <Apr18-2019> <13:56:22>      1      0.00000008      0.00000002
 <Apr18-2019> <13:56:22>      2      0.00000020      0.00000005    100.0
 <Apr18-2019> <13:56:22>  SCF converged
 <Apr18-2019> <13:56:22>      3      0.00000005      0.00000001    100.0
 <Apr18-2019> <13:56:22>  >>>> TOTEN
 <Apr18-2019> <13:56:23>  >>>> POPAN
 <Apr18-2019> <13:56:23>  >>>> DEBYE
 <Apr18-2019> <13:56:23>  >>>> AMETS
 <Apr18-2019> <13:56:23>  >>>> POPUL
 <Apr18-2019> <13:56:23>   Bond Energy          -0.31173987 a.u.
 <Apr18-2019> <13:56:23>   Bond Energy          -8.48287348 eV
 <Apr18-2019> <13:56:23>   Bond Energy        -195.62       kcal/mol
 <Apr18-2019> <13:56:23>  >>>> ENHESS
 <Apr18-2019> <13:56:23>  === NUCLEUS:     1
 <Apr18-2019> <13:56:25>  === NUCLEUS:     2
 <Apr18-2019> <13:56:27>  === NUCLEUS:     3
 <Apr18-2019> <13:56:29>  >>>> CALC_HESS_PMAT
 <Apr18-2019> <13:56:30>  >>>> CALC_HESS_WMAT
 <Apr18-2019> <13:56:30>  NORMAL TERMINATION
 <Apr18-2019> <13:56:30>  END
