

 Parallel Execution: Process Information
 ==============================================================================
 Rank   Node Name                              NodeID   MyNodeRank  NodeMaster
    0   BAZIS-cn017                               0          0          0
    1   BAZIS-cn017                               0          1         -1
    2   BAZIS-cn017                               0          2         -1
    3   BAZIS-cn017                               0          3         -1
    4   BAZIS-cn017                               0          4         -1
    5   BAZIS-cn017                               0          5         -1
    6   BAZIS-cn017                               0          6         -1
    7   BAZIS-cn017                               0          7         -1
    8   BAZIS-cn017                               0          8         -1
    9   BAZIS-cn017                               0          9         -1
   10   BAZIS-cn017                               0         10         -1
   11   BAZIS-cn017                               0         11         -1
 ==============================================================================


May use up to 30771MB of RAM as shared memory on node 0


XC
    GGA BP86
END

SCF
    iterations 250
END

EPRINT
    SFO Eig Ovl
END

ZLMFIT
    Quality normal
END

BECKEGRID
    Quality good
End

SYMMETRY nosym
CHARGE -1

ATOMS
1.Cl       -4.944749    3.137038   -0.050606 f=ClBr
2.Br       -3.773575    0.904877    0.240178 f=ClBr
3.Cl       -6.057056    5.257004   -0.326774 f=Cl
END

Fragments
ClBr /home/tcst25/advanced_comp_chemistry/exercise2/halogen/BrClCl/frag1_ClBr.t21
Cl /home/tcst25/advanced_comp_chemistry/exercise2/halogen/BrClCl/frag2_Cl.t21
End
end input

 *******************************************************************************
 *                                                                             *
 *  -------------------------------------                                      *
 *   Amsterdam Density Functional  (ADF)         2017                          *
 *  -------------------------------------                                      *
 *                                               r58813 2017-04-12             *
 *                                                                             *
 *                                                                             *
 *                              =================                              *
 *                              |               |                              *
 *                              |     A D F     |                              *
 *                              |               |                              *
 *                              =================                              *
 *                                                                             *
 *                                                                             *
 *   Online information and documentation:  https://www.scm.com/support/       *
 *   E-mail:  support@scm.com   info@scm.com                                   *
 *                                                                             *
 *   Scientific publications using ADF results must be properly referenced     *
 *   See the User Manuals (or the web site) for recommended citations          *
 *   The terms and conditions of the End User License Agreement apply to       *
 *   the use of ADF, https://www.scm.com/license-terms/                        *
 *                                                                             *
 **********************  x86_64_linux_intel / intelmpi  ************************
 
 Licensed to: VU/FEW (+ SARA) / ALGEMEEN / Amsterdam / THE NETHERLANDS
 SCM User ID: u7668
  
 ADF 2017  RunTime: May09-2019 17:11:57  Nodes: 1  Procs: 12

 Temporary files are created in /local/datastore0/tcst25/189769/kid_0.OaRaXE


Communication costs MPI_COMM_WORLD:      3.894 usec per message,   0.0178 usec per 8-byte item
Communication costs for intra-node:      3.878 usec per message,   0.0177 usec per 8-byte item

 *** (NO TITLE) ***



 ===========================
 A T T A C H E D   F I L E S
 ===========================
  



 ===============================
 M O D E L   P A R A M E T E R S
 ===============================
  
 DENSITY FUNCTIONAL POTENTIAL (scf)
    LDA:                               VWN                                      
    Gradient Corrections:              Becke88 Perdew86                        == Not Default ==

 SPIN  (restricted / unrestr.)
    Molecule:                          Restricted                               
    Fragments:                         Restricted                               

 OTHER ASPECTS
    Relativistic Corrections:          ---                                      

    Nuclear Charge Density Model:      Point Charge Nuclei                      
    Core Treatment:                    Frozen Orbital(s)                        

    Hyperfine or Zeeman Interaction:   ---                                      


 Fragment File(s)
 ----------------
 ClBr:
         file : /home/tcst25/advanced_comp_chemistry/exercise2/halogen/BrClCl/frag1_ClBr.t21
         jobid: ADF 2017  RunTime: May09-2019 16:32:17  Nodes: 1  Procs: 12
         title: *** (NO TITLE) ***
 Cl:
         file : /home/tcst25/advanced_comp_chemistry/exercise2/halogen/BrClCl/frag2_Cl.t21
         jobid: ADF 2017  RunTime: May09-2019 16:32:16  Nodes: 1  Procs: 12
         title: *** (NO TITLE) ***



                                        ************************************
                                        *  R U N   T Y P E : SINGLE POINT  *
                                        ************************************
  



 ===============
 G E O M E T R Y  ***  Linear Molecule  ***
 ===============
  

 ATOMS
 =====                            X Y Z                    CHARGE
                                (Angstrom)             Nucl     +Core       At.Mass
                       --------------------------    ----------------       -------
    1  Cl             -4.9447    3.1370   -0.0506     17.00     17.00       34.9689
    2  Br             -3.7736    0.9049    0.2402     35.00     35.00       78.9183
    3  Cl             -6.0571    5.2570   -0.3268     17.00     17.00       34.9689


 FRAGMENTS
 =========                                     Atoms in this Fragment     Cart. coord.s (Angstrom)
                                               -------------------------------------------------------
    1  ClBr                                              1  Cl          -4.9447    3.1370   -0.0506
                                                         2  Br          -3.7736    0.9049    0.2402
    2  Cl                                                3  Cl          -6.0571    5.2570   -0.3268


 Interatomic Distance Matrix (Angstrom)
 --------------------------------------

   1)     0.000
   2)     2.537   0.000
   3)     2.410   4.947   0.000

 Min. Distance =    2.4099
 Max. Distance =    4.9474



 =====================================
 S Y M M E T R Y ,   E L E C T R O N S
 =====================================
  
 Symmetry: NOSYM

 Irreducible Representations, including subspecies
 -------------------------------------------------
 A


 Configuration of Valence Electrons
 ==================================
 ( determined in the SCF procedure )

 Total:   70

 Net Charge: -1 (Nuclei minus Electrons)

 Aufbau principle for MO occupations will be applied through SCF cycle no.     125
 Thereafter, the program will assign electrons to MOs that are spatially
 similar to the occupied MOs in a "reference" cycle ("KeepOrbitals").
 The reference cycle is always the PREVIOUS cycle: it will evolve with
 the SCF procedure.
1
 ***************************************************************************************************



                                      ****************************************
                                      *  B U I L D : (Fragments, Functions)  *
                                      ****************************************
  

 The individual fragments are copies of the corresponding 'Master' fragments defined on the fragment files.
 However, they may have been rotated (and translated) with respect to the Master. The local coordinate axes
 of each fragment (which define for instance the spatial orientation in the current molecule of a fragment
 P:x orbital) are not necessarily those of the molecule.
 The local frame (if different from the molecular one) is printed to enable an interpretation of the expan-
 sion of an MO in Fragment Orbitals.



                                             **************************
                                             *  Fragment Type : ClBr  *
                                             **************************
  

 Fragment no.    1   (in the list of all fragments)
 -----------------
 The local coordinate frame is identical to the molecular frame.

 Check Atomic Coordinates:

                  Master (on file)          After Computed Tranformation               As specified on Input
           ----------------------------     ----------------------------     ---------------------------------
     1)    -4.94475   3.13704  -0.05061     -4.94475   3.13704  -0.05061       1  -4.94475   3.13704  -0.05061
     2)    -3.77358   0.90488   0.24018     -3.77358   0.90488   0.24018       2  -3.77358   0.90488   0.24018



                                              ************************
                                              *  Fragment Type : Cl  *
                                              ************************
  

 Fragment no.    2   (in the list of all fragments)
 -----------------
 The local coordinate frame is identical to the molecular frame.

 Check Atomic Coordinates:

                  Master (on file)          After Computed Tranformation               As specified on Input
           ----------------------------     ----------------------------     ---------------------------------
     1)    -6.05706   5.25700  -0.32677     -6.05706   5.25700  -0.32677       3  -6.05706   5.25700  -0.32677



 =======
 S F O s  ***  (Symmetrized Fragment Orbitals)  ***
 =======
  
 SFOs are linear combinations of (valence) Fragment Orbitals (FOs), such that the SFOs transform as the
 irreducible representations of the (molecular) symmetry group. Each SFO is therefore characterized by
 an irrep of the molecule and by a few (or only one) generating FOs.
 The SFOs constitute a symmetry-adapted basis for the Fock matrix. The MO eigenvector coefficients in
 this basis provide a direct interpretation of the MOs in terms of Frontier Orbital Theory.

 The SFOs are combined with auxiliary Core Functions (CFs) to ensure orthogonalization on the (frozen)
 Core Orbitals (COs). The Core-orthogonalized SFOs (CSFOs) constitute the true Fock basis.

 The FOs, and hence also the (C)SFOs are combinations of the elementary basis functions (BAS). The basis
 functions that participate in the description of the SFOs depend on the irrep. The indices of the
 involved functions are printed below for each irrep.
 (The complete list of primitive basis functions is printed in another section)

 Total nr. of (C)SFOs (summation over all irreps) :   124

 NOTE: a (C)SFO that is defined as a combination of more than one FO is usually NOT normalized.



                                       === A ===
 Nr. of SFOs :  124
 Cartesian basis functions that participate in this irrep (total number =   139) :
      1     2     3     4    11    12    13     5     8    14
     17    20     6     9    15    18    21     7    10    16
     19    22    23    24    25    26    27    28    29    30
     31    32    33    34    35    36    37    38    39    40
     41    48    49    74    75    76    42    45    50    53
     77    80    83    43    46    51    54    78    81    84
     44    47    52    55    79    82    85    56    62    68
     86    57    63    69    87    58    64    70    88    59
     65    71    89    60    66    72    90    61    67    73
     91    92    93    94    95    96    97    98    99   100
    101   102   103   104   105   112   113   114   106   109
    115   118   121   107   110   116   119   122   108   111
    117   120   123   124   125   126   127   128   129   130
    131   132   133   134   135   136   137   138   139

    SFO  (index         Fragment          Generating    Expansion in Fragment Orbitals
  indx  incl.CFs)   Occup   Orb.Energy   FragmentType  Coeff.   Orbital     on Fragment
 --------------------------------------------------------------------------------------
     1       1      2.000    -481.052 au  ClBr          1.00      1 A               1
                        (  -13090.092 eV)
     2       2      2.000    -100.765 au  ClBr          1.00      2 A               1
                        (   -2741.968 eV)
     3       3      2.000     -61.807 au  ClBr          1.00      3 A               1
                        (   -1681.855 eV)
     4       4      2.000     -55.742 au  ClBr          1.00      4 A               1
                        (   -1516.812 eV)
     5       5      2.000     -55.734 au  ClBr          1.00      5 A               1
                        (   -1516.612 eV)
     6       6      2.000     -55.734 au  ClBr          1.00      6 A               1
                        (   -1516.612 eV)
     7       7      2.000      -9.216 au  ClBr          1.00      7 A               1
                        (    -250.775 eV)
     8       8      2.000      -8.427 au  ClBr          1.00      8 A               1
                        (    -229.304 eV)
     9       9      2.000      -7.049 au  ClBr          1.00      9 A               1
                        (    -191.809 eV)
    10      10      2.000      -7.033 au  ClBr          1.00     10 A               1
                        (    -191.365 eV)
    11      11      2.000      -7.033 au  ClBr          1.00     11 A               1
                        (    -191.364 eV)
    12      12      2.000      -6.340 au  ClBr          1.00     12 A               1
                        (    -172.531 eV)
    13      13      2.000      -6.319 au  ClBr          1.00     13 A               1
                        (    -171.959 eV)
    14      14      2.000      -6.319 au  ClBr          1.00     14 A               1
                        (    -171.959 eV)
    15      15      2.000      -2.544 au  ClBr          1.00     15 A               1
                        (     -69.230 eV)
    16      16      2.000      -2.539 au  ClBr          1.00     16 A               1
                        (     -69.092 eV)
    17      17      2.000      -2.539 au  ClBr          1.00     17 A               1
                        (     -69.092 eV)
    18      18      2.000      -2.524 au  ClBr          1.00     18 A               1
                        (     -68.676 eV)
    19      19      2.000      -2.524 au  ClBr          1.00     19 A               1
                        (     -68.676 eV)
    20      20      2.000      -0.768 au  ClBr          1.00     20 A               1
                        (     -20.902 eV)
    21      21      2.000      -0.709 au  ClBr          1.00     21 A               1
                        (     -19.304 eV)
    22      22      2.000      -0.384 au  ClBr          1.00     22 A               1
                        (     -10.457 eV)
    23      23      2.000      -0.317 au  ClBr          1.00     23 A               1
                        (      -8.622 eV)
    24      24      2.000      -0.317 au  ClBr          1.00     24 A               1
                        (      -8.622 eV)
    25      25      2.000      -0.275 au  ClBr          1.00     25 A               1
                        (      -7.493 eV)
    26      26      2.000      -0.275 au  ClBr          1.00     26 A               1
                        (      -7.493 eV)
    27      27       --        -0.237 au  ClBr          1.00     27 A               1
                        (      -6.438 eV)
    28      28       --         0.109 au  ClBr          1.00     28 A               1
                        (       2.953 eV)
    29      29       --         0.136 au  ClBr          1.00     29 A               1
                        (       3.710 eV)
    30      30       --         0.136 au  ClBr          1.00     30 A               1
                        (       3.710 eV)
    31      31       --         0.180 au  ClBr          1.00     31 A               1
                        (       4.893 eV)
    32      32       --         0.196 au  ClBr          1.00     32 A               1
                        (       5.340 eV)
    33      33       --         0.207 au  ClBr          1.00     33 A               1
                        (       5.630 eV)
    34      34       --         0.207 au  ClBr          1.00     34 A               1
                        (       5.630 eV)
    35      35       --         0.257 au  ClBr          1.00     35 A               1
                        (       6.997 eV)
    36      36       --         0.257 au  ClBr          1.00     36 A               1
                        (       6.997 eV)
    37      37       --         0.267 au  ClBr          1.00     37 A               1
                        (       7.272 eV)
    38      38       --         0.267 au  ClBr          1.00     38 A               1
                        (       7.272 eV)
    39      39       --         0.327 au  ClBr          1.00     39 A               1
                        (       8.890 eV)
    40      40       --         0.366 au  ClBr          1.00     40 A               1
                        (       9.960 eV)
    41      41       --         0.403 au  ClBr          1.00     41 A               1
                        (      10.954 eV)
    42      42       --         0.403 au  ClBr          1.00     42 A               1
                        (      10.954 eV)
    43      43       --         0.456 au  ClBr          1.00     43 A               1
                        (      12.406 eV)
    44      44       --         0.456 au  ClBr          1.00     44 A               1
                        (      12.406 eV)
    45      45       --         0.709 au  ClBr          1.00     45 A               1
                        (      19.285 eV)
    46      46       --         0.822 au  ClBr          1.00     46 A               1
                        (      22.379 eV)
    47      47       --         0.822 au  ClBr          1.00     47 A               1
                        (      22.379 eV)
    48      48       --         0.849 au  ClBr          1.00     48 A               1
                        (      23.116 eV)
    49      49       --         0.850 au  ClBr          1.00     49 A               1
                        (      23.116 eV)
    50      50       --         0.883 au  ClBr          1.00     50 A               1
                        (      24.029 eV)
    51      51       --         0.883 au  ClBr          1.00     51 A               1
                        (      24.029 eV)
    52      52       --         0.936 au  ClBr          1.00     52 A               1
                        (      25.482 eV)
    53      53       --         1.183 au  ClBr          1.00     53 A               1
                        (      32.202 eV)
    54      54       --         1.183 au  ClBr          1.00     54 A               1
                        (      32.202 eV)
    55      55       --         1.209 au  ClBr          1.00     55 A               1
                        (      32.899 eV)
    56      56       --         1.209 au  ClBr          1.00     56 A               1
                        (      32.899 eV)
    57      57       --         1.250 au  ClBr          1.00     57 A               1
                        (      34.020 eV)
    58      58       --         1.262 au  ClBr          1.00     58 A               1
                        (      34.335 eV)
    59      59       --         1.262 au  ClBr          1.00     59 A               1
                        (      34.335 eV)
    60      60       --         1.384 au  ClBr          1.00     60 A               1
                        (      37.660 eV)
    61      61       --         1.398 au  ClBr          1.00     61 A               1
                        (      38.037 eV)
    62      62       --         1.398 au  ClBr          1.00     62 A               1
                        (      38.038 eV)
    63      63       --         2.098 au  ClBr          1.00     63 A               1
                        (      57.095 eV)
    64      64       --         2.159 au  ClBr          1.00     64 A               1
                        (      58.763 eV)
    65      65       --         2.160 au  ClBr          1.00     65 A               1
                        (      58.763 eV)
    66      66       --         2.265 au  ClBr          1.00     66 A               1
                        (      61.633 eV)
    67      67       --         2.681 au  ClBr          1.00     67 A               1
                        (      72.951 eV)
    68      68       --         2.681 au  ClBr          1.00     68 A               1
                        (      72.952 eV)
    69      69       --         2.706 au  ClBr          1.00     69 A               1
                        (      73.644 eV)
    70      70       --         2.751 au  ClBr          1.00     70 A               1
                        (      74.871 eV)
    71      71       --         2.751 au  ClBr          1.00     71 A               1
                        (      74.871 eV)
    72      72       --         3.140 au  ClBr          1.00     72 A               1
                        (      85.446 eV)
    73      73       --         8.852 au  ClBr          1.00     73 A               1
                        (     240.871 eV)
    74      74       --         8.852 au  ClBr          1.00     74 A               1
                        (     240.872 eV)
    75      75       --         8.969 au  ClBr          1.00     75 A               1
                        (     244.071 eV)
    76      76       --        13.031 au  ClBr          1.00     76 A               1
                        (     354.588 eV)
    77      77       --        14.699 au  ClBr          1.00     77 A               1
                        (     399.986 eV)
    78      78       --        18.923 au  ClBr          1.00     78 A               1
                        (     514.930 eV)
    79      79       --        18.923 au  ClBr          1.00     79 A               1
                        (     514.931 eV)
    80      80       --        19.239 au  ClBr          1.00     80 A               1
                        (     523.523 eV)
    81      81       --        20.599 au  ClBr          1.00     81 A               1
                        (     560.536 eV)
    82      82       --        20.599 au  ClBr          1.00     82 A               1
                        (     560.536 eV)
    83      83       --        20.695 au  ClBr          1.00     83 A               1
                        (     563.148 eV)
    84      84       --        20.695 au  ClBr          1.00     84 A               1
                        (     563.148 eV)
    85      85       --        21.101 au  ClBr          1.00     85 A               1
                        (     574.185 eV)
    86      86       --       100.918 au  ClBr          1.00     86 A               1
                        (    2746.108 eV)
    87      87       --       100.918 au  ClBr          1.00     87 A               1
                        (    2746.108 eV)
    88      88       --       101.220 au  ClBr          1.00     88 A               1
                        (    2754.326 eV)
    89      89       --       216.042 au  ClBr          1.00     89 A               1
                        (    5878.804 eV)
    90      90       --       748.089 au  ClBr          1.00     90 A               1
                        (   20356.541 eV)
    91      91      2.000    -100.372 au  Cl            1.00      1 A               2
                        (   -2731.270 eV)
    92      92      2.000      -8.827 au  Cl            1.00      2 A               2
                        (    -240.193 eV)
    93      93      2.000      -6.649 au  Cl            1.00      3 A               2
                        (    -180.916 eV)
    94      94      2.000      -6.649 au  Cl            1.00      4 A               2
                        (    -180.916 eV)
    95      95      2.000      -6.649 au  Cl            1.00      5 A               2
                        (    -180.916 eV)
    96      96      2.000      -0.385 au  Cl            1.00      6 A               2
                        (     -10.473 eV)
    97      97      2.000       0.033 au  Cl            1.00      7 A               2
                        (       0.909 eV)
    98      98      2.000       0.033 au  Cl            1.00      8 A               2
                        (       0.909 eV)
    99      99      2.000       0.033 au  Cl            1.00      9 A               2
                        (       0.909 eV)
   100     100       --         0.475 au  Cl            1.00     10 A               2
                        (      12.914 eV)
   101     101       --         0.489 au  Cl            1.00     11 A               2
                        (      13.299 eV)
   102     102       --         0.489 au  Cl            1.00     12 A               2
                        (      13.299 eV)
   103     103       --         0.489 au  Cl            1.00     13 A               2
                        (      13.299 eV)
   104     104       --         0.741 au  Cl            1.00     14 A               2
                        (      20.162 eV)
   105     105       --         0.741 au  Cl            1.00     15 A               2
                        (      20.162 eV)
   106     106       --         0.741 au  Cl            1.00     16 A               2
                        (      20.162 eV)
   107     107       --         0.741 au  Cl            1.00     17 A               2
                        (      20.162 eV)
   108     108       --         0.741 au  Cl            1.00     18 A               2
                        (      20.162 eV)
   109     109       --         1.518 au  Cl            1.00     19 A               2
                        (      41.294 eV)
   110     110       --         1.518 au  Cl            1.00     20 A               2
                        (      41.294 eV)
   111     111       --         1.518 au  Cl            1.00     21 A               2
                        (      41.294 eV)
   112     112       --         1.518 au  Cl            1.00     22 A               2
                        (      41.294 eV)
   113     113       --         1.518 au  Cl            1.00     23 A               2
                        (      41.294 eV)
   114     114       --         1.518 au  Cl            1.00     24 A               2
                        (      41.294 eV)
   115     115       --         1.518 au  Cl            1.00     25 A               2
                        (      41.294 eV)
   116     116       --         2.351 au  Cl            1.00     26 A               2
                        (      63.962 eV)
   117     117       --         2.448 au  Cl            1.00     27 A               2
                        (      66.612 eV)
   118     118       --         2.448 au  Cl            1.00     28 A               2
                        (      66.612 eV)
   119     119       --         2.448 au  Cl            1.00     29 A               2
                        (      66.612 eV)
   120     120       --        13.113 au  Cl            1.00     30 A               2
                        (     356.814 eV)
   121     121       --        19.210 au  Cl            1.00     31 A               2
                        (     522.735 eV)
   122     122       --        19.210 au  Cl            1.00     32 A               2
                        (     522.735 eV)
   123     123       --        19.210 au  Cl            1.00     33 A               2
                        (     522.735 eV)
   124     124       --       215.062 au  Cl            1.00     34 A               2
                        (    5852.138 eV)



 ================================
 (Slater-type)  F U N C T I O N S  ***  (Basis and Fit)  ***
 ================================
  

 Atom Type    1  (Cl)
 ==============

 Valence Basis Sets:  14
 -----------------------
   1 S   20.300000
   1 S   15.250000
   2 S    6.250000
   2 S    4.450000
   2 P    8.850000
   2 P    5.050000
   3 S    3.450000
   3 S    2.300000
   3 S    1.600000
   3 P    3.350000
   3 P    2.050000
   3 P    1.200000
   3 D    2.000000
   4 F    2.000000

 Atom Type    2  (Br)
 ==============

 Valence Basis Sets:  20
 -----------------------
   1 S   41.300000
   1 S   32.800000
   2 S   13.900000
   2 P   19.450000
   2 P   13.100000
   3 S    7.200000
   3 S    4.950000
   3 P    7.900000
   3 P    5.050000
   3 D   10.900000
   3 D    6.050000
   3 D    3.500000
   4 S    4.500000
   4 S    2.800000
   4 S    1.800000
   4 P    3.250000
   4 P    1.950000
   4 P    1.200000
   4 D    1.800000
   4 F    1.800000

 Atom Type    3  (Cl)
 ==============

 Valence Basis Sets:  14
 -----------------------
   1 S   20.300000
   1 S   15.250000
   2 S    6.250000
   2 S    4.450000
   2 P    8.850000
   2 P    5.050000
   3 S    3.450000
   3 S    2.300000
   3 S    1.600000
   3 P    3.350000
   3 P    2.050000
   3 P    1.200000
   3 D    2.000000
   4 F    2.000000


 BAS: List of all Elementary Cartesian Basis Functions
 =====================================================

 The numbering in the list below (to the right of the function characteristics) is referred
 to in print-outs of MO eigenvectors and Mulliken populations in the BAS representation
 (as contrasted to the SFO representation).

 Notes:
 1. The functions are characterized by a polynomial prefactor (powers of x,y,z and r) and
    an exponential decay factor alpha.
 2. Since the basis sets are specific for an atom TYPE, the individual functions occur on
    all atoms of that type.
 3. The word 'Core' in the left margin signals that it is a Core Function (CF) : not a
    degree of freedom in the valence set, but only used to ensure orthogonalization of
    the other valence basis functions on the frozen Core Orbitals.


 (power of) X  Y  Z  R     Alpha  on Atom
            ==========     =====     ==========

 Cl                                   1
                                  ---------------------------------------------------------------------------
            0  0  0  0    20.300      1
            0  0  0  0    15.250      2
            0  0  0  1     6.250      3
            0  0  0  1     4.450      4
            1  0  0  0     8.850      5
            0  1  0  0     8.850      6
            0  0  1  0     8.850      7
            1  0  0  0     5.050      8
            0  1  0  0     5.050      9
            0  0  1  0     5.050     10
            0  0  0  2     3.450     11
            0  0  0  2     2.300     12
            0  0  0  2     1.600     13
            1  0  0  1     3.350     14
            0  1  0  1     3.350     15
            0  0  1  1     3.350     16
            1  0  0  1     2.050     17
            0  1  0  1     2.050     18
            0  0  1  1     2.050     19
            1  0  0  1     1.200     20
            0  1  0  1     1.200     21
            0  0  1  1     1.200     22
            2  0  0  0     2.000     23
            1  1  0  0     2.000     24
            1  0  1  0     2.000     25
            0  2  0  0     2.000     26
            0  1  1  0     2.000     27
            0  0  2  0     2.000     28
            3  0  0  0     2.000     29
            2  1  0  0     2.000     30
            2  0  1  0     2.000     31
            1  2  0  0     2.000     32
            1  1  1  0     2.000     33
            1  0  2  0     2.000     34
            0  3  0  0     2.000     35
            0  2  1  0     2.000     36
            0  1  2  0     2.000     37
            0  0  3  0     2.000     38

 Br                                   2
                                  ---------------------------------------------------------------------------
            0  0  0  0    41.300     39
            0  0  0  0    32.800     40
            0  0  0  1    13.900     41
            1  0  0  0    19.450     42
            0  1  0  0    19.450     43
            0  0  1  0    19.450     44
            1  0  0  0    13.100     45
            0  1  0  0    13.100     46
            0  0  1  0    13.100     47
            0  0  0  2     7.200     48
            0  0  0  2     4.950     49
            1  0  0  1     7.900     50
            0  1  0  1     7.900     51
            0  0  1  1     7.900     52
            1  0  0  1     5.050     53
            0  1  0  1     5.050     54
            0  0  1  1     5.050     55
            2  0  0  0    10.900     56
            1  1  0  0    10.900     57
            1  0  1  0    10.900     58
            0  2  0  0    10.900     59
            0  1  1  0    10.900     60
            0  0  2  0    10.900     61
            2  0  0  0     6.050     62
            1  1  0  0     6.050     63
            1  0  1  0     6.050     64
            0  2  0  0     6.050     65
            0  1  1  0     6.050     66
            0  0  2  0     6.050     67
            2  0  0  0     3.500     68
            1  1  0  0     3.500     69
            1  0  1  0     3.500     70
            0  2  0  0     3.500     71
            0  1  1  0     3.500     72
            0  0  2  0     3.500     73
            0  0  0  3     4.500     74
            0  0  0  3     2.800     75
            0  0  0  3     1.800     76
            1  0  0  2     3.250     77
            0  1  0  2     3.250     78
            0  0  1  2     3.250     79
            1  0  0  2     1.950     80
            0  1  0  2     1.950     81
            0  0  1  2     1.950     82
            1  0  0  2     1.200     83
            0  1  0  2     1.200     84
            0  0  1  2     1.200     85
            2  0  0  1     1.800     86
            1  1  0  1     1.800     87
            1  0  1  1     1.800     88
            0  2  0  1     1.800     89
            0  1  1  1     1.800     90
            0  0  2  1     1.800     91
            3  0  0  0     1.800     92
            2  1  0  0     1.800     93
            2  0  1  0     1.800     94
            1  2  0  0     1.800     95
            1  1  1  0     1.800     96
            1  0  2  0     1.800     97
            0  3  0  0     1.800     98
            0  2  1  0     1.800     99
            0  1  2  0     1.800    100
            0  0  3  0     1.800    101

 Cl                                   3
                                  ---------------------------------------------------------------------------
            0  0  0  0    20.300    102
            0  0  0  0    15.250    103
            0  0  0  1     6.250    104
            0  0  0  1     4.450    105
            1  0  0  0     8.850    106
            0  1  0  0     8.850    107
            0  0  1  0     8.850    108
            1  0  0  0     5.050    109
            0  1  0  0     5.050    110
            0  0  1  0     5.050    111
            0  0  0  2     3.450    112
            0  0  0  2     2.300    113
            0  0  0  2     1.600    114
            1  0  0  1     3.350    115
            0  1  0  1     3.350    116
            0  0  1  1     3.350    117
            1  0  0  1     2.050    118
            0  1  0  1     2.050    119
            0  0  1  1     2.050    120
            1  0  0  1     1.200    121
            0  1  0  1     1.200    122
            0  0  1  1     1.200    123
            2  0  0  0     2.000    124
            1  1  0  0     2.000    125
            1  0  1  0     2.000    126
            0  2  0  0     2.000    127
            0  1  1  0     2.000    128
            0  0  2  0     2.000    129
            3  0  0  0     2.000    130
            2  1  0  0     2.000    131
            2  0  1  0     2.000    132
            1  2  0  0     2.000    133
            1  1  1  0     2.000    134
            1  0  2  0     2.000    135
            0  3  0  0     2.000    136
            0  2  1  0     2.000    137
            0  1  2  0     2.000    138
            0  0  3  0     2.000    139

 Total number of charge fitting functions (nprimf)       382
 Total number of Cartesian basis functions (naos)        139
 Total number of Cartesian core functions  (ncos)          0

1
 ***************************************************************************************************



                                              ***********************
                                              *  T E C H N I C A L  *
                                              ***********************
  



 =============================================================
 P A R A L L E L I Z A T I O N  and  V E C T O R I Z A T I O N
 =============================================================
  
 Nr of parallel processes:                               12
 Maximum vector length in NumInt loops:                 128

 IO buffersize (Mb):                                     64.000000



 =====================
 S C F   U P D A T E S
 =====================
  
 Max. nr. of cycles:                               250
 Convergence criterion:                              0.0000010000
   secondary criterion:                              0.0010000000

 Mix parameter (when DIIS does not apply):           0.2000000000
 Mixed ADIIS+DIIS will be used
    Max number of expansion vectors:                10
    Pure ADIIS when Max([F,P]) is above              0.1000000000
    Pure DIIS when Max([F,P]) is below               0.0010000000
 Automatic ElectronSmearing (in case of problematic SCF convergence) disabled



 =================
 P R E C I S I O N  ***  (General: NumInt, NeglectFunctionTails, ...)  ***
 =================
  

 NumInt:           Target precision:                 6.0000000000
 -------           Initial precision:                6.0000000000
                   Min. precision (optimization):    6.0000000000

 Neglect Functions:          Basis functions:        0.1000000000E-07
 ------------------          Fit functions:          0.1000000000E-07



 ===========================
 L I N E A R   S C A L I N G
 ===========================
  

 Cut-off radii density fit:                        0.1000000000E-09
 Overlap cut-off criterion AO matrix elements:     0.1000000000E-07
 Cut-offs for Coulomb potential and fitted density:0.1000000000E-09
 Cut-off criterion for Coulomb multipole terms:    0.1000000000E-09
 Progressive Convergence parameter:                 0.000000000    
1
 ***************************************************************************************************



                                            ***************************
                                            *  C O M P U T A T I O N  *
                                            ***************************
  

 Number of elements of the density matrix on this node (used, total):      2016      9730



 ===========================================
 Numerical Integration : Fuzzy Cells (Becke)
 ===========================================
  
 Becke grid quality: GOOD           
  
 Lebedev angular grid order:             min:  11 max:  31
 Nr. of radial points:                   min:  80 max:  90

 Total nr. of points:      53900
 Nr. of blocks:              422
 Block length:               128
 Nr. of dummy points:        116


 Test of Precision of the Numerical Integration Grid
 ===================================================

 Integral of the Total Core Density:                   0.00000000000000



 ========================
 Density Fitting (zlmFit)
 ========================
  
 ZlmFit Fit Quality: NORMAL         
  
 Max L-expansion:                        min:   7 max:   7
 Nr. of radial interpolation points:     min:  60 max:  72



 =====
 S C F  ***  ScaSCF  ***
 =====
  
 Initial density matrix is calculated as sum of fragments

 CYCLE    1
 SCF Error: norm([F,P])=      1.156597646017, max([F,P])=      0.536768212004
 orbitals (Q,E):
 ---------------
 A :26...45          ( 2.00    -0.5556)  ( 2.00    -0.4154)  ( 2.00    -0.2490)  ( 2.00    -0.2040)
                     ( 2.00    -0.2040)  ( 2.00    -0.1104)  ( 2.00    -0.1104)  ( 2.00    -0.1014)
                     ( 2.00     0.0128)  ( 2.00     0.0128)  ( 0.00     0.0599)  ( 0.00     0.2014)
                     ( 0.00     0.2397)  ( 0.00     0.2397)  ( 0.00     0.2981)  ( 0.00     0.3200)
                     ( 0.00     0.3200)  ( 0.00     0.3492)  ( 0.00     0.3492)  ( 0.00     0.4082)

 CYCLE    2
  SDIIS (wt  0.000):  0.4204  0.5796
 A-DIIS (wt  1.000):  0.8935  0.1065
  DIIS coefficients:  0.8935  0.1065
 SCF Error: norm([F,P])=      0.975629383203, max([F,P])=      0.318113550854
 orbitals (Q,E):
 ---------------
 A :26...36          ( 2.00    -0.5428)  ( 2.00    -0.4647)  ( 2.00    -0.2209)  ( 2.00    -0.1652)
                     ( 2.00    -0.1652)  ( 2.00    -0.1025)  ( 2.00    -0.1025)  ( 2.00    -0.1007)
                     ( 2.00    -0.0321)  ( 2.00    -0.0321)  ( 0.00     0.0310)

 CYCLE    3
  SDIIS (wt  0.000):  0.1067 -0.9255  1.8188
 A-DIIS (wt  1.000):  0.8301  0.0000  0.1699
  DIIS coefficients:  0.8301  0.0000  0.1699
 SCF Error: norm([F,P])=      0.594077646191, max([F,P])=      0.220487755187
 orbitals (Q,E):
 ---------------
 A :26...36          ( 2.00    -0.5452)  ( 2.00    -0.4708)  ( 2.00    -0.2193)  ( 2.00    -0.1583)
                     ( 2.00    -0.1583)  ( 2.00    -0.1075)  ( 2.00    -0.1075)  ( 2.00    -0.1016)
                     ( 2.00    -0.0381)  ( 2.00    -0.0381)  ( 0.00     0.0252)

 CYCLE    4
  SDIIS (wt  0.000): -0.9288 -1.0712  3.0000
 A-DIIS (wt  1.000):  0.0000  0.0000  1.0000
  DIIS coefficients:  0.0000  0.0000  1.0000
 SCF Error: norm([F,P])=      0.558220349942, max([F,P])=      0.218430325769
 orbitals (Q,E):
 ---------------
 A :26...36          ( 2.00    -0.5603)  ( 2.00    -0.3477)  ( 2.00    -0.3096)  ( 2.00    -0.3096)
                     ( 2.00    -0.3038)  ( 2.00    -0.1064)  ( 2.00    -0.1064)  ( 2.00    -0.0929)
                     ( 2.00     0.0753)  ( 2.00     0.0753)  ( 0.00     0.1160)

 CYCLE    5
  SDIIS (wt  0.000): -0.5858 -1.3167  2.7868  0.1157
 A-DIIS (wt  1.000):  0.0000  0.0000  0.7750  0.2250
  DIIS coefficients:  0.0000  0.0000  0.7750  0.2250
 SCF Error: norm([F,P])=      1.524291742688, max([F,P])=      0.468622186227
 orbitals (Q,E):
 ---------------
 A :26...36          ( 2.00    -0.5197)  ( 2.00    -0.4575)  ( 2.00    -0.2141)  ( 2.00    -0.1633)
                     ( 2.00    -0.1633)  ( 2.00    -0.0941)  ( 2.00    -0.0843)  ( 2.00    -0.0843)
                     ( 2.00    -0.0409)  ( 2.00    -0.0409)  ( 0.00     0.0357)

 CYCLE    6
  SDIIS (wt  0.000): -0.1078 -2.0000  2.6480 -0.0239  0.4837
 A-DIIS (wt  1.000):  0.0000  0.0000  0.4351  0.0000  0.5649
  DIIS coefficients:  0.0000  0.0000  0.4351  0.0000  0.5649
 SCF Error: norm([F,P])=      0.498560409701, max([F,P])=      0.132389013291
 orbitals (Q,E):
 ---------------
 A :26...36          ( 2.00    -0.5246)  ( 2.00    -0.4888)  ( 2.00    -0.2240)  ( 2.00    -0.1591)
                     ( 2.00    -0.1591)  ( 2.00    -0.0909)  ( 2.00    -0.0903)  ( 2.00    -0.0903)
                     ( 2.00    -0.0710)  ( 2.00    -0.0710)  ( 0.00     0.0023)

 CYCLE    7
  SDIIS (wt  0.000): -0.2082  0.2409  0.2299 -0.0597  0.3206  0.4766
 A-DIIS (wt  1.000):  0.0000  0.0000  0.1230  0.0000  0.1609  0.7160
  DIIS coefficients:  0.0000  0.0000  0.1230  0.0000  0.1609  0.7160
 SCF Error: norm([F,P])=      0.266640593993, max([F,P])=      0.107230890187
 orbitals (Q,E):
 ---------------
 A :26...36          ( 2.00    -0.5365)  ( 2.00    -0.4867)  ( 2.00    -0.1949)  ( 2.00    -0.1225)
                     ( 2.00    -0.1225)  ( 2.00    -0.1029)  ( 2.00    -0.1029)  ( 2.00    -0.1026)
                     ( 2.00    -0.0566)  ( 2.00    -0.0566)  ( 0.00     0.0262)

 CYCLE    8
  SDIIS (wt  0.000): -0.0671 -0.1499  0.3180 -0.0126  0.1239  0.5121  0.2756
 A-DIIS (wt  1.000):  0.0000  0.0000  0.0000  0.0000  0.0000  0.6409  0.3591
  DIIS coefficients:  0.0000  0.0000  0.0000  0.0000  0.0000  0.6409  0.3591
 SCF Error: norm([F,P])=      0.385833738508, max([F,P])=      0.153026383012
 orbitals (Q,E):
 ---------------
 A :26...36          ( 2.00    -0.5321)  ( 2.00    -0.4940)  ( 2.00    -0.2089)  ( 2.00    -0.1344)
                     ( 2.00    -0.1344)  ( 2.00    -0.0987)  ( 2.00    -0.0987)  ( 2.00    -0.0986)
                     ( 2.00    -0.0716)  ( 2.00    -0.0716)  ( 0.00     0.0108)

 CYCLE    9
  SDIIS (wt  0.777): -0.0030 -0.2692  0.3271 -0.0060  0.0134  0.2820  0.1083  0.5474
 A-DIIS (wt  0.223):  0.0000  0.0000  0.0000  0.0000  0.0000  0.1057  0.0000  0.8943
  DIIS coefficients: -0.0023 -0.2092  0.2541 -0.0046  0.0104  0.2427  0.0841  0.6248
 SCF Error: norm([F,P])=      0.088085420975, max([F,P])=      0.023083103391
 orbitals (Q,E):
 ---------------
 A :26...36          ( 2.00    -0.5271)  ( 2.00    -0.4952)  ( 2.00    -0.2124)  ( 2.00    -0.1399)
                     ( 2.00    -0.1399)  ( 2.00    -0.0956)  ( 2.00    -0.0947)  ( 2.00    -0.0947)
                     ( 2.00    -0.0727)  ( 2.00    -0.0727)  ( 0.00     0.0082)

 CYCLE   10
  SDIIS (wt  0.865): -0.0026  0.0399 -0.0426 -0.0009  0.0031  0.0491 -0.0017  0.3442  0.6114
 A-DIIS (wt  0.135):  0.0000  0.0000  0.0000  0.0000  0.0000  0.0000  0.0000  0.2712  0.7288
  DIIS coefficients: -0.0022  0.0345 -0.0368 -0.0008  0.0027  0.0425 -0.0015  0.3343  0.6273
 SCF Error: norm([F,P])=      0.041145831302, max([F,P])=      0.014388785668
 orbitals (Q,E):
 ---------------
 A :26...36          ( 2.00    -0.5292)  ( 2.00    -0.4944)  ( 2.00    -0.2115)  ( 2.00    -0.1383)
                     ( 2.00    -0.1383)  ( 2.00    -0.0965)  ( 2.00    -0.0960)  ( 2.00    -0.0960)
                     ( 2.00    -0.0725)  ( 2.00    -0.0725)  ( 0.00     0.0088)

 CYCLE   11
  SDIIS (wt  0.983): -0.0006  0.0007  0.0006 -0.0000 -0.0017 -0.0041  0.0022  0.0411  0.1936  0.7681
 A-DIIS (wt  0.017):  0.0000  0.0000  0.0000  0.0000  0.0000  0.0000  0.0000  0.0000  0.0521  0.9479
  DIIS coefficients: -0.0006  0.0007  0.0006 -0.0000 -0.0016 -0.0041  0.0022  0.0404  0.1913  0.7711
 SCF Error: norm([F,P])=      0.007524094330, max([F,P])=      0.002634890218
 orbitals (Q,E):
 ---------------
 A :26...36          ( 2.00    -0.5289)  ( 2.00    -0.4946)  ( 2.00    -0.2115)  ( 2.00    -0.1383)
                     ( 2.00    -0.1383)  ( 2.00    -0.0964)  ( 2.00    -0.0959)  ( 2.00    -0.0959)
                     ( 2.00    -0.0726)  ( 2.00    -0.0726)  ( 0.00     0.0088)

 CYCLE   12
  SDIIS (wt  1.000): -0.0008  0.0010  0.0000 -0.0009 -0.0021  0.0008  0.0185  0.0830  0.3447  0.5558
  DIIS coefficients: -0.0008  0.0010  0.0000 -0.0009 -0.0021  0.0008  0.0185  0.0830  0.3447  0.5558
 SCF Error: norm([F,P])=      0.000357937484, max([F,P])=      0.000092845391
 orbitals (Q,E):
 ---------------
 A :26...36          ( 2.00    -0.5289)  ( 2.00    -0.4946)  ( 2.00    -0.2115)  ( 2.00    -0.1383)
                     ( 2.00    -0.1383)  ( 2.00    -0.0965)  ( 2.00    -0.0959)  ( 2.00    -0.0959)
                     ( 2.00    -0.0726)  ( 2.00    -0.0726)  ( 0.00     0.0088)

 CYCLE   13
  SDIIS (wt  1.000):  0.0001  0.0000 -0.0002 -0.0004  0.0000  0.0051  0.0190  0.0700  0.2033  0.7031
  DIIS coefficients:  0.0001  0.0000 -0.0002 -0.0004  0.0000  0.0051  0.0190  0.0700  0.2033  0.7031
 SCF Error: norm([F,P])=      0.000076982327, max([F,P])=      0.000023375805
 orbitals (Q,E):
 ---------------
 A :26...36          ( 2.00    -0.5289)  ( 2.00    -0.4946)  ( 2.00    -0.2115)  ( 2.00    -0.1383)
                     ( 2.00    -0.1383)  ( 2.00    -0.0965)  ( 2.00    -0.0959)  ( 2.00    -0.0959)
                     ( 2.00    -0.0726)  ( 2.00    -0.0726)  ( 0.00     0.0088)

 CYCLE   14
  SDIIS (wt  1.000):  0.0000 -0.0001 -0.0001 -0.0000  0.0010  0.0032  0.0074  0.0576  0.3283  0.6026
  DIIS coefficients:  0.0000 -0.0001 -0.0001 -0.0000  0.0010  0.0032  0.0074  0.0576  0.3283  0.6026
 SCF Error: norm([F,P])=      0.000033528766, max([F,P])=      0.000012063482
 orbitals (Q,E):
 ---------------
 A :26...36          ( 2.00    -0.5289)  ( 2.00    -0.4946)  ( 2.00    -0.2115)  ( 2.00    -0.1383)
                     ( 2.00    -0.1383)  ( 2.00    -0.0965)  ( 2.00    -0.0959)  ( 2.00    -0.0959)
                     ( 2.00    -0.0726)  ( 2.00    -0.0726)  ( 0.00     0.0088)

 CYCLE   15
  SDIIS (wt  1.000): -0.0000  0.0000 -0.0000  0.0003  0.0011  0.0024  0.0159  0.0875  0.2186  0.6742
  DIIS coefficients: -0.0000  0.0000 -0.0000  0.0003  0.0011  0.0024  0.0159  0.0875  0.2186  0.6742
 SCF Error: norm([F,P])=      0.000008303552, max([F,P])=      0.000003424867
 orbitals (Q,E):
 ---------------
 A :26...36          ( 2.00    -0.5289)  ( 2.00    -0.4946)  ( 2.00    -0.2115)  ( 2.00    -0.1383)
                     ( 2.00    -0.1383)  ( 2.00    -0.0965)  ( 2.00    -0.0959)  ( 2.00    -0.0959)
                     ( 2.00    -0.0726)  ( 2.00    -0.0726)  ( 0.00     0.0088)

 CYCLE   16
  SDIIS (wt  1.000): -0.0000  0.0000  0.0000  0.0000  0.0002  0.0010  0.0064  0.0281  0.0707  0.8935
  DIIS coefficients: -0.0000  0.0000  0.0000  0.0000  0.0002  0.0010  0.0064  0.0281  0.0707  0.8935
 SCF Error: norm([F,P])=      0.000001099407, max([F,P])=      0.000000441869
 orbitals (Q,E):
 ---------------
 A :26...36          ( 2.00    -0.5289)  ( 2.00    -0.4946)  ( 2.00    -0.2115)  ( 2.00    -0.1383)
                     ( 2.00    -0.1383)  ( 2.00    -0.0965)  ( 2.00    -0.0959)  ( 2.00    -0.0959)
                     ( 2.00    -0.0726)  ( 2.00    -0.0726)  ( 0.00     0.0088)

 SCF CONVERGED

 CYCLE   17
1
 ***************************************************************************************************



                                                *******************
                                                *  R E S U L T S  *
                                                *******************
  
 *** Setting up for NEW gradients in Focky
 *** Using FIT density in Focky

 Orbital Energies, per Irrep and Spin:
 ======================================
                        Occup              E (au)              E (eV)       Diff (eV) with prev. cycle
                        -----      --------------------        ------       --------------------------
 A
              26        2.000     -0.52891161880479E+00       -14.392               2.91E-08
              27        2.000     -0.49460479849329E+00       -13.459              -9.75E-08
              28        2.000     -0.21147489802489E+00        -5.755               5.05E-08
              29        2.000     -0.13828457713335E+00        -3.763               1.27E-07
              30        2.000     -0.13828278073993E+00        -3.763               1.27E-07
              31        2.000     -0.96454261651964E-01        -2.625              -6.56E-08
              32        2.000     -0.95895009181082E-01        -2.609              -9.44E-09
              33        2.000     -0.95893693082155E-01        -2.609              -9.43E-09
              34        2.000     -0.72565068672345E-01        -1.975              -5.61E-09
              35        2.000     -0.72563701596957E-01        -1.975              -5.61E-09
              36        0.000      0.88023931629124E-02         0.240
              37        0.000      0.26615508208301E+00         7.242
              38        0.000      0.29734459831463E+00         8.091
              39        0.000      0.29734940853845E+00         8.091
              40        0.000      0.34467121340717E+00         9.379
              41        0.000      0.36322413985085E+00         9.884
              42        0.000      0.38953624212235E+00        10.600
              43        0.000      0.38954295800423E+00        10.600
              44        0.000      0.39253679200943E+00        10.681
              45        0.000      0.39253857776850E+00        10.682
  
 HOMO :       35 A                -0.72563701596957E-01
 LUMO :       36 A                 0.88023931629124E-02
  


 All Electron Calculation, thus no Orbital Energies of the Core Orbitals are calculated


 Fit test: (difference of exact and fit density, squared integrated, result summed over spins)
         Sum-of-Fragments:                             0.00091917697613
         Orthogonalized Fragments:                     0.00092156320520
         SCF:                                          0.00092321384004



 ==========================
 Electron Density at Nuclei
 ==========================
  
 The electron density is calculated at points on a small sphere around the center of a nucleus.
 The printed electron density is the average electron density on these points.
 The radius of the sphere is the printed approximate finite nuclear radius.

         Atom        Nuclear Radius (Angstrom)             Electron Density (a.u.)
         ----        -------------------------             -----------------------
     1)   Cl                0.0000426624                             3211.75420
     2)   Br                0.0000536685                            29313.34201
     3)   Cl                0.0000426624                             3210.66512



 =======================================
 M U L L I K E N   P O P U L A T I O N S
 =======================================
  
 The survey below gives for each atom:
 a) the total charge (Z minus electrons)
 b) the net spin polarization (nr of electrons spin-A minus spin-B)
 c) for each spin the atomic electron valence density (integrated) per L-value.

 Atom              Charge    Spin density          S         P         D         F
 ----              ------    ------------       ------    ------    ------    ------
 1 Cl             -0.0790                       5.9647   11.0374    0.0672    0.0097
 2 Br             -0.4739                       7.9963   17.4325   10.0365    0.0087
 3 Cl             -0.4470                       5.9843   11.4370    0.0209    0.0048

 Populations of individual BAS functions
 ----------------------------------------
 1 Cl           0.5054  1.4528  1.7143  0.2467  0.7275  0.7196  0.7304  1.2713  1.2818  1.2675
                0.6390  1.0777  0.3288  0.2749  0.1802  0.3087  1.0742  0.8579  1.1512  0.4401
                0.2410  0.5110  0.0003  0.0260  0.0027  0.0330  0.0096 -0.0043 -0.0035 -0.0033
                0.0002  0.0110  0.0012 -0.0043  0.0147  0.0107 -0.0076 -0.0093
 2 Br           0.3611  1.5681  2.0732  0.7131  0.7127  0.7132  1.2648  1.2655  1.2646  1.4376
                0.5947  1.1378  1.1311  1.1401  0.8910  0.8973  0.8888  0.2677  0.4014  0.4016
                0.2677  0.4015  0.2677  0.7771  1.1647  1.1656  0.7753  1.1650  0.7778  0.2882
                0.4339  0.4327  0.2917  0.4335  0.2869  0.2723  1.2107  0.4787  0.5920  0.4914
                0.6278  0.9702  0.8441  1.0151  0.3085  0.2248  0.3384  0.0003  0.0115  0.0023
                0.0207  0.0078 -0.0062 -0.0042 -0.0027  0.0001  0.0114  0.0011 -0.0043  0.0148
                0.0096 -0.0087 -0.0083
 3 Cl           0.5055  1.4530  1.7133  0.2531  0.7273  0.7230  0.7288  1.2708  1.2766  1.2688
                0.6080  1.0347  0.4167  0.2881  0.2333  0.3077  1.0386  0.9205  1.0807  0.5523
                0.4216  0.5989 -0.0011  0.0071  0.0012  0.0160  0.0041 -0.0062 -0.0028 -0.0027
                0.0001  0.0077  0.0006 -0.0033  0.0107  0.0075 -0.0062 -0.0069

 Gross Charges per Atom (Z minus electrons)
 ==========================================
            -0.0790   -0.4739   -0.4470
 Net Total: -1.00000000


 Atom-Atom Population Matrix (off-diagonal elements not doubled)
 ===============================================================

     1 :    17.1115
     2 :    -0.0121   35.4692
     3 :    -0.0203    0.0168   17.4505


 Frag-Frag Population Matrix (off-diagonal elements not doubled)
 ===============================================================

     1 :    52.5565
     2 :    -0.0035   17.4505



 =================================================
 H I R S H F E L D   C H A R G E   A N A L Y S I S
 =================================================
  
 For each fragment: the (numerical) integral of rho(scf) * rho(fragment)/rho(sum-of-fragments)
 (nuclear charges are included, electrons are counted negative)

 The fragments and their ordering are defined in the early G E O M E T R Y output section.
 If you use single-atom fragments, this usually implies that all atoms of the same
 chemical type are grouped together. This may not be the order in which you listed them
 in the input file!

    1  ClBr                     -0.4443
    2  Cl                       -0.5557

 Sum of these charges (accuracy NumInt/Tails) =          -1.00000742



 =============================
 V O R O N O I   C H A R G E S
 =============================
  
 For each atom: the (numerical) integral of the total electronic charge density in its Voronoi cell,
 i.e. the region of space that is closer to that atom than to any other atom.
 (cf. Wigner-Seitz cells in crystals)

 Within the Voronoi cell the subintegrals over the atomic sphere and the remaining part are evaluated
 separately to give the numbers of electrons (negative charge) in these regions.
 The net total charge in the cell (including the nuclear charge) is also given.

 Values are provided for
    a) the Initial (sum-of-fragments) density
    b) the Orthogonalized-Fragments density
    c) the SCF density
    d) the Voronoi Deformation Density (VDD): the difference SCF-Initial for the complete atomic cell
 ---------------------------------------------------------------------------------------------------
 Total NetCharge:              -1.000                     -1.000                     -1.000   -0.000
 (accuracy NumInt/Tails)

 Remark: the 'NetTotal' Voronoi charges often do not match the Mulliken and/or Hirshfeld charges very
 well. This is caused by the fact that chemically different atoms are not treated in accordance with
 their relative sizes. (Voronoi cells are defined by boundary planes halfway between the atoms.)
 However, the CHANGES in charge, comparing 'Initial' to 'SCF' for instance, do give a fair indication
 of the flow of charge caused by the relaxation from sum-of-fragments to self-consistency.

 Warning: the absolute accuracy of the VDD charges obtained using the Fuzzy Cells (Becke) integration
 scheme is much poorer than the one obtained with an 'equivalent' Voronoi integration grid. 



 =================================================================
 M U L T I P O L E   D E R I V E D   C H A R G E   A N A L Y S I S
 =================================================================

 This charge analysis uses the atomic multipoles (obtained from the fitted density) up to some level X,
 and reconstructs these multipoles exactly (up to level X) by distributing charges over all atoms.
 This is achieved by using Lagrange multipliers and a weight function to keep the multipoles local.

 Dummy atoms can be included (by setting INCDUM in MDC-block to 1) to obtain a fractional charge.
 This is generally useful and necessary only for small symmetrical molecules, when there are not
 enough degrees of freedom to reconstruct the multipoles.

 Since the atomic multipoles are reconstructed up to level X,
 the molecular multipoles are represented also up to level X.
 The recommended level is to reconstruct up to quadrupole : -> MDC-q charges.

 See: M. Swart, P.Th. van Duijnen, J.G. Snijders, J.Comput.Chem., (2001), p. 79-88.

 ------------------------------------------------------------- 
 Atomic electronic multipole moments from SCF equations (a.u.)
 ------------------------------------------------------------- 

   atom        charge        dip-x     dip-y     dip-z      quad-xx   quad-xy   quad-xz   quad-yy   quad-yz   quad-zz
 --------------------------------------------------------------------------------------------------------------------
    1 Cl    -0.247350    -0.094255  0.179653 -0.023415    -0.257971 -0.580341  0.075724  0.944477 -0.144403 -0.686507
    2 Br    -0.332986    -0.209043  0.398459 -0.052002    -0.359243 -0.808132  0.105365  1.315194 -0.200825 -0.955951
    3 Cl    -0.419664     0.106747 -0.203476  0.026596    -0.233898 -0.526188  0.068634  0.856289 -0.130839 -0.622391

 --------------------------------------- 
 Multipole derived atomic charges (a.u.)
 --------------------------------------- 

 The MDC-m charges are just the Monopole terms in the multipole expansion, while for the MDC-d charges
 also the Dipoles are reconstructed. The usually preferred charges are the MDC-q charges.
 These reconstruct the Monopoles, Dipoles and Quadrupoles (both atomic AND molecular).

        Atom    Level:     MDC-m        MDC-d        MDC-q
 ---------------------------------------------------------
     1     Cl          -0.247350    -0.111787    -0.072438
     2     Br          -0.332986    -0.444572    -0.463739
     3     Cl          -0.419664    -0.443641    -0.463822

 ------------------------------------------------ 
 Average absolute deviations in atomic multipoles
 ------------------------------------------------ 

 Stated here are the average differences between the atomic multipoles
 and the reconstructed atomic multipoles (from the distributed charges).
 If these values are not zero, this means there are not enough degrees of freedom,
 to be able to reconstruct the atomic multipoles. (This usually happens only
 for small and/or highly symmetric molecules). If this is the case, one could add
 dummy atoms as extra point charges (and setting INCDUM in MDC-block to 1).

 Level:                                 MDC-d        MDC-q
 ---------------------------------------------------------
 Charge   (a.u.)                       0.0000       0.0000
 Dipole   (Debye)                      0.0001       0.0001
 Quad.    (a.u.)                       0.3565       0.2052

 --------------------------------------- 
 Represented molecular multipole moments
 --------------------------------------- 

 Given here are the Molecular multipole moments from the atomic charges, and from the Fit Density.
 Note that the atomic charges represent the latter, NOT the ones from the Exact density.

            Q (a.u.)             Dipole moment (Debye)                                          Quadrupole moment (a.u.)
                                 x         y         z              xx        xy        xz        yy        yz        zz
------------------------------------------------------------------------------------------------------------------------
MDC-m        -1.0000       24.1196  -15.7710    0.3347        -67.8554   98.2229   -3.1643   -4.2114    3.6844   72.0668
MDC-d        -1.0000       23.6200  -14.8188    0.2106        -65.8547   93.0895   -2.6951   -3.6349    3.6598   69.4897
MDC-q        -1.0000       23.6200  -14.8188    0.2106        -65.6997   93.6128   -2.7633   -4.2027    3.7898   69.9024
 
Fit.Dens.    -1.0000       23.6200  -14.8188    0.2106        -66.0945   93.2379   -2.7145   -2.7573    3.6970   68.8518



 =============
 Dipole Moment  ***  (Debye)  ***
 =============
  
 Vector   :        23.61450648    -14.80832017      0.20913177
 Magnitude:        27.87427127

 This molecular dipole moment is calculated with analytic integration
 ************************************************************************************
 Since the molecule is NOT NEUTRAL, the dipole moment depends on the choice of origin
 ************************************************************************************



 =========================================
 Quadrupole Moment (Buckingham convention)  ***  (a.u.)  ***
 =========================================
  
      quad-xx        quad-xy        quad-xz        quad-yy        quad-yz        quad-zz
    -66.07722820    92.20864267    -2.58212600    -2.73399445     3.45488160    68.81122265

 This molecular quadrupole moment is calculated with analytic integration
1



                                             *************************
                                             *  SFO MO coefficients  *
                                             *************************
  


                                       === A ===
 MOs expanded in CFs+SFOs
 ========================

 The SFOs have been characterized in an earlier part of output.
 To deduce the bonding / antibonding nature of SFO combinations in an MO, consider the products
 of the coefficients AND THE OVERLAP between the SFOs (may be NEGATIVE). The SFO overlap matrix
 is printed later, in the SFO Populations section.

 (The CF coefficients are not printed)

 MOs :      1        2        3        4        5        6        7        8        9       10
 occup:   2.00     2.00     2.00     2.00     2.00     2.00     2.00     2.00     2.00     2.00
 CF+SFO
     1   1.0000  -0.0000  -0.0000   0.0000  -0.0000  -0.0000   0.0000   0.0000  -0.0000   0.0000
     2  -0.0000  -1.0000   0.0000  -0.0000   0.0000   0.0000  -0.0000  -0.0000  -0.0000   0.0000
     3  -0.0000  -0.0000  -0.0000   1.0000  -0.0003  -0.0000   0.0000   0.0000  -0.0000  -0.0001
     4  -0.0000  -0.0000  -0.0000  -0.0003  -1.0000   0.0000   0.0000   0.0000  -0.0000  -0.0000
     5   0.0000   0.0000   0.0000   0.0000   0.0000   0.9928  -0.1197  -0.0000   0.0000   0.0000
     6   0.0000  -0.0000   0.0000   0.0000  -0.0000  -0.1197  -0.9928  -0.0000   0.0000   0.0000
     7  -0.0000   0.0001  -0.0000  -0.0000   0.0000   0.0000  -0.0000  -0.9999  -0.0004   0.0004
     8   0.0000  -0.0000  -0.0000  -0.0001   0.0000   0.0000  -0.0000  -0.0000   0.0000  -1.0000
     9  -0.0000  -0.0000  -0.0000  -0.0000   0.0000   0.0000  -0.0000  -0.0039  -0.0001   0.0001
    10   0.0000   0.0000   0.0000   0.0000  -0.0000  -0.0000  -0.0000  -0.0000   0.0000  -0.0000
    11  -0.0000   0.0000  -0.0000  -0.0000   0.0000   0.0000  -0.0000   0.0000  -0.0000   0.0000
    12  -0.0000   0.0000   0.0000   0.0000   0.0000   0.0000  -0.0000  -0.0000   0.0000  -0.0015
    13  -0.0000  -0.0000   0.0000   0.0000   0.0000   0.0000   0.0000   0.0000  -0.0000  -0.0000
    14   0.0000  -0.0000  -0.0000  -0.0000  -0.0000  -0.0000   0.0000  -0.0000   0.0000   0.0000
    15  -0.0000  -0.0000  -0.0000  -0.0000   0.0000  -0.0000   0.0000   0.0000  -0.0000   0.0013
    16   0.0000   0.0000   0.0000   0.0000   0.0000   0.0000   0.0000  -0.0000   0.0000  -0.0000
    17   0.0000   0.0000   0.0000   0.0000  -0.0000  -0.0000   0.0000  -0.0000   0.0000   0.0000
    18  -0.0000   0.0000   0.0000  -0.0000   0.0000  -0.0000  -0.0000  -0.0000   0.0000   0.0000
    19  -0.0000   0.0000   0.0000  -0.0000   0.0000   0.0000  -0.0000  -0.0000   0.0000   0.0000
    20  -0.0000  -0.0000  -0.0000   0.0000   0.0000  -0.0000   0.0000   0.0008  -0.0009   0.0019
    21  -0.0000  -0.0000  -0.0000  -0.0000   0.0000   0.0000  -0.0000   0.0006  -0.0007   0.0010
    22   0.0000   0.0000   0.0000   0.0000  -0.0000   0.0000  -0.0000  -0.0003   0.0008  -0.0019
    23   0.0000   0.0000   0.0000   0.0000   0.0000   0.0000   0.0000  -0.0000   0.0000  -0.0000
    24  -0.0000   0.0000  -0.0000  -0.0000   0.0000  -0.0000   0.0000  -0.0000  -0.0000   0.0000
    25  -0.0000  -0.0000  -0.0000   0.0000   0.0000   0.0000   0.0000   0.0000  -0.0000   0.0000
    26  -0.0000   0.0000  -0.0000   0.0000   0.0000   0.0000  -0.0000  -0.0000  -0.0000   0.0000
    27  -0.0000  -0.0000  -0.0000   0.0000   0.0000   0.0000  -0.0000   0.0002  -0.0007   0.0019
    28  -0.0000  -0.0000  -0.0000   0.0000   0.0000  -0.0000   0.0000   0.0002  -0.0005   0.0011
    29   0.0000   0.0000   0.0000   0.0000  -0.0000  -0.0000   0.0000  -0.0000   0.0000  -0.0000
    30  -0.0000  -0.0000  -0.0000   0.0000   0.0000  -0.0000  -0.0000   0.0000  -0.0000   0.0000
    31   0.0000   0.0000   0.0000  -0.0000  -0.0000  -0.0000  -0.0000  -0.0004   0.0010  -0.0028
    32  -0.0000  -0.0000  -0.0001  -0.0000   0.0000   0.0000  -0.0000   0.0004  -0.0013   0.0030
    33   0.0000   0.0000   0.0000   0.0000  -0.0000   0.0000  -0.0000   0.0000   0.0000  -0.0000
    34   0.0000   0.0000   0.0000  -0.0000  -0.0000   0.0000   0.0000  -0.0000   0.0000  -0.0000
    35  -0.0000  -0.0000  -0.0000  -0.0000   0.0000   0.0000  -0.0000   0.0000  -0.0000   0.0000
    36   0.0000   0.0000   0.0000   0.0000  -0.0000  -0.0000  -0.0000  -0.0000   0.0000  -0.0000
    37   0.0000   0.0000   0.0000   0.0000  -0.0000   0.0000  -0.0000   0.0000   0.0000  -0.0000
    38   0.0000   0.0000   0.0000  -0.0000   0.0000   0.0000   0.0000  -0.0000   0.0000  -0.0000
    39   0.0000   0.0000   0.0000   0.0000  -0.0000   0.0000   0.0000  -0.0003   0.0003  -0.0012
    40   0.0000   0.0000   0.0000  -0.0000  -0.0000  -0.0000  -0.0000  -0.0001   0.0004  -0.0005
    41  -0.0000  -0.0000  -0.0000  -0.0000   0.0000   0.0000   0.0000   0.0000  -0.0000   0.0000
    42   0.0000  -0.0000   0.0000  -0.0000   0.0000  -0.0000   0.0000   0.0000   0.0000  -0.0000
    43   0.0000   0.0000  -0.0000  -0.0000  -0.0000  -0.0000  -0.0000  -0.0000   0.0000  -0.0000
    44  -0.0000  -0.0000  -0.0000  -0.0000  -0.0000  -0.0000   0.0000   0.0000  -0.0000   0.0000
    45  -0.0000   0.0000   0.0000   0.0000   0.0000  -0.0000   0.0000  -0.0002   0.0001  -0.0002
    46  -0.0000  -0.0000  -0.0000   0.0000   0.0000   0.0000  -0.0000   0.0000  -0.0000   0.0000
    47  -0.0000  -0.0000   0.0000   0.0000   0.0000   0.0000   0.0000   0.0000   0.0000   0.0000
    48  -0.0000  -0.0000  -0.0000   0.0000   0.0000   0.0000   0.0000  -0.0000   0.0000   0.0000
    49  -0.0000  -0.0000  -0.0000   0.0000   0.0000   0.0000   0.0000   0.0000  -0.0000   0.0000
    50   0.0000   0.0000   0.0000   0.0000  -0.0000  -0.0000   0.0000   0.0000   0.0000  -0.0000
    51  -0.0000  -0.0000  -0.0000   0.0000   0.0000  -0.0000  -0.0000   0.0000   0.0000   0.0000
    52   0.0000   0.0000   0.0000  -0.0000  -0.0000   0.0000  -0.0000  -0.0001   0.0000  -0.0004
    53  -0.0000  -0.0000  -0.0000   0.0000  -0.0000   0.0000  -0.0000   0.0000  -0.0000  -0.0000
    54  -0.0000   0.0000   0.0000   0.0000  -0.0000  -0.0000  -0.0000  -0.0000   0.0000   0.0000
    55  -0.0000   0.0000   0.0000   0.0000   0.0000   0.0000   0.0000  -0.0000   0.0000   0.0000
    56  -0.0000   0.0000   0.0000   0.0000   0.0000  -0.0000   0.0000   0.0000   0.0000   0.0000
    57   0.0000   0.0000  -0.0000  -0.0000  -0.0000  -0.0000   0.0000  -0.0000  -0.0001  -0.0003
    58   0.0000  -0.0000  -0.0000  -0.0000  -0.0000   0.0000   0.0000   0.0000  -0.0000  -0.0000
    59   0.0000   0.0000  -0.0000  -0.0000  -0.0000   0.0000  -0.0000  -0.0000  -0.0000  -0.0000
    60   0.0000  -0.0000   0.0000  -0.0000   0.0000   0.0000  -0.0000   0.0000  -0.0000  -0.0007
    61   0.0000  -0.0000  -0.0000  -0.0000   0.0000   0.0000   0.0000   0.0000  -0.0000  -0.0000
    62  -0.0000   0.0000  -0.0000   0.0000  -0.0000   0.0000  -0.0000  -0.0000   0.0000   0.0000
    63  -0.0000  -0.0000  -0.0000   0.0000   0.0000  -0.0000   0.0000   0.0007  -0.0001   0.0002
    64   0.0000   0.0000   0.0000   0.0000  -0.0000  -0.0000  -0.0000  -0.0000   0.0000  -0.0000
    65  -0.0000   0.0000  -0.0000  -0.0000   0.0000   0.0000  -0.0000  -0.0000  -0.0000   0.0000
    66  -0.0000  -0.0000   0.0000   0.0000  -0.0000   0.0000  -0.0000   0.0002   0.0001   0.0002
    67  -0.0000   0.0000  -0.0000   0.0000  -0.0000  -0.0000  -0.0000  -0.0000  -0.0000   0.0000
    68   0.0000  -0.0000   0.0000  -0.0000   0.0000  -0.0000  -0.0000   0.0000   0.0000  -0.0000
    69   0.0000  -0.0000   0.0000  -0.0000   0.0000   0.0000  -0.0000   0.0003   0.0001  -0.0005
    70   0.0000  -0.0000   0.0000   0.0000   0.0000   0.0000   0.0000   0.0000   0.0000   0.0000
    71   0.0000  -0.0000   0.0000  -0.0000  -0.0000  -0.0000   0.0000   0.0000   0.0000  -0.0000
    72   0.0000   0.0000   0.0000   0.0000  -0.0000   0.0000  -0.0000  -0.0001   0.0000  -0.0001
    73  -0.0000  -0.0000  -0.0000  -0.0000  -0.0000   0.0000  -0.0000  -0.0000  -0.0000  -0.0000
    74   0.0000   0.0000   0.0000  -0.0000   0.0000   0.0000   0.0000  -0.0000   0.0000  -0.0000
    75  -0.0000  -0.0000  -0.0000   0.0000  -0.0000   0.0000   0.0000   0.0000  -0.0000   0.0001
    76  -0.0000  -0.0001   0.0000   0.0000   0.0000  -0.0000   0.0000   0.0003   0.0000  -0.0001
    77   0.0000  -0.0000  -0.0000  -0.0001   0.0000   0.0000  -0.0000   0.0000  -0.0000   0.0001
    78  -0.0000   0.0000  -0.0000   0.0000  -0.0000   0.0000   0.0000   0.0000  -0.0000   0.0000
    79   0.0000  -0.0000   0.0000  -0.0000   0.0000   0.0000  -0.0000   0.0000  -0.0000   0.0000
    80  -0.0000   0.0000   0.0000   0.0000   0.0000  -0.0000   0.0000  -0.0001   0.0000  -0.0001
    81   0.0000  -0.0000  -0.0000  -0.0000  -0.0000   0.0000   0.0000   0.0000  -0.0000  -0.0000
    82   0.0000  -0.0000  -0.0000   0.0000   0.0000  -0.0000   0.0000   0.0000  -0.0000  -0.0000
    83   0.0000   0.0000   0.0000   0.0000  -0.0000   0.0000   0.0000  -0.0000  -0.0000   0.0000
    84   0.0000   0.0000   0.0000   0.0000   0.0000   0.0000  -0.0000  -0.0000   0.0000   0.0000
    85   0.0000   0.0000   0.0000   0.0000  -0.0000   0.0000  -0.0000  -0.0000   0.0000   0.0001
    86  -0.0000  -0.0000  -0.0000   0.0000  -0.0000   0.0001  -0.0001  -0.0000  -0.0000   0.0000
    87  -0.0000   0.0000  -0.0000   0.0000  -0.0000  -0.0001  -0.0001  -0.0000  -0.0000   0.0000
    88  -0.0000  -0.0000   0.0000   0.0000   0.0001  -0.0000  -0.0000  -0.0000   0.0000  -0.0000
    89  -0.0000  -0.0001  -0.0000   0.0000  -0.0000   0.0000   0.0000  -0.0000  -0.0000  -0.0000
    90   0.0001  -0.0000   0.0000  -0.0000  -0.0000   0.0000   0.0000  -0.0000   0.0000   0.0000
    91   0.0000   0.0000   1.0000   0.0000  -0.0000  -0.0000   0.0000  -0.0000  -0.0000  -0.0001
    92  -0.0000  -0.0000   0.0000  -0.0000   0.0000   0.0000  -0.0000   0.0000   0.9998   0.0008
    93   0.0000   0.0000   0.0000   0.0000  -0.0000  -0.0000   0.0000  -0.0000  -0.0002  -0.0000
    94   0.0000   0.0000   0.0000   0.0000  -0.0000   0.0000   0.0000  -0.0000  -0.0021  -0.0002
    95  -0.0000  -0.0000  -0.0000  -0.0000   0.0000   0.0000   0.0000   0.0000   0.0006   0.0001
    96  -0.0000  -0.0000  -0.0001  -0.0000   0.0000   0.0000  -0.0000   0.0006  -0.0018   0.0037
    97  -0.0000  -0.0000  -0.0000  -0.0000   0.0000  -0.0000  -0.0000   0.0003  -0.0007   0.0017
    98  -0.0000  -0.0000  -0.0000  -0.0000   0.0000   0.0000   0.0000   0.0003  -0.0007   0.0020
    99   0.0000   0.0000   0.0000   0.0000  -0.0000  -0.0000   0.0000  -0.0002   0.0004  -0.0009
   100   0.0000   0.0000   0.0000   0.0000  -0.0000  -0.0000   0.0000  -0.0006   0.0009  -0.0032
   101   0.0000   0.0000   0.0000   0.0000  -0.0000  -0.0000   0.0000  -0.0005   0.0010  -0.0018
   102   0.0000   0.0000   0.0000   0.0000  -0.0000   0.0000  -0.0000  -0.0001   0.0001  -0.0002
   103   0.0000   0.0000   0.0000   0.0000  -0.0000   0.0000   0.0000  -0.0000   0.0000  -0.0000
   104   0.0000  -0.0000   0.0000  -0.0000  -0.0000   0.0000   0.0000   0.0000  -0.0000  -0.0002
   105  -0.0000   0.0000  -0.0000   0.0000   0.0000   0.0000   0.0000  -0.0000   0.0000   0.0003
   106  -0.0000   0.0000  -0.0000   0.0000   0.0000   0.0000  -0.0000  -0.0000   0.0000   0.0002
   107  -0.0000   0.0000  -0.0000   0.0000   0.0000   0.0000  -0.0000  -0.0000   0.0000   0.0000
   108  -0.0000   0.0000  -0.0000   0.0000   0.0000  -0.0000   0.0000  -0.0000   0.0000   0.0005
   109   0.0000   0.0000   0.0000   0.0000   0.0000  -0.0000   0.0000  -0.0002   0.0000  -0.0000
   110   0.0000   0.0000   0.0000   0.0000   0.0000  -0.0000  -0.0000  -0.0001   0.0000  -0.0000
   111   0.0000   0.0000   0.0000   0.0000   0.0000   0.0000   0.0000  -0.0000   0.0000  -0.0000
   112   0.0000   0.0000   0.0000   0.0000   0.0000  -0.0000   0.0000  -0.0000   0.0000  -0.0000
   113   0.0000   0.0000   0.0000   0.0000   0.0000   0.0000  -0.0000  -0.0000   0.0000  -0.0000
   114   0.0000   0.0000   0.0000   0.0000   0.0000   0.0000  -0.0000  -0.0002   0.0000  -0.0000
   115  -0.0000  -0.0000  -0.0000  -0.0000  -0.0000  -0.0000  -0.0000   0.0000  -0.0000   0.0000
   116   0.0000   0.0000   0.0000   0.0000   0.0000  -0.0000  -0.0000  -0.0001   0.0009   0.0000
   117  -0.0000   0.0000  -0.0000   0.0000   0.0000  -0.0000  -0.0000  -0.0001  -0.0000   0.0002
   118   0.0000  -0.0000   0.0000  -0.0000  -0.0000   0.0000  -0.0000   0.0000   0.0000  -0.0001
   119  -0.0000   0.0000  -0.0000   0.0000   0.0000   0.0000  -0.0000  -0.0001  -0.0000   0.0003
   120   0.0000   0.0000  -0.0001   0.0000   0.0000  -0.0000   0.0000  -0.0000  -0.0003  -0.0001
   121  -0.0000   0.0000   0.0000   0.0000   0.0000   0.0000   0.0000  -0.0000   0.0001   0.0000
   122  -0.0000   0.0000   0.0000   0.0000   0.0000  -0.0000  -0.0000  -0.0000   0.0000   0.0000
   123  -0.0000   0.0000   0.0000   0.0000   0.0000   0.0000  -0.0000  -0.0000   0.0000   0.0000
   124   0.0000   0.0000   0.0001   0.0000   0.0000  -0.0000   0.0000  -0.0000  -0.0000   0.0000

 MOs :     11       12       13       14       15       16       17       18       19       20
 occup:   2.00     2.00     2.00     2.00     2.00     2.00     2.00     2.00     2.00     2.00
 CF+SFO
     1  -0.0000   0.0000  -0.0000  -0.0000  -0.0000  -0.0000  -0.0000  -0.0000  -0.0000  -0.0000
     2   0.0000  -0.0000   0.0000  -0.0000  -0.0000   0.0000   0.0000   0.0000  -0.0000   0.0000
     3  -0.0000   0.0000  -0.0000  -0.0000  -0.0000  -0.0000   0.0000  -0.0000   0.0000  -0.0000
     4  -0.0000   0.0000  -0.0000  -0.0000  -0.0000  -0.0000  -0.0000   0.0000  -0.0000  -0.0000
     5   0.0000   0.0000   0.0000   0.0000   0.0000  -0.0000   0.0000  -0.0000   0.0000   0.0000
     6  -0.0000  -0.0000   0.0000   0.0000  -0.0000  -0.0000   0.0000   0.0000   0.0000  -0.0000
     7   0.0039   0.0000   0.0000  -0.0000  -0.0000   0.0000   0.0000   0.0000  -0.0000   0.0000
     8   0.0000   0.0000  -0.0000  -0.0000  -0.0000   0.0000   0.0015   0.0000   0.0000  -0.0013
     9  -1.0000   0.0000   0.0001   0.0001  -0.0000   0.0000   0.0000   0.0000  -0.0000   0.0000
    10  -0.0000  -0.9994  -0.0354   0.0000   0.0000  -0.0000  -0.0000  -0.0000   0.0000   0.0000
    11   0.0001  -0.0354   0.9994  -0.0000   0.0000   0.0000   0.0000  -0.0000  -0.0000   0.0000
    12   0.0000  -0.0000   0.0000   0.0000   0.0000  -0.0000  -1.0000  -0.0000   0.0000   0.0006
    13   0.0000   0.0000  -0.0000   0.0000   0.0000   0.0000  -0.0000   1.0000  -0.0046   0.0000
    14   0.0000  -0.0000  -0.0000  -0.0000  -0.0000   0.0000   0.0000   0.0046   1.0000   0.0000
    15  -0.0000   0.0000   0.0000  -0.0000  -0.0000  -0.0000  -0.0006  -0.0000   0.0000  -1.0000
    16   0.0000  -0.0000  -0.0000   0.0000  -0.0000   0.0000  -0.0000   0.0006  -0.0001  -0.0001
    17   0.0000  -0.0000   0.0000   0.0000  -0.0000  -0.0000   0.0000   0.0001   0.0006   0.0001
    18  -0.0000  -0.0000   0.0000  -0.0000   0.0000  -0.0000  -0.0000  -0.0000  -0.0000   0.0000
    19  -0.0000  -0.0000  -0.0000  -0.0000  -0.0000   0.0000  -0.0000   0.0000  -0.0000   0.0000
    20  -0.0001   0.0000  -0.0000   0.0001  -0.0000   0.0000   0.0001   0.0000  -0.0000   0.0009
    21  -0.0001   0.0000  -0.0000   0.0001  -0.0000   0.0000   0.0001   0.0000  -0.0000  -0.0012
    22  -0.0000  -0.0000   0.0000  -0.0003   0.0000  -0.0000  -0.0004  -0.0000   0.0000  -0.0003
[...]
  121    4.30145882867954E-16 -2.45747392585844E-16 -3.17610528098736E-16  9.48186680606593E-17
  122   -4.29562700683770E-17 -3.82321449753911E-16 -2.77229860229833E-16  4.95464934474588E-16
  123   -2.22240269535847E-17  7.88627907958748E-17 -2.69057539116575E-16  3.13510981278254E-16
  124    8.59230221694762E-17 -8.70614344505860E-17  1.60489026582167E-16 -1.36175792864179E-16

 column         109                   110                   111                   112
 row
  109    9.99999999999999E-01
  110   -1.97661967444928E-16  1.00000000000000E+00
  111    2.58764151550440E-16 -2.49988539492306E-16  1.00000000000000E+00
  112   -2.50736011326672E-16  3.54488086073477E-17  1.29319880892143E-16  1.00000000000000E+00
  113    2.39958994417435E-16 -8.38344235482598E-16 -6.79143362379109E-16  1.23218069200875E-15
  114    9.52225571927118E-16  4.43874645816611E-17  2.73711430950726E-16 -8.22162786064771E-17
  115    5.55372054353198E-16 -5.84692761566895E-16  5.71233537075200E-16 -1.70424899656521E-15
  116   -3.11040239110673E-16 -6.13196161395831E-16  5.30893516861598E-16  3.63800108215240E-16
  117   -4.71919112606813E-16  4.80822498261552E-15 -9.59026942091104E-16 -1.55441802094940E-16
  118   -1.37730574778424E-16  7.30890595323428E-16 -5.82703385576260E-16 -7.99096269039856E-16
  119   -3.26258054216867E-15 -1.64598195167534E-16 -7.12312621691300E-17 -2.82894366594817E-16
  120    5.09386556237423E-17 -1.93798597232942E-16  1.89270359096921E-16  8.57378925309420E-17
  121    4.03787064582348E-16 -2.76435025687953E-17 -1.80987541543076E-16  6.29754107032546E-17
  122   -7.03150636877765E-16 -5.16385695359704E-18  8.90224613072675E-17 -3.91129819818663E-16
  123    6.02663412575843E-17 -7.29207355568777E-17 -4.02247421727674E-16 -2.32551968399201E-16
  124   -4.05491612509579E-17 -3.15231781650160E-16 -6.19757066847026E-17  1.93580909765498E-16

 column         113                   114                   115                   116
 row
  113    1.00000000000000E+00
  114   -7.35829829727325E-17  1.00000000000000E+00
  115   -5.44784718230225E-16  5.83285998660184E-16  1.00000000000000E+00
  116   -7.23998341171179E-16 -9.81759890262201E-17  2.74780135067255E-17  1.00000000000001E+00
  117    3.75076512258249E-16  2.35251225001265E-16 -6.15287909259076E-17  7.85064016833176E-17
  118    4.48050306488338E-16 -1.02618570955451E-16 -3.97589853902880E-17 -5.48979840807404E-16
  119   -2.40848365777162E-16  1.73186156340627E-16 -8.32886967639561E-17  7.30419380306959E-16
  120   -1.88740751746650E-16 -1.83786032521686E-16 -4.25003598784733E-16  2.44205307695479E-14
  121    6.16590248885259E-16 -2.28975769653295E-16 -2.85968275630182E-16  1.09890327631805E-15
  122    6.04902074333321E-16  4.48279402430791E-16 -2.34533384430802E-16  5.80269555516333E-16
  123   -6.97366526813651E-17  4.42812307682077E-16 -2.67569561962961E-16  2.26125503785784E-16
  124   -1.50812522192734E-16  1.29562159612018E-16 -1.69813165265542E-16  1.33942336388859E-14

 column         117                   118                   119                   120
 row
  117    1.00000000000000E+00
  118   -1.00316716569640E-15  1.00000000000000E+00
  119   -8.20129486783609E-16  5.65017986147191E-16  1.00000000000000E+00
  120   -2.43462680029304E-16  2.16465622417941E-17  8.42730019882248E-17  1.00000000000007E+00
  121    2.89278056871578E-16 -1.15851681987110E-15 -1.84420248440943E-16  3.47477478919184E-16
  122    1.37633165989490E-15 -3.32770657614245E-17  6.97980559525961E-16  4.74017848491872E-16
  123    6.21675437653880E-16  2.26192321450433E-15  3.59783702972487E-16  1.99610725558764E-17
  124    3.35668992601512E-16 -2.91650384398601E-17  2.73218947466347E-16  5.21846021256378E-14

 column         121                   122                   123                   124
 row
  121    1.00000000000000E+00
  122   -4.71026657517762E-16  1.00000000000000E+00
  123    6.59977658723788E-16 -2.37832837164197E-15  1.00000000000000E+00
  124    5.43402128849735E-16  3.60497222351430E-17 -1.72930246511438E-17  1.00000000000003E+00


 SFO contributions (%) per orbital
 (multiplication by the orbital occupation yields the SFO Gross Populations)

 Orb.:       26     27     28     29     30     31     32     33     34     35     36     37     38     39
 occup:     2.00   2.00   2.00   2.00   2.00   2.00   2.00   2.00   2.00   2.00   0.00   0.00   0.00   0.00
 CF+SFO     ----   ----   ----   ----   ----   ----   ----   ----   ----   ----   ----   ----   ----   ----
 ------
     20:   25.79   0.50   0.32  -0.00   0.00   0.26   0.00   0.00   0.00   0.00   0.18   0.00   0.00   0.00
     21:    9.24  83.73   0.35   0.00   0.00   0.32   0.00   0.00   0.00   0.00   0.06  -0.04  -0.00  -0.00
     22:    0.71   0.07  69.48   0.00   0.00  27.43   0.00   0.00   0.00   0.00   1.97   0.34   0.00   0.00
     23:    0.00  -0.00   0.00  44.10  31.27   0.00  18.24   6.25   0.01   0.00  -0.00   0.00   0.06   0.03
     24:    0.00   0.00   0.00  31.27  44.10   0.00   6.25  18.24   0.00   0.01   0.00   0.00   0.03   0.06
     25:    0.00  -0.00   0.00   5.77   0.19   0.00  21.46   0.00  71.83   0.51   0.00   0.00   0.11   0.00
     26:    0.00   0.00   0.00   0.19   5.77   0.00   0.00  21.46   0.51  71.83   0.00   0.00   0.00   0.11
     27:    0.50   0.03   2.85   0.00   0.00  25.79   0.00   0.00   0.00   0.00  70.97  -0.22  -0.00  -0.00
     28:   -0.04  -0.03   0.09   0.00   0.00   0.02   0.00   0.00   0.00   0.00   0.01 102.14   0.00   0.00
     29:   -0.00   0.00   0.00   0.01   0.02   0.00   0.04   0.06   0.03   0.05  -0.00   0.00  33.45  66.00
     30:   -0.00   0.00   0.00   0.02   0.01   0.00   0.06   0.04   0.05   0.03  -0.00   0.00  66.00  33.45
     96:   63.80  15.19   1.29  -0.00   0.00  -0.01  -0.00   0.00  -0.00   0.00   0.60  -0.21  -0.00  -0.00
     97:   -0.01   0.17   9.85   9.72   1.65  17.71  31.28   1.57  15.28   1.41  10.52  -0.21   0.00   0.00
     98:   -0.01   0.22  12.77   8.66   0.59  22.98  22.12   4.55  11.96   1.61  13.63  -0.27   0.00   0.00
     99:   -0.00   0.05   2.83   0.19  16.32   5.05   0.19  47.48   0.00  24.21   3.02  -0.06   0.00   0.00
    100:    0.07   0.06  -0.13  -0.00  -0.00   0.06   0.00   0.00   0.00   0.00  -0.50  -1.15  -0.00  -0.00


 Summation over all MOs, multiplied by occupation: Total SFO Gross Populations in this Irrep
 ===========================================================================================

     2.00    2.00    2.00    2.00    2.00    2.00    2.00    2.00    2.00    2.00    2.00    2.00
     2.00    2.00    2.00    2.00    2.00    2.00    2.00    2.00    2.00    1.96    2.00    2.00
     2.00    2.00    0.59    0.00    0.00    0.00    0.00   -0.01   -0.00   -0.00    0.00    0.00
     0.00    0.00    0.00    0.01    0.00    0.00    0.00    0.00    0.00    0.00    0.00    0.00
     0.00    0.00    0.00    0.00    0.00    0.00    0.00    0.00    0.00    0.00    0.00    0.00
     0.00    0.00   -0.00    0.00    0.00   -0.00    0.00    0.00    0.00    0.00    0.00   -0.00
     0.00    0.00   -0.00    0.00   -0.00   -0.00   -0.00   -0.00    0.00    0.00    0.00    0.00
    -0.00    0.00    0.00    0.00    0.00    0.00    2.00    2.00    2.00    2.00    2.00    1.99
     1.78    1.72    1.93   -0.00   -0.00    0.00    0.00    0.00    0.01    0.00    0.00    0.01
     0.00    0.00    0.00    0.00    0.00    0.00    0.00    0.00    0.00    0.00    0.00    0.00
    -0.00   -0.00   -0.00    0.00



 List of all MOs, ordered by energy, with the most significant SFO gross populations
 ===================================================================================

 Each percentage contribution in the table below corresponds to the indicated SFO.
 In general, a SFO may be a linear combination of several Fragment Orbitals on the same,
 or on symmetry-related Fragments. Only the first 'member' of such a combination is
 specified here. A full definition of all SFOs is given in an earlier part of the output.
 The numbering of the SFOs in this table does NOT include the Core Orbitals, and starts
 from one for each symmetry representation, as in the SFO definition list earlier.

       E(eV)  Occ       MO           %     SFO (first member)   E(eV)  Occ   Fragment
 -------------------------------------------------------------------------------------

     -16.025  2.00    25 A         73.18%    20 A             -20.902  2.00     1 ClBr
                                   19.10%     6 A             -10.473  2.00     2 Cl
                                    6.31%    21 A             -19.304  2.00     1 ClBr
     -14.392  2.00    26 A         63.80%     6 A             -10.473  2.00     2 Cl
                                   25.79%    20 A             -20.902  2.00     1 ClBr
                                    9.24%    21 A             -19.304  2.00     1 ClBr
     -13.459  2.00    27 A         83.73%    21 A             -19.304  2.00     1 ClBr
                                   15.19%     6 A             -10.473  2.00     2 Cl
      -5.755  2.00    28 A         69.48%    22 A             -10.457  2.00     1 ClBr
                                   12.77%     8 A               0.909  2.00     2 Cl
                                    9.85%     7 A               0.909  2.00     2 Cl
                                    2.85%    27 A              -6.438  0.00     1 ClBr
                                    2.83%     9 A               0.909  2.00     2 Cl
                                    1.29%     6 A             -10.473  2.00     2 Cl
      -3.763  2.00    29 A         44.10%    23 A              -8.622  2.00     1 ClBr
                                   31.27%    24 A              -8.622  2.00     1 ClBr
                                    9.72%     7 A               0.909  2.00     2 Cl
                                    8.66%     8 A               0.909  2.00     2 Cl
                                    5.77%    25 A              -7.493  2.00     1 ClBr
      -3.763  2.00    30 A         44.10%    24 A              -8.622  2.00     1 ClBr
                                   31.27%    23 A              -8.622  2.00     1 ClBr
                                   16.32%     9 A               0.909  2.00     2 Cl
                                    5.77%    26 A              -7.493  2.00     1 ClBr
                                    1.65%     7 A               0.909  2.00     2 Cl
      -2.625  2.00    31 A         27.43%    22 A             -10.457  2.00     1 ClBr
                                   25.79%    27 A              -6.438  0.00     1 ClBr
                                   22.98%     8 A               0.909  2.00     2 Cl
                                   17.71%     7 A               0.909  2.00     2 Cl
                                    5.05%     9 A               0.909  2.00     2 Cl
      -2.609  2.00    32 A         31.28%     7 A               0.909  2.00     2 Cl
                                   22.12%     8 A               0.909  2.00     2 Cl
                                   21.46%    25 A              -7.493  2.00     1 ClBr
                                   18.24%    23 A              -8.622  2.00     1 ClBr
                                    6.25%    24 A              -8.622  2.00     1 ClBr
      -2.609  2.00    33 A         47.48%     9 A               0.909  2.00     2 Cl
                                   21.46%    26 A              -7.493  2.00     1 ClBr
                                   18.24%    24 A              -8.622  2.00     1 ClBr
                                    6.25%    23 A              -8.622  2.00     1 ClBr
                                    4.55%     8 A               0.909  2.00     2 Cl
                                    1.57%     7 A               0.909  2.00     2 Cl
      -1.975  2.00    34 A         71.83%    25 A              -7.493  2.00     1 ClBr
                                   15.28%     7 A               0.909  2.00     2 Cl
                                   11.96%     8 A               0.909  2.00     2 Cl
      -1.975  2.00    35 A         71.83%    26 A              -7.493  2.00     1 ClBr
                                   24.21%     9 A               0.909  2.00     2 Cl
                                    1.61%     8 A               0.909  2.00     2 Cl
                                    1.41%     7 A               0.909  2.00     2 Cl
       0.240  0.00    36 A         70.97%    27 A              -6.438  0.00     1 ClBr
                                   13.63%     8 A               0.909  2.00     2 Cl
                                   10.52%     7 A               0.909  2.00     2 Cl
                                    3.02%     9 A               0.909  2.00     2 Cl
                                    1.97%    22 A             -10.457  2.00     1 ClBr



 =======================================================================
 Electrostatic potential at the Nuclei due to electrons and other nuclei
 =======================================================================
  
         Atom                  Potential
         ----                  ---------
     1)   Cl                 64.57884819
     2)   Br                176.13693902
     3)   Cl                 64.62106461
 
 
 ========================
 No memory problems found
 ========================
 
 Maximum number of active allocate calls:         652
 
 *******************************************************************************

                             A D F   E X I T
 NORMAL TERMINATION



 =================
 Timing Statistics
 =================
  
 Total Used :                     CPU=        6.14      System=        0.19     Elapsed=        6.67

 Calls  Section                     ( Mean, Percentage )
 ---------------------------------------------------------------------------------------------------
     3  ><      ................      0.00    0.02             0.00    0.00             0.00    0.02
     1  INIT    ................      0.47    7.65             0.03   16.23             0.54    8.09
     1  GEOMET  ................      0.03    0.52             0.01    3.66             0.28    4.20
     1  FRAGM   ................      0.01    0.16             0.01    3.66             0.02    0.36
     1  INPUTA  ................      0.00    0.02             0.00    0.00             0.00    0.01
     1  ATDEN   ................      0.00    0.08             0.00    0.00             0.01    0.08
     1  MAINSY  ................      0.01    0.20             0.00    1.05             0.02    0.23
     1  SYMFIT  ................      0.00    0.03             0.00    0.00             0.00    0.03
     1  CORORT  ................      0.00    0.00             0.00    0.00             0.00    0.01
     1  SYMORB  ................      0.00    0.03             0.00    1.05             0.00    0.05
     1  CLSMAT  ................      0.01    0.13             0.00    0.00             0.01    0.12
     1  ORTHON  ................      0.01    0.16             0.00    0.52             0.01    0.18
     1  GENPT   ................      0.13    2.07             0.01    3.14             0.13    2.00
     1  PTBAS   ................      0.04    0.65             0.00    0.52             0.04    0.62
    17  FOCKY   ................      0.13   34.87             0.00   13.09             0.13   32.59
    17  FOCKTR  ................      0.00    0.62             0.00    0.00             0.00    0.57
    17  SDIIS   ................      0.00    0.99             0.00    2.62             0.00    1.01
     1  COREPS  ................      0.11    1.76             0.00    0.00             0.11    1.63
     1  TOTEN   ................      0.34    5.59             0.00    1.05             0.35    5.19
     1  POPAN   ................      0.00    0.08             0.00    0.00             0.01    0.13
     1  DEBYE   ................      0.01    0.11             0.00    0.00             0.01    0.10
     1  INPUTE  ................      0.00    0.00             0.00    0.00             0.00    0.02
     1  SYMORE  ................      0.00    0.02             0.00    0.00             0.00    0.02
     1  METS    ................      0.00    0.02             0.00    0.00             0.00    0.01
     1  CETS    ................      0.02    0.29             0.00    0.00             0.03    0.45
     1  POPUL   ................      2.67   43.47             0.10   51.83             2.79   41.83
     1  EXIT PROCEDURE .........      0.03    0.46             0.00    1.57             0.03    0.47


 Currently Open Files (EXIT00)
 ====================

 Unit    Access Format  Status   Type       Ident (file)
 -------------------------------------------------------
   3      SEQ    FORM   TRANSP  NORMAL      LOGFILE
                                          ( logfile )


 Buffered I/O statistics
 =======================
 Memory available:                     67108864
 Number of records fitting in memory:     16131
 Input :   1.2% of                        57549  *4k bytes
 Output:  13.5% of                         4449  *4k bytes
 Records from serial files evicted:           0
                    others evicted:           0
 Hash table lookups:     164325 with          0 conflicts (  0.00%)

 ***************************************************************************************************
 (LOGFILE)
 <May09-2019> <17:11:57>  ADF 2017  RunTime: May09-2019 17:11:57  Nodes: 1  Procs: 12
 <May09-2019> <17:11:57>  *** (NO TITLE) ***
 <May09-2019> <17:11:57>  RunType   : SINGLE POINT
 <May09-2019> <17:11:57>  Net Charge: -1 (Nuclei minus Electrons)
 <May09-2019> <17:11:57>  Symmetry  : NOSYM
 <May09-2019> <17:11:57>  >>>> FRAGM
  Coordinates
    Atom         X           Y           Z   (Angstrom)
    1.Cl       -4.944749    3.137038   -0.050606
    2.Br       -3.773575    0.904877    0.240178
    3.Cl       -6.057056    5.257004   -0.326774
 <May09-2019> <17:11:57>  >>>> CORORT
 <May09-2019> <17:11:57>  >>>> CLSMAT
 <May09-2019> <17:11:57>  >>>> ORTHON
 <May09-2019> <17:11:57>  >>>> GENPT
 <May09-2019> <17:11:58>  Block Length= 128
 <May09-2019> <17:11:58>  >>>> PTBAS
 <May09-2019> <17:11:58>  >>>> CYCLE
 <May09-2019> <17:11:58>              |Error|         MaxErr       Wt(A-DIIS)
 <May09-2019> <17:11:58>      1      1.15659765      0.53676821
 <May09-2019> <17:11:58>      2      0.97562938      0.31811355    100.0
 <May09-2019> <17:11:58>      3      0.59407765      0.22048776    100.0
 <May09-2019> <17:11:58>      4      0.55822035      0.21843033    100.0
 <May09-2019> <17:11:58>      5      1.52429174      0.46862219    100.0
 <May09-2019> <17:11:59>      6      0.49856041      0.13238901    100.0
 <May09-2019> <17:11:59>      7      0.26664059      0.10723089    100.0
 <May09-2019> <17:11:59>      8      0.38583374      0.15302638    100.0
 <May09-2019> <17:11:59>      9      0.08808542      0.02308310     22.3
 <May09-2019> <17:11:59>     10      0.04114583      0.01438879     13.5
 <May09-2019> <17:11:59>     11      0.00752409      0.00263489      1.7
 <May09-2019> <17:11:59>     12      0.00035794      0.00009285      0.0
 <May09-2019> <17:11:59>     13      0.00007698      0.00002338      0.0
 <May09-2019> <17:12:00>     14      0.00003353      0.00001206      0.0
 <May09-2019> <17:12:00>     15      0.00000830      0.00000342      0.0
 <May09-2019> <17:12:00>     16      0.00000110      0.00000044      0.0
 <May09-2019> <17:12:00>  SCF converged
 <May09-2019> <17:12:00>     17      0.00000012      0.00000004      0.0
 <May09-2019> <17:12:00>  >>>> TOTEN
 <May09-2019> <17:12:00>  >>>> POPAN
 <May09-2019> <17:12:00>  >>>> DEBYE
 <May09-2019> <17:12:00>  >>>> AMETS
 <May09-2019> <17:12:03>   Bond Energy          -0.08173680 a.u.
 <May09-2019> <17:12:03>   Bond Energy          -2.22417140 eV
 <May09-2019> <17:12:03>   Bond Energy         -51.29       kcal/mol
 <May09-2019> <17:12:03>  >>>> POPUL
 <May09-2019> <17:12:03>  NORMAL TERMINATION
 <May09-2019> <17:12:03>  END
