

 Parallel Execution: Process Information
 ==============================================================================
 Rank   Node Name                              NodeID   MyNodeRank  NodeMaster
    0   Lenovo-PC                                 0          0          0
    1   Lenovo-PC                                 0          1         -1
 ==============================================================================


May use up to 1914MB of RAM as shared memory on node 0

 *******************************************************************************
 *                                                                             *
 *  -------------------------------------                                      *
 *   Amsterdam Density Functional  (ADF)         2018                          *
 *  -------------------------------------                                      *
 *                                               r70630 2018-11-24             *
 *                                                                             *
 *                                                                             *
 *                              =================                              *
 *                              |               |                              *
 *                              |     A M S     |                              *
 *                              |               |                              *
 *                              =================                              *
 *                                                                             *
 *                                                                             *
 *   Online information and documentation:  https://www.scm.com/support/       *
 *   E-mail:  support@scm.com   info@scm.com                                   *
 *                                                                             *
 *   Scientific publications using ADF results must be properly referenced     *
 *   See the User Manuals (or the web site) for recommended citations          *
 *   The terms and conditions of the End User License Agreement apply to       *
 *   the use of ADF, https://www.scm.com/license-terms/                        *
 *                                                                             *
 *********************  x86_64_windows_intel / intelmpi  ***********************
 
 Licensed to: Dr. Celia Fonseca Guerra / Advanced Computational Chemistry / Amsterdam / NL
 SCM User ID: u17532
  
 AMS 2018  RunTime: Apr25-2019 17:05:50  Nodes: 1  Procs: 2

 AMS jobname: ams
 AMS jobid  : 412730656

 Start   directory: C:/SCMTMP/user/
 Results directory: C:/SCMTMP/user/ams.results/
 Scratch directory: C:/SCMTMP/amstmp_ams_kid0.412730656/

       ***************************
       *  GEOMETRY OPTIMIZATION  *
       ***************************

Optimization Method                    Quasi Newton
Optimization Coordinates               Delocalized Coordinates
Optimize lattice                       F
 
 ------------------------------------------------------
 Convergence criteria (Hartree,Angstrom)
 ------------------------------------------------------
 Maximum gradient               0.001000000000
 Maximum rms gradient           0.000666666667
 Maximum step allowed           0.001000000000
 Maximum rms step allowed       0.000666666667
 Maximum energy change allowe   0.000010000000
 
Initial model Hessian                  Automatic Hessian
 
------------------------------------
Quasi-Newton Optimizer Parameters
------------------------------------
Hessian Update Method                  BFGS
Maximum number of steps                   72
First GDIIS cycle                          0
Maximum GDIIS vectors                      0
Trust radius (bohr)                        0.200000
Trust radius varies                        T
Constraints converged at all steps         T
Rigid motions option                     All
Symmetrize steps                           F
 
 
---------------
Geometry
---------------
Atoms
  Index Symbol       x (bohr)       y (bohr)       z (bohr)
      1      H    -3.50959936     1.38524484     0.00000000
      2      O    -4.63207778    -0.12487310     0.00000000
      3      H    -6.34728770     0.62561273     0.00000000
      4      H    -1.31088412    -3.32210073     0.00000000
      5      O     0.12808564    -4.53407658     0.00000000
      6      H    -0.72830045    -6.19896309     0.00000000
      7      H     3.50959936    -1.38524484     0.00000000
      8      O     4.63207778     0.12487310     0.00000000
      9      H     6.34728770    -0.62561273     0.00000000
     10      H     1.31088412     3.32210073     0.00000000
     11      O    -0.12808564     4.53407658     0.00000000
     12      H     0.72830045     6.19896309     0.00000000
 
  Index Symbol   x (angstrom)   y (angstrom)   z (angstrom)
      1      H    -1.85720000     0.73304000     0.00000000
      2      O    -2.45119000    -0.06608000     0.00000000
      3      H    -3.35884000     0.33106000     0.00000000
      4      H    -0.69369000    -1.75798000     0.00000000
      5      O     0.06778000    -2.39933000     0.00000000
      6      H    -0.38540000    -3.28035000     0.00000000
      7      H     1.85720000    -0.73304000     0.00000000
      8      O     2.45119000     0.06608000     0.00000000
      9      H     3.35884000    -0.33106000     0.00000000
     10      H     0.69369000     1.75798000     0.00000000
     11      O    -0.06778000     2.39933000     0.00000000
     12      H     0.38540000     3.28035000     0.00000000
 
Total System Charge             0.00000
Bonding info available!
 
 
------------------------
UFF Engine configuration
------------------------
UFF Parameters file          general_db
UFF Elements file            elements_db
UFF MMAtomTypes file         mmatomtypes_db
 
Number of symmetry operators: 4
 Using automatic Hessian for delocalized coordinates.
 MEMORY DEALLOCATION WARNING: MMStructureInfoModule NOT FOUND
 MEMORY DEALLOCATION WARNING: MMStructureInfoModule NOT FOUND
 MEMORY DEALLOCATION WARNING: MMStructureInfoModule NOT FOUND
 MEMORY DEALLOCATION WARNING: MMStructureInfoModule NOT FOUND
 
---------------------------------------------------------
Geometry Convergence after Step   1       ** CONVERGED **
---------------------------------------------------------
current energy                               -0.02598792 Hartree
energy change                      -0.02598792     0.00001000    F
constrained gradient max            0.00009933     0.00100000    T
constrained gradient rms            0.00004638     0.00066667    T
gradient max                        0.00009933
gradient rms                        0.00004638
cart. step max                      0.00035674     0.00100000    T
cart. step rms                      0.00017401     0.00066667    T
 
Geometry optimization converged
Performing a single point calculation on the final geometry ...

-----------------------
Assumed Input Structure
-----------------------
Atoms
    H         -3.5095993593    1.3852448387    0.0000000000  H_           0.416999995708
    O         -4.6320777803   -0.1248731023    0.0000000000  O_3         -0.833999991417
    H         -6.3472876977    0.6256127309    0.0000000000  H_           0.416999995708
    H         -1.3108841156   -3.3221007332    0.0000000000  H_           0.416999995708
    O          0.1280856368   -4.5340765835    0.0000000000  O_3         -0.833999991417
    H         -0.7283004486   -6.1989630941    0.0000000000  H_           0.416999995708
    H          3.5095993593   -1.3852448387    0.0000000000  H_           0.416999995708
    O          4.6320777803    0.1248731023    0.0000000000  O_3         -0.833999991417
    H          6.3472876977   -0.6256127309    0.0000000000  H_           0.416999995708
    H          1.3108841156    3.3221007332    0.0000000000  H_           0.416999995708
    O         -0.1280856368    4.5340765835    0.0000000000  O_3         -0.833999991417
    H          0.7283004486    6.1989630941    0.0000000000  H_           0.416999995708
End

Bonds
    1      2    1.000000000000
    2      3    1.000000000000
    4      5    1.000000000000
    5      6    1.000000000000
    7      8    1.000000000000
    8      9    1.000000000000
   10     11    1.000000000000
   11     12    1.000000000000
End



    =====================
     CALCULATION RESULTS
    =====================

Energy (hartree)            -0.02598792

Gradients (hartree/bohr)
  Index   Atom            d/dx            d/dy            d/dz
      1      H   -0.0000436297    0.0000049370    0.0000000000
      2      O    0.0000525616   -0.0000422595    0.0000000000
      3      H   -0.0000177514   -0.0000133591    0.0000000000
      4      H   -0.0000050317    0.0000300053    0.0000000000
      5      O   -0.0000504855   -0.0000178038    0.0000000000
      6      H   -0.0000088822   -0.0000013309    0.0000000000
      7      H    0.0000436297   -0.0000049370    0.0000000000
      8      O   -0.0000525616    0.0000422595    0.0000000000
      9      H    0.0000177514    0.0000133591    0.0000000000
     10      H    0.0000050317   -0.0000300053    0.0000000000
     11      O    0.0000504855    0.0000178038    0.0000000000
     12      H    0.0000088822    0.0000013309    0.0000000000
 
--------------------
Energy Decomposition
--------------------
Total Energy (hartree)                -0.02598792
Total Energy (eV)                     -0.70716728
Bond bending (hartree)                 0.00029117
Bond stretching (hartree)              0.00010425
Bond torsion (hartree)                 0.00000000
Bond inversion (hartree)               0.00000000
Coulomb and Van Der Waals (ha         -0.02638334
 

AMS application finished. Exiting.
 NORMAL TERMINATION
     Total cpu time:       0.12
  Total system time:       0.20
 Total elapsed time:      12.49
NORMAL TERMINATION
