WARNING: ZORA/TZ2P basis will be used for Tl instead of the requested TZ2P basis
WARNING: ZORA/TZ2P basis will be used for Tl instead of the requested TZ2P basis
WARNING: ZORA/TZ2P basis will be used for Tl instead of the requested TZ2P basis
WARNING: ZORA/TZ2P basis will be used for Tl instead of the requested TZ2P basis
WARNING: ZORA/TZ2P basis will be used for Tl instead of the requested TZ2P basis
WARNING: ZORA/TZ2P basis will be used for Tl instead of the requested TZ2P basis

Create Tl   file=TZ2P-Tl
XC
  GGA blyp
End
End Input

 *******************************************************************************
 *                                                                             *
 *  -------------------------------------                                      *
 *   Amsterdam Density Functional  (ADF)         2017                          *
 *  -------------------------------------                                      *
 *                                               r58813 2017-04-12             *
 *                                                                             *
 *                                                                             *
 *                              =================                              *
 *                              |               |                              *
 *                              |     A D F     |                              *
 *                              |               |                              *
 *                              =================                              *
 *                                                                             *
 *                                                                             *
 *   Online information and documentation:  https://www.scm.com/support/       *
 *   E-mail:  support@scm.com   info@scm.com                                   *
 *                                                                             *
 *   Scientific publications using ADF results must be properly referenced     *
 *   See the User Manuals (or the web site) for recommended citations          *
 *   The terms and conditions of the End User License Agreement apply to       *
 *   the use of ADF, https://www.scm.com/license-terms/                        *
 *                                                                             *
 **********************  x86_64_linux_intel / intelmpi  ************************
 
 Licensed to: VU/FEW (+ SARA) / ALGEMEEN / Amsterdam / THE NETHERLANDS
 SCM User ID: u7668
  
 ADF 2017  RunTime: May18-2019 16:02:14  Nodes: 1  Procs: 1

 Temporary files are created in /local/datastore0/tcst25/190692/kid_0.X9VY0k

 Thallium (TZ2P, all electron)



 ===========================
 A T T A C H E D   F I L E S
 ===========================
  
 CREATE - Data File:    TZ2P-Tl
                        Thallium (TZ2P, all electron)



 ===============================
 M O D E L   P A R A M E T E R S
 ===============================
  
 DENSITY FUNCTIONAL POTENTIAL (scf)
    LDA:                               Exchange only                           == Not Default ==
    Gradient Corrections:              Becke88 LYP                             == Not Default ==

 SPIN  (restricted / unrestr.)
    Molecule:                          Restricted                               

 OTHER ASPECTS
    Relativistic Corrections:          ---                                      

    Nuclear Charge Density Model:      Point Charge Nuclei                      
    Core Treatment:                    Frozen Orbital(s)                        

    Hyperfine or Zeeman Interaction:   ---                                      



 =====================================
 S Y M M E T R Y ,   E L E C T R O N S
 =====================================
  
 Symmetry: ATOM

 Irreducible Representations, including subspecies
 -------------------------------------------------
 S
 P:x  P:y  P:z
 D:z2  D:x2-y2  D:xy  D:xz  D:yz
 F:z3  F:z  F:xyz  F:z2x  F:z2y  F:x  F:y


 Configuration of Valence Electrons
 ==================================

          Occupation Numbers
          -------------------------------------------------
 S        6*2
 P        4*6 1
 D        3*10
 F        14
          -------------------------------------------------

 Total:   81

 Net Charge: 0 (Nuclei minus Electrons)

 Preset values for MO occupations will be applied through SCF cycle no. 1000000
 Thereafter, the program will assign electrons to MOs that are spatially
 similar to the occupied MOs in a "reference" cycle ("KeepOrbitals").
 The reference cycle is always the PREVIOUS cycle: it will evolve with
 the SCF procedure.



 ================================
 (Slater-type)  F U N C T I O N S  ***  (Basis and Fit)  ***
 ================================
  

 Atom Type    1  (Tl)
 ==============

 Valence Basis Sets:  37
 -----------------------
   1 S  800.000000
   1 S  192.400000
   1 S   90.700000
   2 S  103.700000
   2 S   39.550000
   3 S   50.350000
   3 S   21.500000
   4 S   13.150000
   4 S    9.300000
   5 S    7.450000
   5 S    5.000000
   6 S    3.500000
   6 S    2.250000
   6 S    1.460000
   2 P  192.400000
   2 P   68.700000
   2 P   37.700000
   3 P   21.450000
   3 P   15.700000
   4 P   14.200000
   4 P    9.700000
   5 P    6.400000
   5 P    4.050000
   6 P    2.550000
   6 P    1.450000
   6 P    0.830000
   3 D   28.900000
   3 D   18.500000
   4 D   12.750000
   4 D    8.250000
   5 D    5.650000
   5 D    3.350000
   5 D    1.950000
   4 F   17.000000
   4 F    9.600000
   4 F    5.500000
   5 F    2.500000


 BAS: List of all Elementary Cartesian Basis Functions
 =====================================================

 The numbering in the list below (to the right of the function characteristics) is referred
 to in print-outs of MO eigenvectors and Mulliken populations in the BAS representation
 (as contrasted to the SFO representation).

 Notes:
 1. The functions are characterized by a polynomial prefactor (powers of x,y,z and r) and
    an exponential decay factor alpha.
 2. Since the basis sets are specific for an atom TYPE, the individual functions occur on
    all atoms of that type.
 3. The word 'Core' in the left margin signals that it is a Core Function (CF) : not a
    degree of freedom in the valence set, but only used to ensure orthogonalization of
    the other valence basis functions on the frozen Core Orbitals.


 (power of) X  Y  Z  R     Alpha  on Atom
            ==========     =====     ==========

 Tl                                   1
                                  ---------------------------------------------------------------------------
            0  0  0  0   800.000      1
            0  0  0  0   192.400      2
            0  0  0  0    90.700      3
            0  0  0  1   103.700      4
            0  0  0  1    39.550      5
            0  0  0  2    50.350      6
            0  0  0  2    21.500      7
            0  0  0  3    13.150      8
            0  0  0  3     9.300      9
            0  0  0  4     7.450     10
            0  0  0  4     5.000     11
            0  0  0  5     3.500     12
            0  0  0  5     2.250     13
            0  0  0  5     1.460     14
            1  0  0  0   192.400     15
            0  1  0  0   192.400     16
            0  0  1  0   192.400     17
            1  0  0  0    68.700     18
            0  1  0  0    68.700     19
            0  0  1  0    68.700     20
            1  0  0  0    37.700     21
            0  1  0  0    37.700     22
            0  0  1  0    37.700     23
            1  0  0  1    21.450     24
            0  1  0  1    21.450     25
            0  0  1  1    21.450     26
            1  0  0  1    15.700     27
            0  1  0  1    15.700     28
            0  0  1  1    15.700     29
            1  0  0  2    14.200     30
            0  1  0  2    14.200     31
            0  0  1  2    14.200     32
            1  0  0  2     9.700     33
            0  1  0  2     9.700     34
            0  0  1  2     9.700     35
            1  0  0  3     6.400     36
            0  1  0  3     6.400     37
            0  0  1  3     6.400     38
            1  0  0  3     4.050     39
            0  1  0  3     4.050     40
            0  0  1  3     4.050     41
            1  0  0  4     2.550     42
            0  1  0  4     2.550     43
            0  0  1  4     2.550     44
            1  0  0  4     1.450     45
            0  1  0  4     1.450     46
            0  0  1  4     1.450     47
            1  0  0  4     0.830     48
            0  1  0  4     0.830     49
            0  0  1  4     0.830     50
            2  0  0  0    28.900     51
            1  1  0  0    28.900     52
            1  0  1  0    28.900     53
            0  2  0  0    28.900     54
            0  1  1  0    28.900     55
            0  0  2  0    28.900     56
            2  0  0  0    18.500     57
            1  1  0  0    18.500     58
            1  0  1  0    18.500     59
            0  2  0  0    18.500     60
            0  1  1  0    18.500     61
            0  0  2  0    18.500     62
            2  0  0  1    12.750     63
            1  1  0  1    12.750     64
            1  0  1  1    12.750     65
            0  2  0  1    12.750     66
            0  1  1  1    12.750     67
            0  0  2  1    12.750     68
            2  0  0  1     8.250     69
            1  1  0  1     8.250     70
            1  0  1  1     8.250     71
            0  2  0  1     8.250     72
            0  1  1  1     8.250     73
            0  0  2  1     8.250     74
            2  0  0  2     5.650     75
            1  1  0  2     5.650     76
            1  0  1  2     5.650     77
            0  2  0  2     5.650     78
            0  1  1  2     5.650     79
            0  0  2  2     5.650     80
            2  0  0  2     3.350     81
            1  1  0  2     3.350     82
            1  0  1  2     3.350     83
            0  2  0  2     3.350     84
            0  1  1  2     3.350     85
            0  0  2  2     3.350     86
            2  0  0  2     1.950     87
            1  1  0  2     1.950     88
            1  0  1  2     1.950     89
            0  2  0  2     1.950     90
            0  1  1  2     1.950     91
            0  0  2  2     1.950     92
            3  0  0  0    17.000     93
            2  1  0  0    17.000     94
            2  0  1  0    17.000     95
            1  2  0  0    17.000     96
            1  1  1  0    17.000     97
            1  0  2  0    17.000     98
            0  3  0  0    17.000     99
            0  2  1  0    17.000    100
            0  1  2  0    17.000    101
            0  0  3  0    17.000    102
            3  0  0  0     9.600    103
            2  1  0  0     9.600    104
            2  0  1  0     9.600    105
            1  2  0  0     9.600    106
            1  1  1  0     9.600    107
            1  0  2  0     9.600    108
            0  3  0  0     9.600    109
            0  2  1  0     9.600    110
            0  1  2  0     9.600    111
            0  0  3  0     9.600    112
            3  0  0  0     5.500    113
            2  1  0  0     5.500    114
            2  0  1  0     5.500    115
            1  2  0  0     5.500    116
            1  1  1  0     5.500    117
            1  0  2  0     5.500    118
            0  3  0  0     5.500    119
            0  2  1  0     5.500    120
            0  1  2  0     5.500    121
            0  0  3  0     5.500    122
            3  0  0  1     2.500    123
            2  1  0  1     2.500    124
            2  0  1  1     2.500    125
            1  2  0  1     2.500    126
            1  1  1  1     2.500    127
            1  0  2  1     2.500    128
            0  3  0  1     2.500    129
            0  2  1  1     2.500    130
            0  1  2  1     2.500    131
            0  0  3  1     2.500    132

 Total number of charge fitting functions (nprimf)       347
 Total number of Cartesian basis functions (naos)        132
 Total number of Cartesian core functions  (ncos)          0



 BAS: List of all Elementary Cartesian Basis Functions
 =====================================================

 The numbering in the list below (to the right of the function characteristics) is referred
 to in print-outs of MO eigenvectors and Mulliken populations in the BAS representation
 (as contrasted to the SFO representation).

 Notes:
 1. The functions are characterized by a polynomial prefactor (powers of x,y,z and r) and
    an exponential decay factor alpha.
 2. Since the basis sets are specific for an atom TYPE, the individual functions occur on
    all atoms of that type.
 3. The word 'Core' in the left margin signals that it is a Core Function (CF) : not a
    degree of freedom in the valence set, but only used to ensure orthogonalization of
    the other valence basis functions on the frozen Core Orbitals.


 (power of) X  Y  Z  R     Alpha  on Atom
            ==========     =====     ==========

 Tl                                   1
                                  ---------------------------------------------------------------------------
            0  0  0  0   800.000      1
            0  0  0  0   192.400      2
            0  0  0  0    90.700      3
            0  0  0  1   103.700      4
            0  0  0  1    39.550      5
            0  0  0  2    50.350      6
            0  0  0  2    21.500      7
            0  0  0  3    13.150      8
            0  0  0  3     9.300      9
            0  0  0  4     7.450     10
            0  0  0  4     5.000     11
            0  0  0  5     3.500     12
            0  0  0  5     2.250     13
            0  0  0  5     1.460     14
            1  0  0  0   192.400     15
            0  1  0  0   192.400     16
            0  0  1  0   192.400     17
            1  0  0  0    68.700     18
            0  1  0  0    68.700     19
            0  0  1  0    68.700     20
            1  0  0  0    37.700     21
            0  1  0  0    37.700     22
            0  0  1  0    37.700     23
            1  0  0  1    21.450     24
            0  1  0  1    21.450     25
            0  0  1  1    21.450     26
            1  0  0  1    15.700     27
            0  1  0  1    15.700     28
            0  0  1  1    15.700     29
            1  0  0  2    14.200     30
            0  1  0  2    14.200     31
            0  0  1  2    14.200     32
            1  0  0  2     9.700     33
            0  1  0  2     9.700     34
            0  0  1  2     9.700     35
            1  0  0  3     6.400     36
            0  1  0  3     6.400     37
            0  0  1  3     6.400     38
            1  0  0  3     4.050     39
            0  1  0  3     4.050     40
            0  0  1  3     4.050     41
            1  0  0  4     2.550     42
            0  1  0  4     2.550     43
            0  0  1  4     2.550     44
            1  0  0  4     1.450     45
            0  1  0  4     1.450     46
            0  0  1  4     1.450     47
            1  0  0  4     0.830     48
            0  1  0  4     0.830     49
            0  0  1  4     0.830     50
            2  0  0  0    28.900     51
            1  1  0  0    28.900     52
            1  0  1  0    28.900     53
            0  2  0  0    28.900     54
            0  1  1  0    28.900     55
            0  0  2  0    28.900     56
            2  0  0  0    18.500     57
            1  1  0  0    18.500     58
            1  0  1  0    18.500     59
            0  2  0  0    18.500     60
            0  1  1  0    18.500     61
            0  0  2  0    18.500     62
            2  0  0  1    12.750     63
            1  1  0  1    12.750     64
            1  0  1  1    12.750     65
            0  2  0  1    12.750     66
            0  1  1  1    12.750     67
            0  0  2  1    12.750     68
            2  0  0  1     8.250     69
            1  1  0  1     8.250     70
            1  0  1  1     8.250     71
            0  2  0  1     8.250     72
            0  1  1  1     8.250     73
            0  0  2  1     8.250     74
            2  0  0  2     5.650     75
            1  1  0  2     5.650     76
            1  0  1  2     5.650     77
            0  2  0  2     5.650     78
            0  1  1  2     5.650     79
            0  0  2  2     5.650     80
            2  0  0  2     3.350     81
            1  1  0  2     3.350     82
            1  0  1  2     3.350     83
            0  2  0  2     3.350     84
            0  1  1  2     3.350     85
            0  0  2  2     3.350     86
            2  0  0  2     1.950     87
            1  1  0  2     1.950     88
            1  0  1  2     1.950     89
            0  2  0  2     1.950     90
            0  1  1  2     1.950     91
            0  0  2  2     1.950     92
            3  0  0  0    17.000     93
            2  1  0  0    17.000     94
            2  0  1  0    17.000     95
            1  2  0  0    17.000     96
            1  1  1  0    17.000     97
            1  0  2  0    17.000     98
            0  3  0  0    17.000     99
            0  2  1  0    17.000    100
            0  1  2  0    17.000    101
            0  0  3  0    17.000    102
            3  0  0  0     9.600    103
            2  1  0  0     9.600    104
            2  0  1  0     9.600    105
            1  2  0  0     9.600    106
            1  1  1  0     9.600    107
            1  0  2  0     9.600    108
            0  3  0  0     9.600    109
            0  2  1  0     9.600    110
            0  1  2  0     9.600    111
            0  0  3  0     9.600    112
            3  0  0  0     5.500    113
            2  1  0  0     5.500    114
            2  0  1  0     5.500    115
            1  2  0  0     5.500    116
            1  1  1  0     5.500    117
            1  0  2  0     5.500    118
            0  3  0  0     5.500    119
            0  2  1  0     5.500    120
            0  1  2  0     5.500    121
            0  0  3  0     5.500    122
            3  0  0  1     2.500    123
            2  1  0  1     2.500    124
            2  0  1  1     2.500    125
            1  2  0  1     2.500    126
            1  1  1  1     2.500    127
            1  0  2  1     2.500    128
            0  3  0  1     2.500    129
            0  2  1  1     2.500    130
            0  1  2  1     2.500    131
            0  0  3  1     2.500    132
1
 ***************************************************************************************************



                                              ***********************
                                              *  T E C H N I C A L  *
                                              ***********************
  



 =============================================================
 P A R A L L E L I Z A T I O N  and  V E C T O R I Z A T I O N
 =============================================================
  
 Nr of parallel processes:                                1
 Maximum vector length in NumInt loops:                 128

 IO buffersize (Mb):                                     64.000000



 =====================
 S C F   U P D A T E S
 =====================
  
 Max. nr. of cycles:                               300
 Convergence criterion:                              0.0000000100
   secondary criterion:                              0.0000000100

 Mix parameter (when DIIS does not apply):           0.2000000000
 Special mix parameter for the first cycle:          1.0000000000
 Mixed ADIIS+DIIS will be used
    Max number of expansion vectors:                10
    Pure ADIIS when Max([F,P]) is above              0.1000000000
    Pure DIIS when Max([F,P]) is below               0.0010000000
 Automatic ElectronSmearing (in case of problematic SCF convergence) disabled



 =================
 P R E C I S I O N  ***  (General: NumInt, NeglectFunctionTails, ...)  ***
 =================
  

 NumInt:           Target precision:                12.0000000000
 -------           Initial precision:               10.0000000000
                   Min. precision (optimization):   10.0000000000

 Neglect Functions:          Basis functions:        0.1000000000E-13
 ------------------          Fit functions:          0.1000000000E-13



 ===========================
 L I N E A R   S C A L I N G
 ===========================
  

 Cut-off radii density fit:                        0.1000000000E-97
 Overlap cut-off criterion AO matrix elements:     0.1000000000E-97
 Cut-offs for Coulomb potential and fitted density:0.1000000000E-97
 Cut-off criterion for Coulomb multipole terms:    0.1000000000E-97
 Progressive Convergence parameter:                 0.000000000    
1
 ***************************************************************************************************



                                            ***************************
                                            *  C O M P U T A T I O N  *
                                            ***************************
  

 Number of elements of the density matrix on this node (used, total):      8778      8778



 ===========================================
 Numerical Integration : Fuzzy Cells (Becke)
 ===========================================
  
 Becke grid quality: VERYGOOD       
  
 Lebedev angular grid order:             min:  13 max:  41
 Nr. of radial points:                   min: 226 max: 226

 Total nr. of points:        226
 Nr. of blocks:                2
 Block length:               113
 Nr. of dummy points:          0


 Test of Precision of the Numerical Integration Grid
 ===================================================

 Integral of the Total Core Density:                   0.00000000000000



 ========================
 Density Fitting (zlmFit)
 ========================
  
 ZlmFit Fit Quality: VERYGOOD       
  
 Max L-expansion:                        min:   0 max:   0
 Nr. of radial interpolation points:     min: 510 max: 510



 =====
 S C F  ***  ScaSCF  ***
 =====
  

 CYCLE    1
 SCF Error: norm([F,P])=      0.000000000000, max([F,P])=      0.000000000000
 orbitals (Q,E):
 ---------------
 S :1...14           ( 2.00 -3280.4735)  ( 2.00  -819.8550)  ( 2.00  -364.3086)  ( 2.00  -203.2670)
                     ( 2.00  -127.1097)  ( 2.00   -84.3159)  ( 0.00   -56.9302)  ( 0.00   -37.8032)
                     ( 0.00   -24.4439)  ( 0.00   -15.1480)  ( 0.00   848.4095)  ( 0.00  6754.3685)
                     ( 0.00 39372.5999)  ( 0.00450532.3072)
 P :1...12           ( 6.00  -820.0178)  ( 6.00  -364.4602)  ( 6.00  -204.9159)  ( 6.00  -130.4544)
                     ( 1.00   -88.7578)  ( 0.00   -64.2198)  ( 0.00   -45.9313)  ( 0.00   -29.1322)
                     ( 0.00   -17.1235)  ( 0.00    -9.5412)  ( 0.00   993.5755)  ( 0.00 16913.6151)
 D :1...7            (10.00  -364.3687)  (10.00  -202.8499)  (10.00  -125.9883)  ( 0.00   -83.8833)
                     ( 0.00   -60.5537)  ( 0.00   -40.8070)  ( 0.00   -24.2288)
 F :1...4            (14.00  -202.0192)  ( 0.00  -123.8086)  ( 0.00   -74.8918)  ( 0.00   -35.6813)

 CYCLE    2
  SDIIS (wt  0.000):  1.0000  0.0000
 A-DIIS (wt  1.000):  0.0000  1.0000
  DIIS coefficients:  0.0000  1.0000
 SCF Error: norm([F,P])=    581.679685968297, max([F,P])=    123.101369951602
 orbitals (Q,E):
 ---------------
 S :1...7            ( 2.00 -2685.1485)  ( 2.00  -356.7206)  ( 2.00   -38.8327)  ( 2.00    -0.2241)
                     ( 2.00     0.0783)  ( 2.00     0.5740)  ( 0.00     2.0686)
 P :1...6            ( 6.00  -334.2330)  ( 6.00   -29.0507)  ( 6.00     0.0217)  ( 6.00     0.1186)
                     ( 1.00     0.5115)  ( 0.00     1.6093)
 D :1...4            (10.00    -7.8204)  (10.00     0.4854)  (10.00     2.0237)  ( 0.00     6.3959)
 F :1...2            (14.00     1.7335)  ( 0.00    10.3302)

 CYCLE    3
  SDIIS (wt  0.000):  0.1652  0.8348
 A-DIIS (wt  1.000):  0.4239  0.5761
  DIIS coefficients:  0.4239  0.5761
 SCF Error: norm([F,P])=    248.649014016151, max([F,P])=     49.978947630459
 orbitals (Q,E):
 ---------------
 S :1...7            ( 2.00 -2836.9653)  ( 2.00  -487.0112)  ( 2.00  -129.7716)  ( 2.00   -44.4266)
                     ( 2.00   -18.0359)  ( 2.00    -7.3910)  ( 0.00    -2.5189)
 P :1...6            ( 6.00  -468.9809)  ( 6.00  -122.2392)  ( 6.00   -41.3663)  ( 6.00   -16.6693)
                     ( 1.00    -6.4702)  ( 0.00    -1.8274)
 D :1...4            (10.00  -105.7368)  (10.00   -34.4535)  (10.00   -13.6047)  ( 0.00    -4.8020)
 F :1...2            (14.00   -25.3832)  ( 0.00   -10.1148)

 CYCLE    4
  SDIIS (wt  0.000):  0.0056  0.0150  0.9794
 A-DIIS (wt  1.000):  0.0000  0.0000  1.0000
  DIIS coefficients:  0.0000  0.0000  1.0000
 SCF Error: norm([F,P])=     41.696967852811, max([F,P])=      6.894972699908
 orbitals (Q,E):
 ---------------
 S :1...7            ( 2.00 -2814.8603)  ( 2.00  -460.1274)  ( 2.00   -98.4664)  ( 2.00   -14.5352)
                     ( 2.00    -0.2996)  ( 2.00     0.0941)  ( 0.00     0.6124)
 P :1...6            ( 6.00  -443.0340)  ( 6.00   -91.1046)  ( 6.00   -11.3570)  ( 6.00     0.0105)
                     ( 1.00     0.0821)  ( 0.00     0.3655)
 D :1...4            (10.00   -75.0498)  (10.00    -4.7168)  (10.00     0.4476)  ( 0.00     1.7933)
 F :1...2            (14.00     1.5258)  ( 0.00     3.9432)

 CYCLE    5
  SDIIS (wt  0.000):  0.0042  0.0012  0.7257  0.2690
 A-DIIS (wt  1.000):  0.0000  0.0000  0.8411  0.1589
  DIIS coefficients:  0.0000  0.0000  0.8411  0.1589
 SCF Error: norm([F,P])=     67.060078939300, max([F,P])=     13.757403549022
 orbitals (Q,E):
 ---------------
 S :1...7            ( 2.00 -2824.9489)  ( 2.00  -470.0014)  ( 2.00  -107.5467)  ( 2.00   -21.2550)
                     ( 2.00    -2.8534)  ( 2.00    -0.2677)  ( 0.00     0.1112)
 P :1...6            ( 6.00  -452.9608)  ( 6.00  -100.2752)  ( 6.00   -18.1010)  ( 6.00    -1.8881)
                     ( 1.00    -0.0925)  ( 0.00     0.0341)
 D :1...4            (10.00   -84.4016)  (10.00   -11.3273)  (10.00    -0.3656)  ( 0.00     0.4090)
 F :1...2            (14.00    -2.2331)  ( 0.00     0.7277)

 CYCLE    6
  SDIIS (wt  0.000):  0.0028 -0.0022  0.2541 -0.0973  0.8427
 A-DIIS (wt  1.000):  0.0000  0.0000  0.0382  0.0000  0.9618
  DIIS coefficients:  0.0000  0.0000  0.0382  0.0000  0.9618
 SCF Error: norm([F,P])=     19.046623045679, max([F,P])=      3.411538867727
 orbitals (Q,E):
 ---------------
 S :1...7            ( 2.00 -2836.0282)  ( 2.00  -480.7849)  ( 2.00  -117.0581)  ( 2.00   -27.7647)
                     ( 2.00    -5.5069)  ( 2.00    -0.6100)  ( 0.00     0.0136)
 P :1...6            ( 6.00  -463.8296)  ( 6.00  -109.9155)  ( 6.00   -24.6828)  ( 6.00    -4.3192)
                     ( 1.00    -0.3090)  ( 0.00     0.0077)
 D :1...4            (10.00   -94.3290)  (10.00   -17.8874)  (10.00    -2.0424)  ( 0.00     0.1358)
 F :1...2            (14.00    -8.7520)  ( 0.00     0.2623)

 CYCLE    7
  SDIIS (wt  0.000): -0.0013  0.0016 -0.0111 -0.0331  0.5775  0.4665
 A-DIIS (wt  1.000):  0.0000  0.0000  0.0000  0.0000  0.5233  0.4767
  DIIS coefficients:  0.0000  0.0000  0.0000  0.0000  0.5233  0.4767
 SCF Error: norm([F,P])=     22.038703258445, max([F,P])=      4.079917121080
 orbitals (Q,E):
 ---------------
 S :1...7            ( 2.00 -2829.0499)  ( 2.00  -474.2248)  ( 2.00  -111.5300)  ( 2.00   -24.1380)
                     ( 2.00    -3.7871)  ( 2.00    -0.2545)  ( 0.00     0.1086)
 P :1...6            ( 6.00  -457.1749)  ( 6.00  -104.2941)  ( 6.00   -21.0084)  ( 6.00    -2.6851)
                     ( 1.00    -0.0779)  ( 0.00     0.0425)
 D :1...4            (10.00   -88.4946)  (10.00   -14.2068)  (10.00    -0.7303)  ( 0.00     0.3438)
 F :1...2            (14.00    -5.0333)  ( 0.00     0.7511)

 CYCLE    8
  SDIIS (wt  0.000): -0.0000 -0.0000 -0.0103 -0.0026  0.0552  0.0316  0.9261
 A-DIIS (wt  1.000):  0.0000  0.0000  0.0000  0.0000  0.0000  0.0000  1.0000
  DIIS coefficients:  0.0000  0.0000  0.0000  0.0000  0.0000  0.0000  1.0000
 SCF Error: norm([F,P])=      0.824981831014, max([F,P])=      0.135330884652
 orbitals (Q,E):
 ---------------
 S :1...7            ( 2.00 -2828.7754)  ( 2.00  -473.8818)  ( 2.00  -111.0822)  ( 2.00   -23.7033)
                     ( 2.00    -3.5410)  ( 2.00    -0.2408)  ( 0.00     0.1073)
 P :1...6            ( 6.00  -456.8460)  ( 6.00  -103.8511)  ( 6.00   -20.5707)  ( 6.00    -2.4560)
                     ( 1.00    -0.0814)  ( 0.00     0.0368)
 D :1...4            (10.00   -88.0685)  (10.00   -13.7724)  (10.00    -0.5677)  ( 0.00     0.3568)
 F :1...2            (14.00    -4.5988)  ( 0.00     0.7957)

 CYCLE    9
  SDIIS (wt  0.000): -0.0000 -0.0001 -0.0036 -0.0003 -0.0057  0.0198  0.4295  0.5605
 A-DIIS (wt  1.000):  0.0000  0.0000  0.0000  0.0000  0.0000  0.0000  0.6402  0.3598
  DIIS coefficients:  0.0000  0.0000  0.0000  0.0000  0.0000  0.0000  0.6402  0.3598
 SCF Error: norm([F,P])=      1.280461371649, max([F,P])=      0.210076159217
 orbitals (Q,E):
 ---------------
 S :1...7            ( 2.00 -2829.1155)  ( 2.00  -474.2125)  ( 2.00  -111.3832)  ( 2.00   -23.9362)
                     ( 2.00    -3.6728)  ( 2.00    -0.2647)  ( 0.00     0.0955)
 P :1...6            ( 6.00  -457.1791)  ( 6.00  -104.1550)  ( 6.00   -20.8052)  ( 6.00    -2.5796)
                     ( 1.00    -0.0946)  ( 0.00     0.0322)
 D :1...4            (10.00   -88.3788)  (10.00   -14.0061)  (10.00    -0.6594)  ( 0.00     0.3326)
 F :1...2            (14.00    -4.8309)  ( 0.00     0.7562)

 CYCLE   10
  SDIIS (wt  0.780):  0.0000 -0.0000  0.0002  0.0000  0.0036 -0.0032  0.1113 -0.1032  0.9913
 A-DIIS (wt  0.220):  0.0000  0.0000  0.0000  0.0000  0.0000  0.0000  0.0000  0.0000  1.0000
  DIIS coefficients:  0.0000 -0.0000  0.0002  0.0000  0.0028 -0.0025  0.0869 -0.0805  0.9932
 SCF Error: norm([F,P])=      0.120931089190, max([F,P])=      0.022739660861
 orbitals (Q,E):
 ---------------
 S :1...7            ( 2.00 -2829.1173)  ( 2.00  -474.2248)  ( 2.00  -111.4110)  ( 2.00   -23.9724)
                     ( 2.00    -3.6954)  ( 2.00    -0.2654)  ( 0.00     0.0958)
 P :1...6            ( 6.00  -457.1893)  ( 6.00  -104.1820)  ( 6.00   -20.8414)  ( 6.00    -2.6004)
                     ( 1.00    -0.0941)  ( 0.00     0.0330)
 D :1...4            (10.00   -88.4033)  (10.00   -14.0419)  (10.00    -0.6735)  ( 0.00     0.3317)
 F :1...2            (14.00    -4.8666)  ( 0.00     0.7533)

 CYCLE   11
  SDIIS (wt  0.946):  0.0000  0.0000  0.0000 -0.0000  0.0002 -0.0004  0.0147  0.0152  0.1498  0.8203
 A-DIIS (wt  0.054):  0.0000  0.0000  0.0000  0.0000  0.0000  0.0000  0.0000  0.0000  0.0000  1.0000
  DIIS coefficients:  0.0000  0.0000  0.0000 -0.0000  0.0002 -0.0003  0.0139  0.0144  0.1417  0.8301
 SCF Error: norm([F,P])=      0.040548421081, max([F,P])=      0.006357468720
 orbitals (Q,E):
 ---------------
 S :1...7            ( 2.00 -2829.1066)  ( 2.00  -474.2142)  ( 2.00  -111.4008)  ( 2.00   -23.9634)
                     ( 2.00    -3.6906)  ( 2.00    -0.2651)  ( 0.00     0.0959)
 P :1...6            ( 6.00  -457.1786)  ( 6.00  -104.1718)  ( 6.00   -20.8324)  ( 6.00    -2.5959)
                     ( 1.00    -0.0941)  ( 0.00     0.0330)
 D :1...4            (10.00   -88.3929)  (10.00   -14.0330)  (10.00    -0.6705)  ( 0.00     0.3320)
 F :1...2            (14.00    -4.8578)  ( 0.00     0.7539)

 CYCLE   12
  SDIIS (wt  1.000):  0.0000 -0.0000  0.0000 -0.0000  0.0000  0.0014  0.0014  0.0137  0.0859  0.8977
  DIIS coefficients:  0.0000 -0.0000  0.0000 -0.0000  0.0000  0.0014  0.0014  0.0137  0.0859  0.8977
 SCF Error: norm([F,P])=      0.002888252457, max([F,P])=      0.000532168254
 orbitals (Q,E):
 ---------------
 S :1...7            ( 2.00 -2829.1073)  ( 2.00  -474.2147)  ( 2.00  -111.4013)  ( 2.00   -23.9637)
                     ( 2.00    -3.6906)  ( 2.00    -0.2650)  ( 0.00     0.0959)
 P :1...6            ( 6.00  -457.1792)  ( 6.00  -104.1722)  ( 6.00   -20.8327)  ( 6.00    -2.5959)
                     ( 1.00    -0.0940)  ( 0.00     0.0331)
 D :1...4            (10.00   -88.3934)  (10.00   -14.0333)  (10.00    -0.6705)  ( 0.00     0.3321)
 F :1...2            (14.00    -4.8581)  ( 0.00     0.7541)

 CYCLE   13
  SDIIS (wt  1.000): -0.0000  0.0000 -0.0000  0.0000  0.0001 -0.0001  0.0015  0.0081  0.1391  0.8513
  DIIS coefficients: -0.0000  0.0000 -0.0000  0.0000  0.0001 -0.0001  0.0015  0.0081  0.1391  0.8513
 SCF Error: norm([F,P])=      0.000091592058, max([F,P])=      0.000020654115
 orbitals (Q,E):
 ---------------
 S :1...7            ( 2.00 -2829.1073)  ( 2.00  -474.2148)  ( 2.00  -111.4013)  ( 2.00   -23.9637)
                     ( 2.00    -3.6906)  ( 2.00    -0.2650)  ( 0.00     0.0959)
 P :1...6            ( 6.00  -457.1793)  ( 6.00  -104.1723)  ( 6.00   -20.8327)  ( 6.00    -2.5960)
                     ( 1.00    -0.0940)  ( 0.00     0.0331)
 D :1...4            (10.00   -88.3935)  (10.00   -14.0333)  (10.00    -0.6705)  ( 0.00     0.3321)
 F :1...2            (14.00    -4.8581)  ( 0.00     0.7540)

 CYCLE   14
  SDIIS (wt  1.000):  0.0000  0.0000 -0.0000  0.0001  0.0005  0.0084  0.0715  0.9195
  DIIS coefficients:  0.0000  0.0000 -0.0000  0.0001  0.0005  0.0084  0.0715  0.9195
 SCF Error: norm([F,P])=      0.000001666357, max([F,P])=      0.000000385767
 orbitals (Q,E):
 ---------------
 S :1...7            ( 2.00 -2829.1073)  ( 2.00  -474.2148)  ( 2.00  -111.4013)  ( 2.00   -23.9637)
                     ( 2.00    -3.6906)  ( 2.00    -0.2650)  ( 0.00     0.0959)
 P :1...6            ( 6.00  -457.1793)  ( 6.00  -104.1723)  ( 6.00   -20.8327)  ( 6.00    -2.5960)
                     ( 1.00    -0.0940)  ( 0.00     0.0331)
 D :1...4            (10.00   -88.3935)  (10.00   -14.0333)  (10.00    -0.6705)  ( 0.00     0.3321)
 F :1...2            (14.00    -4.8581)  ( 0.00     0.7540)

 CYCLE   15
  SDIIS (wt  1.000): -0.0000 -0.0000 -0.0000 -0.0004  0.0262  0.9743
  DIIS coefficients: -0.0000 -0.0000 -0.0000 -0.0004  0.0262  0.9743
 SCF Error: norm([F,P])=      0.000000058708, max([F,P])=      0.000000012800
 orbitals (Q,E):
 ---------------
 S :1...7            ( 2.00 -2829.1073)  ( 2.00  -474.2148)  ( 2.00  -111.4013)  ( 2.00   -23.9637)
                     ( 2.00    -3.6906)  ( 2.00    -0.2650)  ( 0.00     0.0959)
 P :1...6            ( 6.00  -457.1793)  ( 6.00  -104.1723)  ( 6.00   -20.8327)  ( 6.00    -2.5960)
                     ( 1.00    -0.0940)  ( 0.00     0.0331)
 D :1...4            (10.00   -88.3935)  (10.00   -14.0333)  (10.00    -0.6705)  ( 0.00     0.3321)
 F :1...2            (14.00    -4.8581)  ( 0.00     0.7540)

 CYCLE   16
  SDIIS (wt  1.000): -0.0000  0.0000 -0.0000 -0.0005  0.0016  0.9989
  DIIS coefficients: -0.0000  0.0000 -0.0000 -0.0005  0.0016  0.9989
 SCF Error: norm([F,P])=      0.000000001320, max([F,P])=      0.000000000267
 orbitals (Q,E):
 ---------------
 S :1...7            ( 2.00 -2829.1073)  ( 2.00  -474.2148)  ( 2.00  -111.4013)  ( 2.00   -23.9637)
                     ( 2.00    -3.6906)  ( 2.00    -0.2650)  ( 0.00     0.0959)
 P :1...6            ( 6.00  -457.1793)  ( 6.00  -104.1723)  ( 6.00   -20.8327)  ( 6.00    -2.5960)
                     ( 1.00    -0.0940)  ( 0.00     0.0331)
 D :1...4            (10.00   -88.3935)  (10.00   -14.0333)  (10.00    -0.6705)  ( 0.00     0.3321)
 F :1...2            (14.00    -4.8581)  ( 0.00     0.7540)

 SCF CONVERGED

 CYCLE   17
1
 ***************************************************************************************************



                                                *******************
                                                *  R E S U L T S  *
                                                *******************
  
 *** Setting up for NEW gradients in Focky
 *** Using FIT density in Focky

 Orbital Energies, per Irrep and Spin:
 ======================================
                        Occup              E (au)              E (eV)       Diff (eV) with prev. cycle
                        -----      --------------------        ------       --------------------------
 S
               1        2.000     -0.28291072974390E+04    -76983.927               5.82E-10
               2        2.000     -0.47421477946456E+03    -12904.041               5.57E-10
               3        2.000     -0.11140134004539E+03     -3031.385               6.19E-10
               4        2.000     -0.23963744643873E+02      -652.087               0.00E+00
               5        2.000     -0.36906261851464E+01      -100.427               4.70E-10
               6        2.000     -0.26504184885270E+00        -7.212               3.39E-10
               7        0.000      0.95917134517222E-01         2.610
               8        0.000      0.10528731136240E+01        28.650
               9        0.000      0.53245981663003E+01       144.890
              10        0.000      0.39282604730761E+02      1068.934
              11        0.000      0.12183255067898E+04     33152.324
              12        0.000      0.71805010076048E+04    195391.374
              13        0.000      0.39828877153886E+05   1083798.891
              14        0.000      0.45098109345123E+06  12271819.947
 P
               1        6.000     -0.45717926566011E+03    -12440.481               7.42E-10
               2        6.000     -0.10417228607077E+03     -2834.672               6.95E-10
               3        6.000     -0.20832715192971E+02      -566.887               7.05E-10
               4        6.000     -0.25959705734954E+01       -70.640               7.13E-10
               5        1.000     -0.93996400887404E-01        -2.558               4.62E-10
               6        0.000      0.33069816523959E-01         0.900
               7        0.000      0.36601056589503E+00         9.960
               8        0.000      0.27596046937836E+01        75.093
               9        0.000      0.19592822345258E+02       533.148
              10        0.000      0.12250229128183E+03      3333.457
              11        0.000      0.13645884484121E+04     37132.341
              12        0.000      0.17367304572329E+05    472588.403
 D
               1       10.000     -0.88393476983436E+02     -2405.309               6.93E-10
               2       10.000     -0.14033301776621E+02      -381.866               7.25E-10
               3       10.000     -0.67050206515933E+00       -18.245               7.22E-10
               4        0.000      0.33206954711440E+00         9.036
               5        0.000      0.25380070688040E+01        69.063
               6        0.000      0.16539895356853E+02       450.073
               7        0.000      0.15156981508939E+03      4124.425
 F
               1       14.000     -0.48581396387597E+01      -132.197               7.21E-10
               2        0.000      0.75404612063095E+00        20.519
               3        0.000      0.45689371656468E+01       124.327
               4        0.000      0.34505533050565E+02       938.943


 Partially Occupied:
               5 P                -0.93996400887404E-01
  
 HOMO :        6 S                -0.26504184885270E+00
 LUMO :        6 P                 0.33069816523959E-01
  


 Orbital Energies, all Irreps
 ========================================

 Irrep        no.  (spin)   Occup              E (au)                E (eV)
 ---------------------------------------------------------------------------
 S             1             2.00       -0.28291072974390E+04    -76983.9265
 S             2             2.00       -0.47421477946456E+03    -12904.0407
 P             1             6.00       -0.45717926566011E+03    -12440.4808
 S             3             2.00       -0.11140134004539E+03     -3031.3847
 P             2             6.00       -0.10417228607077E+03     -2834.6721
 D             1            10.00       -0.88393476983436E+02     -2405.3089
 S             4             2.00       -0.23963744643873E+02      -652.0867
 P             3             6.00       -0.20832715192971E+02      -566.8870
 D             2            10.00       -0.14033301776621E+02      -381.8656
 F             1            14.00       -0.48581396387597E+01      -132.1967
 S             5             2.00       -0.36906261851464E+01      -100.4270
 P             4             6.00       -0.25959705734954E+01       -70.6400
 D             3            10.00       -0.67050206515933E+00       -18.2453
 S             6             2.00       -0.26504184885270E+00        -7.2122
 P             5             1.00       -0.93996400887404E-01        -2.5578
 P             6             0.00        0.33069816523959E-01         0.8999
 S             7             0.00        0.95917134517222E-01         2.6100
 D             4             0.00        0.33206954711440E+00         9.0361
 P             7             0.00        0.36601056589503E+00         9.9597
 F             2             0.00        0.75404612063095E+00        20.5186
 S             8             0.00        0.10528731136240E+01        28.6501
 D             5             0.00        0.25380070688040E+01        69.0627
 P             8             0.00        0.27596046937836E+01        75.0927
 F             3             0.00        0.45689371656468E+01       124.3271
 S             9             0.00        0.53245981663003E+01       144.8897
 D             6             0.00        0.16539895356853E+02       450.0735
 P             9             0.00        0.19592822345258E+02       533.1478
 F             4             0.00        0.34505533050565E+02       938.9433
 S            10             0.00        0.39282604730761E+02      1068.9341
 P            10             0.00        0.12250229128183E+03      3333.4570
 D             7             0.00        0.15156981508939E+03      4124.4245
 S            11             0.00        0.12183255067898E+04     33152.3238
 P            11             0.00        0.13645884484121E+04     37132.3410
 S            12             0.00        0.71805010076048E+04    195391.3740
 P            12             0.00        0.17367304572329E+05    472588.4029
 S            13             0.00        0.39828877153886E+05   1083798.8914
 S            14             0.00        0.45098109345123E+06  12271819.9474


 All Electron Calculation, thus no Orbital Energies of the Core Orbitals are calculated



 =======================================
 M U L L I K E N   P O P U L A T I O N S
 =======================================
  
 The survey below gives for each atom:
 a) the total charge (Z minus electrons)
 b) the net spin polarization (nr of electrons spin-A minus spin-B)
 c) for each spin the atomic electron valence density (integrated) per L-value.

 Atom              Charge    Spin density          S         P         D         F
 ----              ------    ------------       ------    ------    ------    ------
 1 Tl             -0.0000                      12.0000   25.0000   30.0000   14.0000

 Populations of individual BAS functions
 ----------------------------------------
 1 Tl           0.0001 -0.0103  1.6859  0.2258 -0.6630  2.6691  1.7228  0.9877  1.6679  0.8008
                0.8331  0.5740  1.1357  0.3705  0.0001  0.0001  0.0001  0.0385  0.0385  0.0385
                1.9282  1.9282  1.9282  1.1659  1.1659  1.1659  0.7855  0.7855  0.7855  0.9935
                0.9935  0.9935  1.0970  1.0970  1.0970  1.2647  1.2647  1.2647  0.7357  0.7357
                0.7357  0.1163  0.1163  0.1163  0.1798  0.1798  0.1798  0.0282  0.0282  0.0282
                0.4537  0.6806  0.6806  0.4537  0.6806  0.4537  0.8857  1.3286  1.3286  0.8857
                1.3286  0.8857  0.7953  1.1929  1.1929  0.7953  1.1929  0.7953  0.5527  0.8290
                0.8290  0.5527  0.8290  0.5527  0.5975  0.8962  0.8962  0.5975  0.8962  0.5975
                0.6390  0.9584  0.9584  0.6390  0.9584  0.6390  0.0762  0.1143  0.1143  0.0762
                0.1143  0.0762  0.1780  0.3560  0.3560  0.3560  0.4451  0.3560  0.1780  0.3560
                0.3560  0.1780  0.4990  0.9980  0.9980  0.9980  1.2474  0.9980  0.4990  0.9980
                0.9980  0.4990  0.1231  0.2463  0.2463  0.2463  0.3078  0.2463  0.1231  0.2463
                0.2463  0.1231 -0.0001 -0.0003 -0.0003 -0.0003 -0.0003 -0.0003 -0.0001 -0.0003
               -0.0003 -0.0001

 Gross Charges per Atom (Z minus electrons)
 ==========================================
            -0.0000
 Net Total: -0.00000000



 =======================================================================
 Electrostatic potential at the Nuclei due to electrons and other nuclei
 =======================================================================
  
         Atom                  Potential
         ----                  ---------
     1)   Tl                558.30842983
 
 
 ========================
 No memory problems found
 ========================
 
 Maximum number of active allocate calls:         447
 
 *******************************************************************************

                             A D F   E X I T
 NORMAL TERMINATION



 =================
 Timing Statistics
 =================
  
 Total Used :                     CPU=        2.91      System=        0.03     Elapsed=        2.94

 Calls  Section                     ( Mean, Percentage )
 ---------------------------------------------------------------------------------------------------
     3  ><      ................      0.00    0.00             0.00    0.00             0.00    0.02
     1  INIT    ................      0.01    0.34             0.01   43.75             0.03    0.88
     1  GEOMET  ................      0.01    0.21             0.00    9.37             0.01    0.31
     1  INPUTA  ................      0.00    0.07             0.00    3.13             0.00    0.08
     1  MAINSY  ................      0.00    0.17             0.00    0.00             0.01    0.17
     1  SYMFIT  ................      0.00    0.00             0.00    0.00             0.00    0.03
     1  CORORT  ................      0.00    0.03             0.00    0.00             0.00    0.01
     1  SYMORB  ................      0.00    0.03             0.00    0.00             0.00    0.04
     1  CLSMAT  ................      0.00    0.17             0.00    0.00             0.01    0.19
     1  ORTHON  ................      0.00    0.07             0.00    3.13             0.00    0.10
     1  GENPT   ................      0.05    1.58             0.00    0.00             0.05    1.54
     1  PTBAS   ................      0.01    0.17             0.00    0.00             0.01    0.18
    17  FOCKY   ................      0.15   90.11             0.00   28.13             0.15   89.28
    17  FOCKTR  ................      0.00    0.58             0.00    3.12             0.00    0.62
    17  SDIIS   ................      0.00    0.89             0.00    6.25             0.00    0.99
     1  COREPS  ................      0.13    4.53             0.00    0.00             0.13    4.49
     1  POPAN   ................      0.00    0.17             0.00    0.00             0.01    0.19
     1  DEBYE   ................      0.00    0.07             0.00    0.00             0.00    0.07
     1  EXIT PROCEDURE .........      0.02    0.79             0.00    3.13             0.02    0.82


 Currently Open Files (EXIT00)
 ====================

 Unit    Access Format  Status   Type       Ident (file)
 -------------------------------------------------------
   3      SEQ    FORM   TRANSP  NORMAL      LOGFILE
                                          ( logfile )


 Buffered I/O statistics
 =======================
 Memory available:                     67108864
 Number of records fitting in memory:     16131
 Input :   0.1% of                        36180  *4k bytes
 Output:   8.3% of                         2325  *4k bytes
 Records from serial files evicted:           0
                    others evicted:           0
 Hash table lookups:      95628 with          0 conflicts (  0.00%)

 ***************************************************************************************************
 (LOGFILE)
 <May18-2019> <16:02:14>  ADF 2017  RunTime: May18-2019 16:02:14  Nodes: 1  Procs: 1
 <May18-2019> <16:02:14>  Thallium (TZ2P, all electron)
 <May18-2019> <16:02:14>  RunType   : CREATE
 <May18-2019> <16:02:14>  Net Charge: 0 (Nuclei minus Electrons)
 <May18-2019> <16:02:14>  Symmetry  : ATOM
  Coordinates
    Atom         X           Y           Z   (Angstrom)
    1.Tl        0.000000    0.000000    0.000000
 <May18-2019> <16:02:14>  >>>> CORORT
 <May18-2019> <16:02:14>  >>>> CLSMAT
 <May18-2019> <16:02:14>  >>>> ORTHON
 <May18-2019> <16:02:14>  >>>> GENPT
 <May18-2019> <16:02:14>  Block Length= 113
 <May18-2019> <16:02:14>  >>>> PTBAS
 <May18-2019> <16:02:14>  >>>> CYCLE
 <May18-2019> <16:02:15>              |Error|         MaxErr       Wt(A-DIIS)
 <May18-2019> <16:02:15>      1      0.00000000      0.00000000
 <May18-2019> <16:02:15>      2    581.67968597    123.10136995    100.0
 <May18-2019> <16:02:15>      3    248.64901402     49.97894763    100.0
 <May18-2019> <16:02:15>      4     41.69696785      6.89497270    100.0
 <May18-2019> <16:02:15>      5     67.06007894     13.75740355    100.0
 <May18-2019> <16:02:15>      6     19.04662305      3.41153887    100.0
 <May18-2019> <16:02:15>      7     22.03870326      4.07991712    100.0
 <May18-2019> <16:02:15>      8      0.82498183      0.13533088    100.0
 <May18-2019> <16:02:16>      9      1.28046137      0.21007616    100.0
 <May18-2019> <16:02:16>     10      0.12093109      0.02273966     22.0
 <May18-2019> <16:02:16>     11      0.04054842      0.00635747      5.4
 <May18-2019> <16:02:16>     12      0.00288825      0.00053217      0.0
 <May18-2019> <16:02:16>     13      0.00009159      0.00002065      0.0
 <May18-2019> <16:02:16>     14      0.00000167      0.00000039      0.0
 <May18-2019> <16:02:16>     15      0.00000006      0.00000001      0.0
 <May18-2019> <16:02:17>     16      0.00000000      0.00000000      0.0
 <May18-2019> <16:02:17>  SCF converged
 <May18-2019> <16:02:17>     17      0.00000000      0.00000000      0.0
 <May18-2019> <16:02:17>  >>>> POPAN
 <May18-2019> <16:02:17>  >>>> DEBYE
 <May18-2019> <16:02:17>  NORMAL TERMINATION
 <May18-2019> <16:02:17>  END

Create O   file=TZ2P-O
XC
  GGA blyp
End
End Input

 *******************************************************************************
 *                                                                             *
 *  -------------------------------------                                      *
 *   Amsterdam Density Functional  (ADF)         2017                          *
 *  -------------------------------------                                      *
 *                                               r58813 2017-04-12             *
 *                                                                             *
 *                                                                             *
 *                              =================                              *
 *                              |               |                              *
 *                              |     A D F     |                              *
 *                              |               |                              *
 *                              =================                              *
 *                                                                             *
 *                                                                             *
 *   Online information and documentation:  https://www.scm.com/support/       *
 *   E-mail:  support@scm.com   info@scm.com                                   *
 *                                                                             *
 *   Scientific publications using ADF results must be properly referenced     *
 *   See the User Manuals (or the web site) for recommended citations          *
 *   The terms and conditions of the End User License Agreement apply to       *
 *   the use of ADF, https://www.scm.com/license-terms/                        *
 *                                                                             *
 **********************  x86_64_linux_intel / intelmpi  ************************
 
 Licensed to: VU/FEW (+ SARA) / ALGEMEEN / Amsterdam / THE NETHERLANDS
 SCM User ID: u7668
  
 ADF 2017  RunTime: May18-2019 16:02:17  Nodes: 1  Procs: 1

 Temporary files are created in /local/datastore0/tcst25/190692/kid_0.VNacYw

 Oxygen (TZ2P)



 ===========================
 A T T A C H E D   F I L E S
 ===========================
  
 CREATE - Data File:    TZ2P-O
                        Oxygen (TZ2P)



 ===============================
 M O D E L   P A R A M E T E R S
 ===============================
  
 DENSITY FUNCTIONAL POTENTIAL (scf)
    LDA:                               Exchange only                           == Not Default ==
    Gradient Corrections:              Becke88 LYP                             == Not Default ==

 SPIN  (restricted / unrestr.)
    Molecule:                          Restricted                               

 OTHER ASPECTS
    Relativistic Corrections:          ---                                      

    Nuclear Charge Density Model:      Point Charge Nuclei                      
    Core Treatment:                    Frozen Orbital(s)                        

    Hyperfine or Zeeman Interaction:   ---                                      



 =====================================
 S Y M M E T R Y ,   E L E C T R O N S
 =====================================
  
 Symmetry: ATOM

 Irreducible Representations, including subspecies
 -------------------------------------------------
 S
 P:x  P:y  P:z
 D:z2  D:x2-y2  D:xy  D:xz  D:yz
 F:z3  F:z  F:xyz  F:z2x  F:z2y  F:x  F:y


 Configuration of Valence Electrons
 ==================================

          Occupation Numbers
          -------------------------------------------------
 S        2*2
 P        4
 D        0
 F        0
          -------------------------------------------------

 Total:   8

 Net Charge: 0 (Nuclei minus Electrons)

 Preset values for MO occupations will be applied through SCF cycle no. 1000000
 Thereafter, the program will assign electrons to MOs that are spatially
 similar to the occupied MOs in a "reference" cycle ("KeepOrbitals").
 The reference cycle is always the PREVIOUS cycle: it will evolve with
 the SCF procedure.



 ================================
 (Slater-type)  F U N C T I O N S  ***  (Basis and Fit)  ***
 ================================
  

 Atom Type    1  (O)
 ==============

 Valence Basis Sets:  10
 -----------------------
   1 S    9.800000
   1 S    6.800000
   2 S    7.580000
   2 S    2.880000
   2 S    1.720000
   2 P    4.080000
   2 P    2.080000
   2 P    1.120000
   3 D    2.000000
   4 F    3.000000


 BAS: List of all Elementary Cartesian Basis Functions
 =====================================================

 The numbering in the list below (to the right of the function characteristics) is referred
 to in print-outs of MO eigenvectors and Mulliken populations in the BAS representation
 (as contrasted to the SFO representation).

 Notes:
 1. The functions are characterized by a polynomial prefactor (powers of x,y,z and r) and
    an exponential decay factor alpha.
 2. Since the basis sets are specific for an atom TYPE, the individual functions occur on
    all atoms of that type.
 3. The word 'Core' in the left margin signals that it is a Core Function (CF) : not a
    degree of freedom in the valence set, but only used to ensure orthogonalization of
    the other valence basis functions on the frozen Core Orbitals.


 (power of) X  Y  Z  R     Alpha  on Atom
            ==========     =====     ==========

 O                                    1
                                  ---------------------------------------------------------------------------
            0  0  0  0     9.800      1
            0  0  0  0     6.800      2
            0  0  0  1     7.580      3
            0  0  0  1     2.880      4
            0  0  0  1     1.720      5
            1  0  0  0     4.080      6
            0  1  0  0     4.080      7
            0  0  1  0     4.080      8
            1  0  0  0     2.080      9
            0  1  0  0     2.080     10
            0  0  1  0     2.080     11
            1  0  0  0     1.120     12
            0  1  0  0     1.120     13
            0  0  1  0     1.120     14
            2  0  0  0     2.000     15
            1  1  0  0     2.000     16
            1  0  1  0     2.000     17
            0  2  0  0     2.000     18
            0  1  1  0     2.000     19
            0  0  2  0     2.000     20
            3  0  0  0     3.000     21
            2  1  0  0     3.000     22
            2  0  1  0     3.000     23
            1  2  0  0     3.000     24
            1  1  1  0     3.000     25
            1  0  2  0     3.000     26
            0  3  0  0     3.000     27
            0  2  1  0     3.000     28
            0  1  2  0     3.000     29
            0  0  3  0     3.000     30

 Total number of charge fitting functions (nprimf)        84
 Total number of Cartesian basis functions (naos)         30
 Total number of Cartesian core functions  (ncos)          0



 BAS: List of all Elementary Cartesian Basis Functions
 =====================================================

 The numbering in the list below (to the right of the function characteristics) is referred
 to in print-outs of MO eigenvectors and Mulliken populations in the BAS representation
 (as contrasted to the SFO representation).

 Notes:
 1. The functions are characterized by a polynomial prefactor (powers of x,y,z and r) and
    an exponential decay factor alpha.
 2. Since the basis sets are specific for an atom TYPE, the individual functions occur on
    all atoms of that type.
 3. The word 'Core' in the left margin signals that it is a Core Function (CF) : not a
    degree of freedom in the valence set, but only used to ensure orthogonalization of
    the other valence basis functions on the frozen Core Orbitals.


 (power of) X  Y  Z  R     Alpha  on Atom
            ==========     =====     ==========

 O                                    1
                                  ---------------------------------------------------------------------------
            0  0  0  0     9.800      1
            0  0  0  0     6.800      2
            0  0  0  1     7.580      3
            0  0  0  1     2.880      4
            0  0  0  1     1.720      5
            1  0  0  0     4.080      6
            0  1  0  0     4.080      7
            0  0  1  0     4.080      8
            1  0  0  0     2.080      9
            0  1  0  0     2.080     10
            0  0  1  0     2.080     11
            1  0  0  0     1.120     12
            0  1  0  0     1.120     13
            0  0  1  0     1.120     14
            2  0  0  0     2.000     15
            1  1  0  0     2.000     16
            1  0  1  0     2.000     17
            0  2  0  0     2.000     18
            0  1  1  0     2.000     19
            0  0  2  0     2.000     20
            3  0  0  0     3.000     21
            2  1  0  0     3.000     22
            2  0  1  0     3.000     23
            1  2  0  0     3.000     24
            1  1  1  0     3.000     25
            1  0  2  0     3.000     26
            0  3  0  0     3.000     27
            0  2  1  0     3.000     28
            0  1  2  0     3.000     29
            0  0  3  0     3.000     30
1
 ***************************************************************************************************



                                              ***********************
                                              *  T E C H N I C A L  *
                                              ***********************
  



 =============================================================
 P A R A L L E L I Z A T I O N  and  V E C T O R I Z A T I O N
 =============================================================
  
 Nr of parallel processes:                                1
 Maximum vector length in NumInt loops:                 128

 IO buffersize (Mb):                                     64.000000



 =====================
 S C F   U P D A T E S
 =====================
  
 Max. nr. of cycles:                               300
 Convergence criterion:                              0.0000000100
   secondary criterion:                              0.0000000100

 Mix parameter (when DIIS does not apply):           0.2000000000
 Special mix parameter for the first cycle:          1.0000000000
 Mixed ADIIS+DIIS will be used
    Max number of expansion vectors:                10
    Pure ADIIS when Max([F,P]) is above              0.1000000000
    Pure DIIS when Max([F,P]) is below               0.0010000000
 Automatic ElectronSmearing (in case of problematic SCF convergence) disabled



 =================
 P R E C I S I O N  ***  (General: NumInt, NeglectFunctionTails, ...)  ***
 =================
  

 NumInt:           Target precision:                12.0000000000
 -------           Initial precision:               10.0000000000
                   Min. precision (optimization):   10.0000000000

 Neglect Functions:          Basis functions:        0.1000000000E-13
 ------------------          Fit functions:          0.1000000000E-13



 ===========================
 L I N E A R   S C A L I N G
 ===========================
  

 Cut-off radii density fit:                        0.1000000000E-97
 Overlap cut-off criterion AO matrix elements:     0.1000000000E-97
 Cut-offs for Coulomb potential and fitted density:0.1000000000E-97
 Cut-off criterion for Coulomb multipole terms:    0.1000000000E-97
 Progressive Convergence parameter:                 0.000000000    
1
 ***************************************************************************************************



                                            ***************************
                                            *  C O M P U T A T I O N  *
                                            ***************************
  

 Number of elements of the density matrix on this node (used, total):       465       465



 ===========================================
 Numerical Integration : Fuzzy Cells (Becke)
 ===========================================
  
 Becke grid quality: VERYGOOD       
  
 Lebedev angular grid order:             min:  13 max:  41
 Nr. of radial points:                   min:  68 max:  68

 Total nr. of points:         68
 Nr. of blocks:                1
 Block length:                68
 Nr. of dummy points:          0


 Test of Precision of the Numerical Integration Grid
 ===================================================

 Integral of the Total Core Density:                   0.00000000000000



 ========================
 Density Fitting (zlmFit)
 ========================
  
 ZlmFit Fit Quality: VERYGOOD       
  
 Max L-expansion:                        min:   0 max:   0
 Nr. of radial interpolation points:     min: 180 max: 180



 =====
 S C F  ***  ScaSCF  ***
 =====
  

 CYCLE    1
 SCF Error: norm([F,P])=      0.000000000000, max([F,P])=      0.000000000000
 orbitals (Q,E):
 ---------------
 S :1...5            ( 2.00   -31.9999)  ( 2.00    -7.9363)  ( 0.00    -3.4636)  ( 0.00     4.3191)
                     ( 0.00   110.5486)
 P :1...3            ( 4.00    -7.9991)  ( 0.00    -3.4855)  ( 0.00    -1.8903)
 D :1...1            ( 0.00    -3.3333)
 F :1...1            ( 0.00    -1.5000)

 CYCLE    2
  SDIIS (wt  0.000):  1.0000  0.0000
 A-DIIS (wt  1.000):  0.0000  1.0000
  DIIS coefficients:  0.0000  1.0000
 SCF Error: norm([F,P])=      8.765745414074, max([F,P])=      5.518031311555
 orbitals (Q,E):
 ---------------
 S :1...3            ( 2.00   -14.5579)  ( 2.00    -0.0124)  ( 0.00     1.8192)
 P :1...2            ( 4.00     0.2183)  ( 0.00     1.2385)
 D :1...1            ( 0.00     1.5388)
 F :1...1            ( 0.00     3.9464)

 CYCLE    3
  SDIIS (wt  0.000):  0.2278  0.7722
 A-DIIS (wt  1.000):  0.3148  0.6852
  DIIS coefficients:  0.3148  0.6852
 SCF Error: norm([F,P])=      3.585499450444, max([F,P])=      2.499410108106
 orbitals (Q,E):
 ---------------
 S :1...3            ( 2.00   -19.8063)  ( 2.00    -1.5198)  ( 0.00     0.3996)
 P :1...2            ( 4.00    -0.9763)  ( 0.00     0.1325)
 D :1...1            ( 0.00     0.6540)
 F :1...1            ( 0.00     2.8642)

 CYCLE    4
  SDIIS (wt  0.000): -0.0456  0.1707  0.8749
 A-DIIS (wt  1.000):  0.0000  0.0000  1.0000
  DIIS coefficients:  0.0000  0.0000  1.0000
 SCF Error: norm([F,P])=      1.147919112368, max([F,P])=      0.583019620058
 orbitals (Q,E):
 ---------------
 S :1...3            ( 2.00   -18.0523)  ( 2.00    -0.5465)  ( 0.00     1.0349)
 P :1...2            ( 4.00    -0.0477)  ( 0.00     0.5307)
 D :1...1            ( 0.00     1.2443)
 F :1...1            ( 0.00     3.5731)

 CYCLE    5
  SDIIS (wt  0.000): -0.0195 -0.0760  0.5845  0.5110
 A-DIIS (wt  1.000):  0.0000  0.0000  0.6414  0.3586
  DIIS coefficients:  0.0000  0.0000  0.6414  0.3586
 SCF Error: norm([F,P])=      1.519585468023, max([F,P])=      0.840542006159
 orbitals (Q,E):
 ---------------
 S :1...3            ( 2.00   -18.8182)  ( 2.00    -0.8502)  ( 0.00     0.8091)
 P :1...2            ( 4.00    -0.3077)  ( 0.00     0.3582)
 D :1...1            ( 0.00     1.0753)
 F :1...1            ( 0.00     3.3669)

 CYCLE    6
  SDIIS (wt  0.000):  0.0038 -0.0006  0.0668 -0.0496  0.9795
 A-DIIS (wt  1.000):  0.0000  0.0000  0.0000  0.0000  1.0000
  DIIS coefficients:  0.0000  0.0000  0.0000  0.0000  1.0000
 SCF Error: norm([F,P])=      0.178828926625, max([F,P])=      0.104242033505
 orbitals (Q,E):
 ---------------
 S :1...3            ( 2.00   -19.0541)  ( 2.00    -0.9245)  ( 0.00     0.7610)
 P :1...2            ( 4.00    -0.3806)  ( 0.00     0.3267)
 D :1...1            ( 0.00     1.0451)
 F :1...1            ( 0.00     3.3284)

 CYCLE    7
  SDIIS (wt  0.000): -0.0003  0.0004 -0.0182  0.0130  0.4190  0.5861
 A-DIIS (wt  1.000):  0.0000  0.0000  0.0000  0.0000  0.5807  0.4193
  DIIS coefficients:  0.0000  0.0000  0.0000  0.0000  0.5807  0.4193
 SCF Error: norm([F,P])=      0.200125290981, max([F,P])=      0.113649127568
 orbitals (Q,E):
 ---------------
 S :1...3            ( 2.00   -18.9379)  ( 2.00    -0.8781)  ( 0.00     0.7909)
 P :1...2            ( 4.00    -0.3354)  ( 0.00     0.3452)
 D :1...1            ( 0.00     1.0687)
 F :1...1            ( 0.00     3.3572)

 CYCLE    8
  SDIIS (wt  0.910): -0.0000  0.0002  0.0044 -0.0011 -0.0192 -0.1454  1.1612
 A-DIIS (wt  0.090):  0.0000  0.0000  0.0000  0.0000  0.0000  0.0000  1.0000
  DIIS coefficients: -0.0000  0.0002  0.0040 -0.0010 -0.0175 -0.1323  1.1466
 SCF Error: norm([F,P])=      0.016951777154, max([F,P])=      0.009947196225
 orbitals (Q,E):
 ---------------
 S :1...3            ( 2.00   -18.9255)  ( 2.00    -0.8739)  ( 0.00     0.7936)
 P :1...2            ( 4.00    -0.3314)  ( 0.00     0.3469)
 D :1...1            ( 0.00     1.0707)
 F :1...1            ( 0.00     3.3597)

 CYCLE    9
  SDIIS (wt  1.000): -0.0000  0.0000  0.0000 -0.0001  0.0003  0.0067  0.0145  0.9786
  DIIS coefficients: -0.0000  0.0000  0.0000 -0.0001  0.0003  0.0067  0.0145  0.9786
 SCF Error: norm([F,P])=      0.001748429776, max([F,P])=      0.000984374869
 orbitals (Q,E):
 ---------------
 S :1...3            ( 2.00   -18.9266)  ( 2.00    -0.8743)  ( 0.00     0.7933)
 P :1...2            ( 4.00    -0.3318)  ( 0.00     0.3467)
 D :1...1            ( 0.00     1.0705)
 F :1...1            ( 0.00     3.3595)

 CYCLE   10
  SDIIS (wt  1.000): -0.0000 -0.0000 -0.0000 -0.0000  0.0000  0.0001 -0.0011 -0.0034  1.0043
  DIIS coefficients: -0.0000 -0.0000 -0.0000 -0.0000  0.0000  0.0001 -0.0011 -0.0034  1.0043
 SCF Error: norm([F,P])=      0.000001425642, max([F,P])=      0.000000713875
 orbitals (Q,E):
 ---------------
 S :1...3            ( 2.00   -18.9266)  ( 2.00    -0.8743)  ( 0.00     0.7933)
 P :1...2            ( 4.00    -0.3318)  ( 0.00     0.3467)
 D :1...1            ( 0.00     1.0705)
 F :1...1            ( 0.00     3.3595)

 CYCLE   11
  SDIIS (wt  1.000):  0.0000 -0.0000 -0.0000 -0.0001 -0.0046  1.0047
  DIIS coefficients:  0.0000 -0.0000 -0.0000 -0.0001 -0.0046  1.0047
 SCF Error: norm([F,P])=      0.000000048697, max([F,P])=      0.000000022967
 orbitals (Q,E):
 ---------------
 S :1...3            ( 2.00   -18.9266)  ( 2.00    -0.8743)  ( 0.00     0.7933)
 P :1...2            ( 4.00    -0.3318)  ( 0.00     0.3467)
 D :1...1            ( 0.00     1.0705)
 F :1...1            ( 0.00     3.3595)

 CYCLE   12
  SDIIS (wt  1.000):  0.0000  0.0003  0.0049  0.9947
  DIIS coefficients:  0.0000  0.0003  0.0049  0.9947
 SCF Error: norm([F,P])=      0.000000002390, max([F,P])=      0.000000001167
 orbitals (Q,E):
 ---------------
 S :1...3            ( 2.00   -18.9266)  ( 2.00    -0.8743)  ( 0.00     0.7933)
 P :1...2            ( 4.00    -0.3318)  ( 0.00     0.3467)
 D :1...1            ( 0.00     1.0705)
 F :1...1            ( 0.00     3.3595)

 SCF CONVERGED

 CYCLE   13
1
 ***************************************************************************************************



                                                *******************
                                                *  R E S U L T S  *
                                                *******************
  
 *** Setting up for NEW gradients in Focky
 *** Using FIT density in Focky

 Orbital Energies, per Irrep and Spin:
 ======================================
                        Occup              E (au)              E (eV)       Diff (eV) with prev. cycle
                        -----      --------------------        ------       --------------------------
 S
               1        2.000     -0.18926622910087E+02      -515.020               5.76E-10
               2        2.000     -0.87432318445325E+00       -23.792               3.90E-10
               3        0.000      0.79334608634543E+00        21.588
               4        0.000      0.13459763470974E+02       366.259
               5        0.000      0.12310776301324E+03      3349.933
 P
               1        4.000     -0.33177161342560E+00        -9.028               3.71E-10
               2        0.000      0.34673871865825E+00         9.435
               3        0.000      0.38246989192600E+01       104.075
 D
               1        0.000      0.10704889823391E+01        29.129
 F
               1        0.000      0.33594552407685E+01        91.415


 Partially Occupied:
               1 P                -0.33177161342560E+00
  
 HOMO :        2 S                -0.87432318445325E+00
 LUMO :        2 P                 0.34673871865825E+00
  


 Orbital Energies, all Irreps
 ========================================

 Irrep        no.  (spin)   Occup              E (au)                E (eV)
 ---------------------------------------------------------------------------
 S             1             2.00       -0.18926622910087E+02      -515.0196
 S             2             2.00       -0.87432318445325E+00       -23.7915
 P             1             4.00       -0.33177161342560E+00        -9.0280
 P             2             0.00        0.34673871865825E+00         9.4352
 S             3             0.00        0.79334608634543E+00        21.5880
 D             1             0.00        0.10704889823391E+01        29.1295
 F             1             0.00        0.33594552407685E+01        91.4154
 P             3             0.00        0.38246989192600E+01       104.0754
 S             4             0.00        0.13459763470974E+02       366.2588
 S             5             0.00        0.12310776301324E+03      3349.9327


 All Electron Calculation, thus no Orbital Energies of the Core Orbitals are calculated



 =======================================
 M U L L I K E N   P O P U L A T I O N S
 =======================================
  
 The survey below gives for each atom:
 a) the total charge (Z minus electrons)
 b) the net spin polarization (nr of electrons spin-A minus spin-B)
 c) for each spin the atomic electron valence density (integrated) per L-value.

 Atom              Charge    Spin density          S         P         D         F
 ----              ------    ------------       ------    ------    ------    ------
 1 O               0.0000                       4.0000    4.0000    0.0000    0.0000

 Populations of individual BAS functions
 ----------------------------------------
 1 O            0.6447  1.3214  0.0008  1.1425  0.8905  0.2537  0.2537  0.2537  0.7364  0.7364
                0.7364  0.3432  0.3432  0.3432  0.0000  0.0000  0.0000  0.0000  0.0000  0.0000
                0.0000  0.0000  0.0000  0.0000  0.0000  0.0000  0.0000  0.0000  0.0000  0.0000

 Gross Charges per Atom (Z minus electrons)
 ==========================================
             0.0000
 Net Total:  0.00000000



 =======================================================================
 Electrostatic potential at the Nuclei due to electrons and other nuclei
 =======================================================================
  
         Atom                  Potential
         ----                  ---------
     1)   O                  22.23872615
 
 
 ========================
 No memory problems found
 ========================
 
 Maximum number of active allocate calls:         447
 
 *******************************************************************************

                             A D F   E X I T
 NORMAL TERMINATION



 =================
 Timing Statistics
 =================
  
 Total Used :                     CPU=        0.53      System=        0.03     Elapsed=        0.56

 Calls  Section                     ( Mean, Percentage )
 ---------------------------------------------------------------------------------------------------
     3  ><      ................      0.00    0.00             0.00    0.00             0.00    0.09
     1  INIT    ................      0.01    1.32             0.02   65.39             0.03    4.58
     1  GEOMET  ................      0.01    1.32             0.00    7.69             0.01    1.55
     1  INPUTA  ................      0.00    0.38             0.00    0.00             0.00    0.35
     1  MAINSY  ................      0.00    0.75             0.00    3.84             0.00    0.89
     1  SYMFIT  ................      0.00    0.19             0.00    0.00             0.00    0.14
     1  CORORT  ................      0.00    0.00             0.00    0.00             0.00    0.05
     1  SYMORB  ................      0.00    0.19             0.00    0.00             0.00    0.19
     1  CLSMAT  ................      0.01    1.13             0.00    0.00             0.01    0.97
     1  ORTHON  ................      0.00    0.38             0.00    0.00             0.00    0.34
     1  GENPT   ................      0.01    2.83             0.00    0.00             0.01    2.69
     1  PTBAS   ................      0.00    0.57             0.00    0.00             0.00    0.64
    13  FOCKY   ................      0.03   75.85             0.00   11.54             0.03   72.91
    13  FOCKTR  ................      0.00    1.89             0.00    3.85             0.00    2.17
    13  SDIIS   ................      0.00    4.34             0.00    3.85             0.00    3.92
     1  COREPS  ................      0.02    4.34             0.00    0.00             0.02    4.14
     1  POPAN   ................      0.00    0.94             0.00    0.00             0.01    0.95
     1  DEBYE   ................      0.00    0.19             0.00    0.00             0.00    0.10
     1  EXIT PROCEDURE .........      0.02    3.40             0.00    3.84             0.02    3.33


 Currently Open Files (EXIT00)
 ====================

 Unit    Access Format  Status   Type       Ident (file)
 -------------------------------------------------------
   3      SEQ    FORM   TRANSP  NORMAL      LOGFILE
                                          ( logfile )


 Buffered I/O statistics
 =======================
 Memory available:                     67108864
 Number of records fitting in memory:     16131
 Input :   0.1% of                        27833  *4k bytes
 Output:  13.5% of                         1390  *4k bytes
 Records from serial files evicted:           0
                    others evicted:           0
 Hash table lookups:      71898 with          0 conflicts (  0.00%)

 ***************************************************************************************************
 (LOGFILE)
 <May18-2019> <16:02:14>  ADF 2017  RunTime: May18-2019 16:02:14  Nodes: 1  Procs: 1
 <May18-2019> <16:02:14>  Thallium (TZ2P, all electron)
 <May18-2019> <16:02:14>  RunType   : CREATE
 <May18-2019> <16:02:14>  Net Charge: 0 (Nuclei minus Electrons)
 <May18-2019> <16:02:14>  Symmetry  : ATOM
  Coordinates
    Atom         X           Y           Z   (Angstrom)
    1.Tl        0.000000    0.000000    0.000000
 <May18-2019> <16:02:14>  >>>> CORORT
 <May18-2019> <16:02:14>  >>>> CLSMAT
 <May18-2019> <16:02:14>  >>>> ORTHON
 <May18-2019> <16:02:14>  >>>> GENPT
 <May18-2019> <16:02:14>  Block Length= 113
 <May18-2019> <16:02:14>  >>>> PTBAS
 <May18-2019> <16:02:14>  >>>> CYCLE
 <May18-2019> <16:02:15>              |Error|         MaxErr       Wt(A-DIIS)
 <May18-2019> <16:02:15>      1      0.00000000      0.00000000
 <May18-2019> <16:02:15>      2    581.67968597    123.10136995    100.0
 <May18-2019> <16:02:15>      3    248.64901402     49.97894763    100.0
 <May18-2019> <16:02:15>      4     41.69696785      6.89497270    100.0
 <May18-2019> <16:02:15>      5     67.06007894     13.75740355    100.0
 <May18-2019> <16:02:15>      6     19.04662305      3.41153887    100.0
 <May18-2019> <16:02:15>      7     22.03870326      4.07991712    100.0
 <May18-2019> <16:02:15>      8      0.82498183      0.13533088    100.0
 <May18-2019> <16:02:16>      9      1.28046137      0.21007616    100.0
 <May18-2019> <16:02:16>     10      0.12093109      0.02273966     22.0
 <May18-2019> <16:02:16>     11      0.04054842      0.00635747      5.4
 <May18-2019> <16:02:16>     12      0.00288825      0.00053217      0.0
 <May18-2019> <16:02:16>     13      0.00009159      0.00002065      0.0
 <May18-2019> <16:02:16>     14      0.00000167      0.00000039      0.0
 <May18-2019> <16:02:16>     15      0.00000006      0.00000001      0.0
 <May18-2019> <16:02:17>     16      0.00000000      0.00000000      0.0
 <May18-2019> <16:02:17>  SCF converged
 <May18-2019> <16:02:17>     17      0.00000000      0.00000000      0.0
 <May18-2019> <16:02:17>  >>>> POPAN
 <May18-2019> <16:02:17>  >>>> DEBYE
 <May18-2019> <16:02:17>  NORMAL TERMINATION
 <May18-2019> <16:02:17>  END
 <May18-2019> <16:02:17>  ADF 2017  RunTime: May18-2019 16:02:17  Nodes: 1  Procs: 1
 <May18-2019> <16:02:17>  Oxygen (TZ2P)
 <May18-2019> <16:02:17>  RunType   : CREATE
 <May18-2019> <16:02:17>  Net Charge: 0 (Nuclei minus Electrons)
 <May18-2019> <16:02:17>  Symmetry  : ATOM
  Coordinates
    Atom         X           Y           Z   (Angstrom)
    1.O         0.000000    0.000000    0.000000
 <May18-2019> <16:02:17>  >>>> CORORT
 <May18-2019> <16:02:17>  >>>> CLSMAT
 <May18-2019> <16:02:17>  >>>> ORTHON
 <May18-2019> <16:02:17>  >>>> GENPT
 <May18-2019> <16:02:17>  Block Length=  68
 <May18-2019> <16:02:17>  >>>> PTBAS
 <May18-2019> <16:02:17>  >>>> CYCLE
 <May18-2019> <16:02:17>              |Error|         MaxErr       Wt(A-DIIS)
 <May18-2019> <16:02:17>      1      0.00000000      0.00000000
 <May18-2019> <16:02:17>      2      8.76574541      5.51803131    100.0
 <May18-2019> <16:02:17>      3      3.58549945      2.49941011    100.0
[...]
 <May18-2019> <16:02:48>              |Error|         MaxErr       Wt(A-DIIS)
 <May18-2019> <16:02:48>      1      5.20149851      1.66448552
 <May18-2019> <16:02:49>      2      0.29041712      0.03866988    100.0
 <May18-2019> <16:02:50>      3      0.07594868      0.01282287    100.0
 <May18-2019> <16:02:52>      4      0.09696465      0.01274590    100.0
 <May18-2019> <16:02:53>      5      0.07627454      0.01132023     10.4
 <May18-2019> <16:02:54>      6      0.00454916      0.00060556      0.0
 <May18-2019> <16:02:55>      7      0.00062149      0.00013508      0.0
 <May18-2019> <16:02:56>      8      0.00005739      0.00001087      0.0
 <May18-2019> <16:02:58>      9      0.00001639      0.00000240      0.0
 <May18-2019> <16:02:59>     10      0.00000167      0.00000026      0.0
 <May18-2019> <16:02:59>  SCF converged
 <May18-2019> <16:03:00>     11      0.00000002      0.00000000      0.0
 <May18-2019> <16:03:00>  >>>> TOTEN
 <May18-2019> <16:03:02>  >>>> POPAN
 <May18-2019> <16:03:02>  >>>> DEBYE
 <May18-2019> <16:03:02>  >>>> ENGRAD
 <May18-2019> <16:03:08>  current energy                               -1.75617803 Hartree
 <May18-2019> <16:03:08>  energy change                      -0.24370870     0.00010000    F
 <May18-2019> <16:03:08>  constrained gradient max            0.30765807     0.00010000    F
 <May18-2019> <16:03:08>  constrained gradient rms            0.12098213     0.00006667    F
 <May18-2019> <16:03:08>  gradient max                        0.30765807
 <May18-2019> <16:03:08>  gradient rms                        0.12098213
 <May18-2019> <16:03:08>  cart. step max                      0.15000000     0.01000000    F
 <May18-2019> <16:03:08>  cart. step rms                      0.07975337     0.00666667    F
  Coordinates in Geometry Cycle 3
    Atom         X           Y           Z   (Angstrom)
    1.Tl        0.000000    0.000000    0.000000
    2.C         0.000000    2.196204    0.000000
    3.O         0.000000    3.311524    0.000000
    4.C         0.000000    0.000000    2.196204
    5.O         0.000000    0.000000    3.311524
    6.C         0.000000   -2.196204    0.000000
    7.O         0.000000   -3.311524    0.000000
    8.C         0.000000    0.000000   -2.196204
    9.O         0.000000    0.000000   -3.311524
   10.C         2.196204    0.000000    0.000000
   11.O         3.311524    0.000000    0.000000
   12.C        -2.196204    0.000000    0.000000
   13.O        -3.311524    0.000000    0.000000
 <May18-2019> <16:03:08>  >>>> CORORT
 <May18-2019> <16:03:08>  >>>> CLSMAT
 <May18-2019> <16:03:08>  >>>> ORTHON
 <May18-2019> <16:03:08>  >>>> GENPT
 <May18-2019> <16:03:09>  Block Length= 126
 <May18-2019> <16:03:09>  >>>> PTBAS
 <May18-2019> <16:03:10>  >>>> CYCLE
 <May18-2019> <16:03:11>              |Error|         MaxErr       Wt(A-DIIS)
 <May18-2019> <16:03:11>      1      5.83320123      1.98140000
 <May18-2019> <16:03:12>      2      0.16092834      0.02330414    100.0
 <May18-2019> <16:03:13>      3      0.45796461      0.06470278    100.0
 <May18-2019> <16:03:15>      4      0.15599608      0.01787726     17.0
 <May18-2019> <16:03:16>      5      0.01125376      0.00137686      0.4
 <May18-2019> <16:03:17>      6      0.00244375      0.00047795      0.0
 <May18-2019> <16:03:18>      7      0.00030007      0.00004943      0.0
 <May18-2019> <16:03:19>      8      0.00005241      0.00000708      0.0
 <May18-2019> <16:03:20>      9      0.00000643      0.00000094      0.0
 <May18-2019> <16:03:20>  SCF converged
 <May18-2019> <16:03:22>     10      0.00000053      0.00000005      0.0
 <May18-2019> <16:03:22>  >>>> TOTEN
 <May18-2019> <16:03:24>  >>>> POPAN
 <May18-2019> <16:03:24>  >>>> DEBYE
 <May18-2019> <16:03:24>  >>>> ENGRAD
 <May18-2019> <16:03:29>  current energy                               -1.93875995 Hartree
 <May18-2019> <16:03:29>  energy change                      -0.18258193     0.00010000    F
 <May18-2019> <16:03:29>  constrained gradient max            0.10831890     0.00010000    F
 <May18-2019> <16:03:29>  constrained gradient rms            0.04438509     0.00006667    F
 <May18-2019> <16:03:29>  gradient max                        0.10831890
 <May18-2019> <16:03:29>  gradient rms                        0.04438509
 <May18-2019> <16:03:29>  cart. step max                      0.14927725     0.01000000    F
 <May18-2019> <16:03:29>  cart. step rms                      0.08164561     0.00666667    F
  Coordinates in Geometry Cycle 4
    Atom         X           Y           Z   (Angstrom)
    1.Tl        0.000000    0.000000    0.000000
    2.C         0.000000    2.341274    0.000000
    3.O         0.000000    3.460801    0.000000
    4.C         0.000000    0.000000    2.341274
    5.O         0.000000    0.000000    3.460801
    6.C         0.000000   -2.341274    0.000000
    7.O         0.000000   -3.460801    0.000000
    8.C         0.000000    0.000000   -2.341274
    9.O         0.000000    0.000000   -3.460801
   10.C         2.341274    0.000000    0.000000
   11.O         3.460801    0.000000    0.000000
   12.C        -2.341274    0.000000    0.000000
   13.O        -3.460801    0.000000    0.000000
 <May18-2019> <16:03:29>  >>>> CORORT
 <May18-2019> <16:03:29>  >>>> CLSMAT
 <May18-2019> <16:03:29>  >>>> ORTHON
 <May18-2019> <16:03:29>  >>>> GENPT
 <May18-2019> <16:03:30>  Block Length= 126
 <May18-2019> <16:03:30>  >>>> PTBAS
 <May18-2019> <16:03:31>  >>>> CYCLE
 <May18-2019> <16:03:32>              |Error|         MaxErr       Wt(A-DIIS)
 <May18-2019> <16:03:32>      1      4.39715494      1.47078450
 <May18-2019> <16:03:33>      2      0.08795754      0.01363908    100.0
 <May18-2019> <16:03:34>      3      0.21851822      0.03221043    100.0
 <May18-2019> <16:03:35>      4      0.04991499      0.00857526      7.7
 <May18-2019> <16:03:36>      5      0.01042616      0.00164823      0.7
 <May18-2019> <16:03:38>      6      0.00186602      0.00025201      0.0
 <May18-2019> <16:03:39>      7      0.00059628      0.00012656      0.0
 <May18-2019> <16:03:40>      8      0.00003962      0.00000410      0.0
 <May18-2019> <16:03:41>      9      0.00001036      0.00000091      0.0
 <May18-2019> <16:03:42>     10      0.00000127      0.00000018      0.0
 <May18-2019> <16:03:42>  SCF converged
 <May18-2019> <16:03:43>     11      0.00000007      0.00000001      0.0
 <May18-2019> <16:03:43>  >>>> TOTEN
 <May18-2019> <16:03:45>  >>>> POPAN
 <May18-2019> <16:03:45>  >>>> DEBYE
 <May18-2019> <16:03:45>  >>>> ENGRAD
 <May18-2019> <16:03:51>  current energy                               -2.02028624 Hartree
 <May18-2019> <16:03:51>  energy change                      -0.08152629     0.00010000    F
 <May18-2019> <16:03:51>  constrained gradient max            0.04817966     0.00010000    F
 <May18-2019> <16:03:51>  constrained gradient rms            0.01946759     0.00006667    F
 <May18-2019> <16:03:51>  gradient max                        0.04817966
 <May18-2019> <16:03:51>  gradient rms                        0.01946759
 <May18-2019> <16:03:51>  cart. step max                      0.11012338     0.01000000    F
 <May18-2019> <16:03:51>  cart. step rms                      0.06041258     0.00666667    F
  Coordinates in Geometry Cycle 5
    Atom         X           Y           Z   (Angstrom)
    1.Tl        0.000000    0.000000    0.000000
    2.C         0.000000    2.448958    0.000000
    3.O         0.000000    3.570924    0.000000
    4.C         0.000000    0.000000    2.448958
    5.O         0.000000    0.000000    3.570924
    6.C         0.000000   -2.448958    0.000000
    7.O         0.000000   -3.570924    0.000000
    8.C         0.000000    0.000000   -2.448958
    9.O         0.000000    0.000000   -3.570924
   10.C         2.448958    0.000000    0.000000
   11.O         3.570924    0.000000    0.000000
   12.C        -2.448958    0.000000    0.000000
   13.O        -3.570924    0.000000    0.000000
 <May18-2019> <16:03:51>  >>>> CORORT
 <May18-2019> <16:03:51>  >>>> CLSMAT
 <May18-2019> <16:03:51>  >>>> ORTHON
 <May18-2019> <16:03:51>  >>>> GENPT
 <May18-2019> <16:03:51>  Block Length= 128
 <May18-2019> <16:03:51>  >>>> PTBAS
 <May18-2019> <16:03:52>  >>>> CYCLE
 <May18-2019> <16:03:53>              |Error|         MaxErr       Wt(A-DIIS)
 <May18-2019> <16:03:53>      1      2.59046948      0.91872505
 <May18-2019> <16:03:54>      2      0.08456972      0.01270383    100.0
 <May18-2019> <16:03:55>      3      0.30684967      0.04713426    100.0
 <May18-2019> <16:03:56>      4      0.08329297      0.01293126     12.1
 <May18-2019> <16:03:57>      5      0.00550944      0.00112506      0.1
 <May18-2019> <16:03:58>      6      0.00256493      0.00043696      0.0
 <May18-2019> <16:03:59>      7      0.00057911      0.00006898      0.0
 <May18-2019> <16:04:00>      8      0.00003372      0.00000295      0.0
 <May18-2019> <16:04:01>      9      0.00001000      0.00000092      0.0
 <May18-2019> <16:04:01>  SCF converged
 <May18-2019> <16:04:02>     10      0.00000071      0.00000008      0.0
 <May18-2019> <16:04:02>  >>>> TOTEN
 <May18-2019> <16:04:04>  >>>> POPAN
 <May18-2019> <16:04:04>  >>>> DEBYE
 <May18-2019> <16:04:04>  >>>> ENGRAD
 <May18-2019> <16:04:09>  current energy                               -2.04372446 Hartree
 <May18-2019> <16:04:09>  energy change                      -0.02343823     0.00010000    F
 <May18-2019> <16:04:09>  constrained gradient max            0.02126592     0.00010000    F
 <May18-2019> <16:04:09>  constrained gradient rms            0.00835271     0.00006667    F
 <May18-2019> <16:04:09>  gradient max                        0.02126592
 <May18-2019> <16:04:09>  gradient rms                        0.00835271
 <May18-2019> <16:04:09>  cart. step max                      0.06428498     0.01000000    F
 <May18-2019> <16:04:09>  cart. step rms                      0.03554089     0.00666667    F
  Coordinates in Geometry Cycle 6
    Atom         X           Y           Z   (Angstrom)
    1.Tl        0.000000    0.000000    0.000000
    2.C         0.000000    2.512817    0.000000
    3.O         0.000000    3.635209    0.000000
    4.C         0.000000    0.000000    2.512817
    5.O         0.000000    0.000000    3.635209
    6.C         0.000000   -2.512817    0.000000
    7.O         0.000000   -3.635209    0.000000
    8.C         0.000000    0.000000   -2.512817
    9.O         0.000000    0.000000   -3.635209
   10.C         2.512817    0.000000    0.000000
   11.O         3.635209    0.000000    0.000000
   12.C        -2.512817    0.000000    0.000000
   13.O        -3.635209    0.000000    0.000000
 <May18-2019> <16:04:09>  >>>> CORORT
 <May18-2019> <16:04:10>  >>>> CLSMAT
 <May18-2019> <16:04:10>  >>>> ORTHON
 <May18-2019> <16:04:10>  >>>> GENPT
 <May18-2019> <16:04:10>  Block Length= 128
 <May18-2019> <16:04:10>  >>>> PTBAS
 <May18-2019> <16:04:11>  >>>> CYCLE
 <May18-2019> <16:04:12>              |Error|         MaxErr       Wt(A-DIIS)
 <May18-2019> <16:04:12>      1      1.28050402      0.46117656
 <May18-2019> <16:04:13>      2      0.05551437      0.00874395    100.0
 <May18-2019> <16:04:14>      3      0.21095118      0.03251400    100.0
 <May18-2019> <16:04:15>      4      0.05965821      0.00940923      8.5
 <May18-2019> <16:04:16>      5      0.00428322      0.00100846      0.0
 <May18-2019> <16:04:17>      6      0.00188207      0.00031980      0.0
 <May18-2019> <16:04:18>      7      0.00024989      0.00003327      0.0
 <May18-2019> <16:04:19>      8      0.00002413      0.00000213      0.0
 <May18-2019> <16:04:20>      9      0.00000530      0.00000052      0.0
 <May18-2019> <16:04:20>  SCF converged
 <May18-2019> <16:04:21>     10      0.00000034      0.00000004      0.0
 <May18-2019> <16:04:21>  >>>> TOTEN
 <May18-2019> <16:04:23>  >>>> POPAN
 <May18-2019> <16:04:23>  >>>> DEBYE
 <May18-2019> <16:04:23>  >>>> ENGRAD
 <May18-2019> <16:04:28>  current energy                               -2.04761396 Hartree
 <May18-2019> <16:04:28>  energy change                      -0.00388949     0.00010000    F
 <May18-2019> <16:04:28>  constrained gradient max            0.00646899     0.00010000    F
 <May18-2019> <16:04:28>  constrained gradient rms            0.00253919     0.00006667    F
 <May18-2019> <16:04:28>  gradient max                        0.00646899
 <May18-2019> <16:04:28>  gradient rms                        0.00253919
 <May18-2019> <16:04:28>  cart. step max                      0.02879425     0.01000000    F
 <May18-2019> <16:04:28>  cart. step rms                      0.01596732     0.00666667    F
  Coordinates in Geometry Cycle 7
    Atom         X           Y           Z   (Angstrom)
    1.Tl        0.000000    0.000000    0.000000
    2.C         0.000000    2.541593    0.000000
    3.O         0.000000    3.664004    0.000000
    4.C         0.000000    0.000000    2.541593
    5.O         0.000000    0.000000    3.664004
    6.C         0.000000   -2.541593    0.000000
    7.O         0.000000   -3.664004    0.000000
    8.C         0.000000    0.000000   -2.541593
    9.O         0.000000    0.000000   -3.664004
   10.C         2.541593    0.000000    0.000000
   11.O         3.664004    0.000000    0.000000
   12.C        -2.541593    0.000000    0.000000
   13.O        -3.664004    0.000000    0.000000
 <May18-2019> <16:04:28>  >>>> CORORT
 <May18-2019> <16:04:28>  >>>> CLSMAT
 <May18-2019> <16:04:28>  >>>> ORTHON
 <May18-2019> <16:04:28>  >>>> GENPT
 <May18-2019> <16:04:28>  Block Length= 128
 <May18-2019> <16:04:28>  >>>> PTBAS
 <May18-2019> <16:04:29>  >>>> CYCLE
 <May18-2019> <16:04:30>              |Error|         MaxErr       Wt(A-DIIS)
 <May18-2019> <16:04:30>      1      0.51566948      0.18465254
 <May18-2019> <16:04:31>      2      0.02595089      0.00412914    100.0
 <May18-2019> <16:04:32>      3      0.10013357      0.01547837    100.0
 <May18-2019> <16:04:33>      4      0.02867689      0.00452663      3.6
 <May18-2019> <16:04:34>      5      0.00234939      0.00053380      0.0
 <May18-2019> <16:04:35>      6      0.00069536      0.00011900      0.0
 <May18-2019> <16:04:36>      7      0.00010627      0.00001412      0.0
 <May18-2019> <16:04:37>      8      0.00001171      0.00000122      0.0
 <May18-2019> <16:04:38>      9      0.00000227      0.00000024      0.0
 <May18-2019> <16:04:38>  SCF converged
 <May18-2019> <16:04:39>     10      0.00000015      0.00000002      0.0
 <May18-2019> <16:04:39>  >>>> TOTEN
 <May18-2019> <16:04:41>  >>>> POPAN
 <May18-2019> <16:04:41>  >>>> DEBYE
 <May18-2019> <16:04:41>  >>>> ENGRAD
 <May18-2019> <16:04:46>  current energy                               -2.04749857 Hartree
 <May18-2019> <16:04:46>  energy change                       0.00011539     0.00010000    F
 <May18-2019> <16:04:46>  constrained gradient max            0.00017807     0.00010000    F
 <May18-2019> <16:04:46>  constrained gradient rms            0.00006994     0.00006667    F
 <May18-2019> <16:04:46>  gradient max                        0.00017807
 <May18-2019> <16:04:46>  gradient rms                        0.00006994
 <May18-2019> <16:04:46>  cart. step max                      0.00081948     0.01000000    T
 <May18-2019> <16:04:46>  cart. step rms                      0.00045457     0.00666667    T
  Coordinates in Geometry Cycle 8
    Atom         X           Y           Z   (Angstrom)
    1.Tl        0.000000    0.000000    0.000000
    2.C         0.000000    2.542413    0.000000
    3.O         0.000000    3.664823    0.000000
    4.C         0.000000    0.000000    2.542413
    5.O         0.000000    0.000000    3.664823
    6.C         0.000000   -2.542413    0.000000
    7.O         0.000000   -3.664823    0.000000
    8.C         0.000000    0.000000   -2.542413
    9.O         0.000000    0.000000   -3.664823
   10.C         2.542413    0.000000    0.000000
   11.O         3.664823    0.000000    0.000000
   12.C        -2.542413    0.000000    0.000000
   13.O        -3.664823    0.000000    0.000000
 <May18-2019> <16:04:46>  >>>> CORORT
 <May18-2019> <16:04:46>  >>>> CLSMAT
 <May18-2019> <16:04:46>  >>>> ORTHON
 <May18-2019> <16:04:46>  >>>> GENPT
 <May18-2019> <16:04:46>  Block Length= 128
 <May18-2019> <16:04:46>  >>>> PTBAS
 <May18-2019> <16:04:47>  >>>> CYCLE
 <May18-2019> <16:04:48>              |Error|         MaxErr       Wt(A-DIIS)
 <May18-2019> <16:04:48>      1      0.01398422      0.00495965
 <May18-2019> <16:04:49>      2      0.00075232      0.00011984    100.0
 <May18-2019> <16:04:50>      3      0.00292765      0.00045389    100.0
 <May18-2019> <16:04:51>      4      0.00084373      0.00013319      0.0
 <May18-2019> <16:04:52>      5      0.00007362      0.00001620      0.0
 <May18-2019> <16:04:53>      6      0.00001869      0.00000315      0.0
 <May18-2019> <16:04:54>      7      0.00000307      0.00000041      0.0
 <May18-2019> <16:04:54>  SCF converged
 <May18-2019> <16:04:55>      8      0.00000034      0.00000004      0.0
 <May18-2019> <16:04:55>  >>>> TOTEN
 <May18-2019> <16:04:57>  >>>> POPAN
 <May18-2019> <16:04:57>  >>>> DEBYE
 <May18-2019> <16:04:57>  >>>> ENGRAD
 <May18-2019> <16:05:02>  current energy                               -2.04748034 Hartree
 <May18-2019> <16:05:02>  energy change                       0.00001823     0.00010000    T
 <May18-2019> <16:05:02>  constrained gradient max            0.00000469     0.00010000    T
 <May18-2019> <16:05:02>  constrained gradient rms            0.00000184     0.00006667    T
 <May18-2019> <16:05:02>  gradient max                        0.00000469
 <May18-2019> <16:05:02>  gradient rms                        0.00000184
 <May18-2019> <16:05:02>  cart. step max                      0.00002486     0.01000000    T
 <May18-2019> <16:05:02>  cart. step rms                      0.00001376     0.00666667    T
 <May18-2019> <16:05:02>  GEOMETRY CONVERGED
 <May18-2019> <16:05:02>  Calculating Energy Terms for Final Geometry
  Coordinates in Geometry Cycle 8
    Atom         X           Y           Z   (Angstrom)
    1.Tl        0.000000    0.000000    0.000000
    2.C         0.000000    2.542413    0.000000
    3.O         0.000000    3.664823    0.000000
    4.C         0.000000    0.000000    2.542413
    5.O         0.000000    0.000000    3.664823
    6.C         0.000000   -2.542413    0.000000
    7.O         0.000000   -3.664823    0.000000
    8.C         0.000000    0.000000   -2.542413
    9.O         0.000000    0.000000   -3.664823
   10.C         2.542413    0.000000    0.000000
   11.O         3.664823    0.000000    0.000000
   12.C        -2.542413    0.000000    0.000000
   13.O        -3.664823    0.000000    0.000000
 <May18-2019> <16:05:02>  >>>> CORORT
 <May18-2019> <16:05:02>  >>>> CLSMAT
 <May18-2019> <16:05:02>  >>>> ORTHON
 <May18-2019> <16:05:02>  >>>> GENPT
 <May18-2019> <16:05:02>  Block Length= 128
 <May18-2019> <16:05:02>  >>>> PTBAS
 <May18-2019> <16:05:03>  >>>> CYCLE
 <May18-2019> <16:05:05>              |Error|         MaxErr       Wt(A-DIIS)
 <May18-2019> <16:05:05>      1      0.00000016      0.00000013
 <May18-2019> <16:05:05>      2      0.00000007      0.00000001    100.0
 <May18-2019> <16:05:06>  SCF converged
 <May18-2019> <16:05:06>      3      0.00000014      0.00000003    100.0
 <May18-2019> <16:05:07>  >>>> TOTEN
 <May18-2019> <16:05:10>  >>>> POPAN
 <May18-2019> <16:05:10>  >>>> DEBYE
 <May18-2019> <16:05:10>  >>>> AMETS
 <May18-2019> <16:05:10>  >>>> POPUL
 <May18-2019> <16:05:11>   Bond Energy          -2.04748034 a.u.
 <May18-2019> <16:05:11>   Bond Energy         -55.71477492 eV
 <May18-2019> <16:05:11>   Bond Energy       -1284.81       kcal/mol
 <May18-2019> <16:05:11>  >>>> ENHESS
 <May18-2019> <16:05:12>  === NUCLEUS:     1
 <May18-2019> <16:05:45>  === NUCLEUS:     2
 <May18-2019> <16:06:20>  === NUCLEUS:     8
 <May18-2019> <16:06:55>  >>>> CALC_HESS_PMAT
 <May18-2019> <16:07:04>  >>>> CALC_HESS_WMAT
 <May18-2019> <16:07:07>  NORMAL TERMINATION
 <May18-2019> <16:07:07>  END
