

 Parallel Execution: Process Information
 ==============================================================================
 Rank   Node Name                              NodeID   MyNodeRank  NodeMaster
    0   BAZIS-cn023                               0          0          0
    1   BAZIS-cn023                               0          1         -1
    2   BAZIS-cn023                               0          2         -1
    3   BAZIS-cn023                               0          3         -1
    4   BAZIS-cn023                               0          4         -1
    5   BAZIS-cn023                               0          5         -1
    6   BAZIS-cn023                               0          6         -1
    7   BAZIS-cn023                               0          7         -1
    8   BAZIS-cn023                               0          8         -1
    9   BAZIS-cn023                               0          9         -1
   10   BAZIS-cn023                               0         10         -1
   11   BAZIS-cn023                               0         11         -1
 ==============================================================================


May use up to 30771MB of RAM as shared memory on node 0


XC
    GGA BP86
END

SCF
    iterations 250
END

EPRINT
    SFO Eig Ovl
END

ZLMFIT
    Quality normal
END

BECKEGRID
    Quality good
End

SYMMETRY nosym
CHARGE -1

ATOMS
1.Cl       -4.903412    3.063063   -0.043765 f=ClCl
2.Cl       -3.674393    0.992968    0.067635 f=ClCl
3.Br       -6.197576    5.242888   -0.161071 f=Br
END

Fragments
ClCl /home/tcst25/advanced_comp_chemistry/exercise2/halogen/ClClBr/frag1_ClCl.t21
Br /home/tcst25/advanced_comp_chemistry/exercise2/halogen/ClClBr/frag2_Br.t21
End
end input

 *******************************************************************************
 *                                                                             *
 *  -------------------------------------                                      *
 *   Amsterdam Density Functional  (ADF)         2017                          *
 *  -------------------------------------                                      *
 *                                               r58813 2017-04-12             *
 *                                                                             *
 *                                                                             *
 *                              =================                              *
 *                              |               |                              *
 *                              |     A D F     |                              *
 *                              |               |                              *
 *                              =================                              *
 *                                                                             *
 *                                                                             *
 *   Online information and documentation:  https://www.scm.com/support/       *
 *   E-mail:  support@scm.com   info@scm.com                                   *
 *                                                                             *
 *   Scientific publications using ADF results must be properly referenced     *
 *   See the User Manuals (or the web site) for recommended citations          *
 *   The terms and conditions of the End User License Agreement apply to       *
 *   the use of ADF, https://www.scm.com/license-terms/                        *
 *                                                                             *
 **********************  x86_64_linux_intel / intelmpi  ************************
 
 Licensed to: VU/FEW (+ SARA) / ALGEMEEN / Amsterdam / THE NETHERLANDS
 SCM User ID: u7668
  
 ADF 2017  RunTime: May09-2019 17:12:04  Nodes: 1  Procs: 12

 Temporary files are created in /local/datastore0/tcst25/189777/kid_0.y4EnKL


Communication costs MPI_COMM_WORLD:      3.894 usec per message,   0.0185 usec per 8-byte item
Communication costs for intra-node:      3.854 usec per message,   0.0177 usec per 8-byte item

 *** (NO TITLE) ***



 ===========================
 A T T A C H E D   F I L E S
 ===========================
  



 ===============================
 M O D E L   P A R A M E T E R S
 ===============================
  
 DENSITY FUNCTIONAL POTENTIAL (scf)
    LDA:                               VWN                                      
    Gradient Corrections:              Becke88 Perdew86                        == Not Default ==

 SPIN  (restricted / unrestr.)
    Molecule:                          Restricted                               
    Fragments:                         Restricted                               

 OTHER ASPECTS
    Relativistic Corrections:          ---                                      

    Nuclear Charge Density Model:      Point Charge Nuclei                      
    Core Treatment:                    Frozen Orbital(s)                        

    Hyperfine or Zeeman Interaction:   ---                                      


 Fragment File(s)
 ----------------
 ClCl:
         file : /home/tcst25/advanced_comp_chemistry/exercise2/halogen/ClClBr/frag1_ClCl.t21
         jobid: ADF 2017  RunTime: May09-2019 16:32:23  Nodes: 1  Procs: 12
         title: *** (NO TITLE) ***
 Br:
         file : /home/tcst25/advanced_comp_chemistry/exercise2/halogen/ClClBr/frag2_Br.t21
         jobid: ADF 2017  RunTime: May09-2019 16:32:23  Nodes: 1  Procs: 12
         title: *** (NO TITLE) ***



                                        ************************************
                                        *  R U N   T Y P E : SINGLE POINT  *
                                        ************************************
  



 ===============
 G E O M E T R Y  ***  Linear Molecule  ***
 ===============
  

 ATOMS
 =====                            X Y Z                    CHARGE
                                (Angstrom)             Nucl     +Core       At.Mass
                       --------------------------    ----------------       -------
    1  Cl             -4.9034    3.0631   -0.0438     17.00     17.00       34.9689
    2  Cl             -3.6744    0.9930    0.0676     17.00     17.00       34.9689
    3  Br             -6.1976    5.2429   -0.1611     35.00     35.00       78.9183


 FRAGMENTS
 =========                                     Atoms in this Fragment     Cart. coord.s (Angstrom)
                                               -------------------------------------------------------
    1  ClCl                                              1  Cl          -4.9034    3.0631   -0.0438
                                                         2  Cl          -3.6744    0.9930    0.0676
    2  Br                                                3  Br          -6.1976    5.2429   -0.1611


 Interatomic Distance Matrix (Angstrom)
 --------------------------------------

   1)     0.000
   2)     2.410   0.000
   3)     2.538   4.948   0.000

 Min. Distance =    2.4100
 Max. Distance =    4.9478



 =====================================
 S Y M M E T R Y ,   E L E C T R O N S
 =====================================
  
 Symmetry: NOSYM

 Irreducible Representations, including subspecies
 -------------------------------------------------
 A


 Configuration of Valence Electrons
 ==================================
 ( determined in the SCF procedure )

 Total:   70

 Net Charge: -1 (Nuclei minus Electrons)

 Aufbau principle for MO occupations will be applied through SCF cycle no.     125
 Thereafter, the program will assign electrons to MOs that are spatially
 similar to the occupied MOs in a "reference" cycle ("KeepOrbitals").
 The reference cycle is always the PREVIOUS cycle: it will evolve with
 the SCF procedure.
1
 ***************************************************************************************************



                                      ****************************************
                                      *  B U I L D : (Fragments, Functions)  *
                                      ****************************************
  

 The individual fragments are copies of the corresponding 'Master' fragments defined on the fragment files.
 However, they may have been rotated (and translated) with respect to the Master. The local coordinate axes
 of each fragment (which define for instance the spatial orientation in the current molecule of a fragment
 P:x orbital) are not necessarily those of the molecule.
 The local frame (if different from the molecular one) is printed to enable an interpretation of the expan-
 sion of an MO in Fragment Orbitals.



                                             **************************
                                             *  Fragment Type : ClCl  *
                                             **************************
  

 Fragment no.    1   (in the list of all fragments)
 -----------------
 The local coordinate frame is identical to the molecular frame.

 Check Atomic Coordinates:

                  Master (on file)          After Computed Tranformation               As specified on Input
           ----------------------------     ----------------------------     ---------------------------------
     1)    -4.90341   3.06306  -0.04377     -4.90341   3.06306  -0.04377       1  -4.90341   3.06306  -0.04377
     2)    -3.67439   0.99297   0.06763     -3.67439   0.99297   0.06764       2  -3.67439   0.99297   0.06764



                                              ************************
                                              *  Fragment Type : Br  *
                                              ************************
  

 Fragment no.    2   (in the list of all fragments)
 -----------------
 The local coordinate frame is identical to the molecular frame.

 Check Atomic Coordinates:

                  Master (on file)          After Computed Tranformation               As specified on Input
           ----------------------------     ----------------------------     ---------------------------------
     1)    -6.19758   5.24289  -0.16107     -6.19758   5.24289  -0.16107       3  -6.19758   5.24289  -0.16107



 =======
 S F O s  ***  (Symmetrized Fragment Orbitals)  ***
 =======
  
 SFOs are linear combinations of (valence) Fragment Orbitals (FOs), such that the SFOs transform as the
 irreducible representations of the (molecular) symmetry group. Each SFO is therefore characterized by
 an irrep of the molecule and by a few (or only one) generating FOs.
 The SFOs constitute a symmetry-adapted basis for the Fock matrix. The MO eigenvector coefficients in
 this basis provide a direct interpretation of the MOs in terms of Frontier Orbital Theory.

 The SFOs are combined with auxiliary Core Functions (CFs) to ensure orthogonalization on the (frozen)
 Core Orbitals (COs). The Core-orthogonalized SFOs (CSFOs) constitute the true Fock basis.

 The FOs, and hence also the (C)SFOs are combinations of the elementary basis functions (BAS). The basis
 functions that participate in the description of the SFOs depend on the irrep. The indices of the
 involved functions are printed below for each irrep.
 (The complete list of primitive basis functions is printed in another section)

 Total nr. of (C)SFOs (summation over all irreps) :   124

 NOTE: a (C)SFO that is defined as a combination of more than one FO is usually NOT normalized.



                                       === A ===
 Nr. of SFOs :  124
 Cartesian basis functions that participate in this irrep (total number =   139) :
      1     2     3     4    11    12    13     5     8    14
     17    20     6     9    15    18    21     7    10    16
     19    22    23    24    25    26    27    28    29    30
     31    32    33    34    35    36    37    38    39    40
     41    42    49    50    51    43    46    52    55    58
     44    47    53    56    59    45    48    54    57    60
     61    62    63    64    65    66    67    68    69    70
     71    72    73    74    75    76    77    78    79    86
     87   112   113   114    80    83    88    91   115   118
    121    81    84    89    92   116   119   122    82    85
     90    93   117   120   123    94   100   106   124    95
    101   107   125    96   102   108   126    97   103   109
    127    98   104   110   128    99   105   111   129   130
    131   132   133   134   135   136   137   138   139

    SFO  (index         Fragment          Generating    Expansion in Fragment Orbitals
  indx  incl.CFs)   Occup   Orb.Energy   FragmentType  Coeff.   Orbital     on Fragment
 --------------------------------------------------------------------------------------
     1       1      2.000    -100.781 au  ClCl          1.00      1 A               1
                        (   -2742.386 eV)
     2       2      2.000    -100.781 au  ClCl          1.00      2 A               1
                        (   -2742.386 eV)
     3       3      2.000      -9.230 au  ClCl          1.00      3 A               1
                        (    -251.174 eV)
     4       4      2.000      -9.230 au  ClCl          1.00      4 A               1
                        (    -251.173 eV)
     5       5      2.000      -7.065 au  ClCl          1.00      5 A               1
                        (    -192.237 eV)
     6       6      2.000      -7.065 au  ClCl          1.00      6 A               1
                        (    -192.237 eV)
     7       7      2.000      -7.047 au  ClCl          1.00      7 A               1
                        (    -191.753 eV)
     8       8      2.000      -7.047 au  ClCl          1.00      8 A               1
                        (    -191.753 eV)
     9       9      2.000      -7.047 au  ClCl          1.00      9 A               1
                        (    -191.753 eV)
    10      10      2.000      -7.047 au  ClCl          1.00     10 A               1
                        (    -191.753 eV)
    11      11      2.000      -0.792 au  ClCl          1.00     11 A               1
                        (     -21.546 eV)
    12      12      2.000      -0.732 au  ClCl          1.00     12 A               1
                        (     -19.914 eV)
    13      13      2.000      -0.402 au  ClCl          1.00     13 A               1
                        (     -10.926 eV)
    14      14      2.000      -0.332 au  ClCl          1.00     14 A               1
                        (      -9.029 eV)
    15      15      2.000      -0.332 au  ClCl          1.00     15 A               1
                        (      -9.029 eV)
    16      16      2.000      -0.289 au  ClCl          1.00     16 A               1
                        (      -7.866 eV)
    17      17      2.000      -0.289 au  ClCl          1.00     17 A               1
                        (      -7.866 eV)
    18      18       --        -0.247 au  ClCl          1.00     18 A               1
                        (      -6.720 eV)
    19      19       --         0.176 au  ClCl          1.00     19 A               1
                        (       4.783 eV)
    20      20       --         0.181 au  ClCl          1.00     20 A               1
                        (       4.922 eV)
    21      21       --         0.205 au  ClCl          1.00     21 A               1
                        (       5.576 eV)
    22      22       --         0.205 au  ClCl          1.00     22 A               1
                        (       5.576 eV)
    23      23       --         0.220 au  ClCl          1.00     23 A               1
                        (       5.979 eV)
    24      24       --         0.263 au  ClCl          1.00     24 A               1
                        (       7.154 eV)
    25      25       --         0.263 au  ClCl          1.00     25 A               1
                        (       7.154 eV)
    26      26       --         0.304 au  ClCl          1.00     26 A               1
                        (       8.265 eV)
    27      27       --         0.304 au  ClCl          1.00     27 A               1
                        (       8.265 eV)
    28      28       --         0.340 au  ClCl          1.00     28 A               1
                        (       9.253 eV)
    29      29       --         0.372 au  ClCl          1.00     29 A               1
                        (      10.131 eV)
    30      30       --         0.372 au  ClCl          1.00     30 A               1
                        (      10.131 eV)
    31      31       --         0.391 au  ClCl          1.00     31 A               1
                        (      10.632 eV)
    32      32       --         0.408 au  ClCl          1.00     32 A               1
                        (      11.110 eV)
    33      33       --         0.408 au  ClCl          1.00     33 A               1
                        (      11.110 eV)
    34      34       --         0.488 au  ClCl          1.00     34 A               1
                        (      13.271 eV)
    35      35       --         0.488 au  ClCl          1.00     35 A               1
                        (      13.271 eV)
    36      36       --         0.754 au  ClCl          1.00     36 A               1
                        (      20.508 eV)
    37      37       --         1.064 au  ClCl          1.00     37 A               1
                        (      28.954 eV)
    38      38       --         1.064 au  ClCl          1.00     38 A               1
                        (      28.954 eV)
    39      39       --         1.115 au  ClCl          1.00     39 A               1
                        (      30.328 eV)
    40      40       --         1.115 au  ClCl          1.00     40 A               1
                        (      30.329 eV)
    41      41       --         1.160 au  ClCl          1.00     41 A               1
                        (      31.552 eV)
    42      42       --         1.160 au  ClCl          1.00     42 A               1
                        (      31.552 eV)
    43      43       --         1.203 au  ClCl          1.00     43 A               1
                        (      32.731 eV)
    44      44       --         1.237 au  ClCl          1.00     44 A               1
                        (      33.651 eV)
    45      45       --         1.237 au  ClCl          1.00     45 A               1
                        (      33.651 eV)
    46      46       --         1.358 au  ClCl          1.00     46 A               1
                        (      36.940 eV)
    47      47       --         1.358 au  ClCl          1.00     47 A               1
                        (      36.940 eV)
    48      48       --         1.378 au  ClCl          1.00     48 A               1
                        (      37.491 eV)
    49      49       --         1.434 au  ClCl          1.00     49 A               1
                        (      39.018 eV)
    50      50       --         1.434 au  ClCl          1.00     50 A               1
                        (      39.019 eV)
    51      51       --         2.004 au  ClCl          1.00     51 A               1
                        (      54.530 eV)
    52      52       --         2.072 au  ClCl          1.00     52 A               1
                        (      56.390 eV)
    53      53       --         2.077 au  ClCl          1.00     53 A               1
                        (      56.505 eV)
    54      54       --         2.077 au  ClCl          1.00     54 A               1
                        (      56.505 eV)
    55      55       --         2.129 au  ClCl          1.00     55 A               1
                        (      57.939 eV)
    56      56       --         2.216 au  ClCl          1.00     56 A               1
                        (      60.288 eV)
    57      57       --         2.216 au  ClCl          1.00     57 A               1
                        (      60.288 eV)
    58      58       --         2.685 au  ClCl          1.00     58 A               1
                        (      73.054 eV)
    59      59       --        12.686 au  ClCl          1.00     59 A               1
                        (     345.199 eV)
    60      60       --        13.442 au  ClCl          1.00     60 A               1
                        (     365.787 eV)
    61      61       --        18.742 au  ClCl          1.00     61 A               1
                        (     509.983 eV)
    62      62       --        18.742 au  ClCl          1.00     62 A               1
                        (     509.983 eV)
    63      63       --        18.821 au  ClCl          1.00     63 A               1
                        (     512.141 eV)
    64      64       --        19.047 au  ClCl          1.00     64 A               1
                        (     518.299 eV)
    65      65       --        19.047 au  ClCl          1.00     65 A               1
                        (     518.300 eV)
    66      66       --        19.508 au  ClCl          1.00     66 A               1
                        (     530.835 eV)
    67      67       --       214.522 au  ClCl          1.00     67 A               1
                        (    5837.449 eV)
    68      68       --       217.519 au  ClCl          1.00     68 A               1
                        (    5918.998 eV)
    69      69      2.000    -480.688 au  Br            1.00      1 A               2
                        (  -13080.195 eV)
    70      70      2.000     -61.445 au  Br            1.00      2 A               2
                        (   -1672.008 eV)
    71      71      2.000     -55.375 au  Br            1.00      3 A               2
                        (   -1506.824 eV)
    72      72      2.000     -55.375 au  Br            1.00      4 A               2
                        (   -1506.824 eV)
    73      73      2.000     -55.375 au  Br            1.00      5 A               2
                        (   -1506.824 eV)
    74      74      2.000      -8.066 au  Br            1.00      6 A               2
                        (    -219.480 eV)
    75      75      2.000      -5.966 au  Br            1.00      7 A               2
                        (    -162.330 eV)
    76      76      2.000      -5.966 au  Br            1.00      8 A               2
                        (    -162.330 eV)
    77      77      2.000      -5.966 au  Br            1.00      9 A               2
                        (    -162.330 eV)
    78      78      2.000      -2.173 au  Br            1.00     10 A               2
                        (     -59.143 eV)
    79      79      2.000      -2.173 au  Br            1.00     11 A               2
                        (     -59.143 eV)
    80      80      2.000      -2.173 au  Br            1.00     12 A               2
                        (     -59.143 eV)
    81      81      2.000      -2.173 au  Br            1.00     13 A               2
                        (     -59.143 eV)
    82      82      2.000      -2.173 au  Br            1.00     14 A               2
                        (     -59.143 eV)
    83      83      2.000      -0.386 au  Br            1.00     15 A               2
                        (     -10.500 eV)
    84      84      2.000       0.016 au  Br            1.00     16 A               2
                        (       0.447 eV)
    85      85      2.000       0.016 au  Br            1.00     17 A               2
                        (       0.447 eV)
    86      86      2.000       0.016 au  Br            1.00     18 A               2
                        (       0.447 eV)
    87      87       --         0.352 au  Br            1.00     19 A               2
                        (       9.589 eV)
    88      88       --         0.352 au  Br            1.00     20 A               2
                        (       9.589 eV)
    89      89       --         0.352 au  Br            1.00     21 A               2
                        (       9.589 eV)
    90      90       --         0.501 au  Br            1.00     22 A               2
                        (      13.634 eV)
    91      91       --         0.551 au  Br            1.00     23 A               2
                        (      15.005 eV)
    92      92       --         0.551 au  Br            1.00     24 A               2
                        (      15.005 eV)
    93      93       --         0.551 au  Br            1.00     25 A               2
                        (      15.005 eV)
    94      94       --         0.551 au  Br            1.00     26 A               2
                        (      15.005 eV)
    95      95       --         0.551 au  Br            1.00     27 A               2
                        (      15.005 eV)
    96      96       --         1.141 au  Br            1.00     28 A               2
                        (      31.038 eV)
    97      97       --         1.141 au  Br            1.00     29 A               2
                        (      31.038 eV)
    98      98       --         1.141 au  Br            1.00     30 A               2
                        (      31.038 eV)
    99      99       --         1.141 au  Br            1.00     31 A               2
                        (      31.038 eV)
   100     100       --         1.141 au  Br            1.00     32 A               2
                        (      31.038 eV)
   101     101       --         1.141 au  Br            1.00     33 A               2
                        (      31.038 eV)
   102     102       --         1.141 au  Br            1.00     34 A               2
                        (      31.038 eV)
   103     103       --         1.505 au  Br            1.00     35 A               2
                        (      40.949 eV)
   104     104       --         1.505 au  Br            1.00     36 A               2
                        (      40.949 eV)
   105     105       --         1.505 au  Br            1.00     37 A               2
                        (      40.949 eV)
   106     106       --         2.776 au  Br            1.00     38 A               2
                        (      75.551 eV)
   107     107       --         3.002 au  Br            1.00     39 A               2
                        (      81.690 eV)
   108     108       --         3.002 au  Br            1.00     40 A               2
                        (      81.690 eV)
   109     109       --         3.002 au  Br            1.00     41 A               2
                        (      81.690 eV)
   110     110       --         3.002 au  Br            1.00     42 A               2
                        (      81.690 eV)
   111     111       --         3.002 au  Br            1.00     43 A               2
                        (      81.690 eV)
   112     112       --         9.163 au  Br            1.00     44 A               2
                        (     249.341 eV)
   113     113       --         9.163 au  Br            1.00     45 A               2
                        (     249.341 eV)
   114     114       --         9.163 au  Br            1.00     46 A               2
                        (     249.341 eV)
   115     115       --        14.623 au  Br            1.00     47 A               2
                        (     397.911 eV)
   116     116       --        20.941 au  Br            1.00     48 A               2
                        (     569.821 eV)
   117     117       --        20.941 au  Br            1.00     49 A               2
                        (     569.821 eV)
   118     118       --        20.941 au  Br            1.00     50 A               2
                        (     569.821 eV)
   119     119       --        20.941 au  Br            1.00     51 A               2
                        (     569.821 eV)
   120     120       --        20.941 au  Br            1.00     52 A               2
                        (     569.821 eV)
   121     121       --       101.209 au  Br            1.00     53 A               2
                        (    2754.029 eV)
   122     122       --       101.209 au  Br            1.00     54 A               2
                        (    2754.029 eV)
   123     123       --       101.209 au  Br            1.00     55 A               2
                        (    2754.029 eV)
   124     124       --       746.807 au  Br            1.00     56 A               2
                        (   20321.657 eV)



 ================================
 (Slater-type)  F U N C T I O N S  ***  (Basis and Fit)  ***
 ================================
  

 Atom Type    1  (Cl)
 ==============

 Valence Basis Sets:  14
 -----------------------
   1 S   20.300000
   1 S   15.250000
   2 S    6.250000
   2 S    4.450000
   2 P    8.850000
   2 P    5.050000
   3 S    3.450000
   3 S    2.300000
   3 S    1.600000
   3 P    3.350000
   3 P    2.050000
   3 P    1.200000
   3 D    2.000000
   4 F    2.000000

 Atom Type    2  (Br)
 ==============

 Valence Basis Sets:  20
 -----------------------
   1 S   41.300000
   1 S   32.800000
   2 S   13.900000
   2 P   19.450000
   2 P   13.100000
   3 S    7.200000
   3 S    4.950000
   3 P    7.900000
   3 P    5.050000
   3 D   10.900000
   3 D    6.050000
   3 D    3.500000
   4 S    4.500000
   4 S    2.800000
   4 S    1.800000
   4 P    3.250000
   4 P    1.950000
   4 P    1.200000
   4 D    1.800000
   4 F    1.800000


 BAS: List of all Elementary Cartesian Basis Functions
 =====================================================

 The numbering in the list below (to the right of the function characteristics) is referred
 to in print-outs of MO eigenvectors and Mulliken populations in the BAS representation
 (as contrasted to the SFO representation).

 Notes:
 1. The functions are characterized by a polynomial prefactor (powers of x,y,z and r) and
    an exponential decay factor alpha.
 2. Since the basis sets are specific for an atom TYPE, the individual functions occur on
    all atoms of that type.
 3. The word 'Core' in the left margin signals that it is a Core Function (CF) : not a
    degree of freedom in the valence set, but only used to ensure orthogonalization of
    the other valence basis functions on the frozen Core Orbitals.


 (power of) X  Y  Z  R     Alpha  on Atom
            ==========     =====     ==========

 Cl                                   1    2
                                  ---------------------------------------------------------------------------
            0  0  0  0    20.300      1   39
            0  0  0  0    15.250      2   40
            0  0  0  1     6.250      3   41
            0  0  0  1     4.450      4   42
            1  0  0  0     8.850      5   43
            0  1  0  0     8.850      6   44
            0  0  1  0     8.850      7   45
            1  0  0  0     5.050      8   46
            0  1  0  0     5.050      9   47
            0  0  1  0     5.050     10   48
            0  0  0  2     3.450     11   49
            0  0  0  2     2.300     12   50
            0  0  0  2     1.600     13   51
            1  0  0  1     3.350     14   52
            0  1  0  1     3.350     15   53
            0  0  1  1     3.350     16   54
            1  0  0  1     2.050     17   55
            0  1  0  1     2.050     18   56
            0  0  1  1     2.050     19   57
            1  0  0  1     1.200     20   58
            0  1  0  1     1.200     21   59
            0  0  1  1     1.200     22   60
            2  0  0  0     2.000     23   61
            1  1  0  0     2.000     24   62
            1  0  1  0     2.000     25   63
            0  2  0  0     2.000     26   64
            0  1  1  0     2.000     27   65
            0  0  2  0     2.000     28   66
            3  0  0  0     2.000     29   67
            2  1  0  0     2.000     30   68
            2  0  1  0     2.000     31   69
            1  2  0  0     2.000     32   70
            1  1  1  0     2.000     33   71
            1  0  2  0     2.000     34   72
            0  3  0  0     2.000     35   73
            0  2  1  0     2.000     36   74
            0  1  2  0     2.000     37   75
            0  0  3  0     2.000     38   76

 Br                                   3
                                  ---------------------------------------------------------------------------
            0  0  0  0    41.300     77
            0  0  0  0    32.800     78
            0  0  0  1    13.900     79
            1  0  0  0    19.450     80
            0  1  0  0    19.450     81
            0  0  1  0    19.450     82
            1  0  0  0    13.100     83
            0  1  0  0    13.100     84
            0  0  1  0    13.100     85
            0  0  0  2     7.200     86
            0  0  0  2     4.950     87
            1  0  0  1     7.900     88
            0  1  0  1     7.900     89
            0  0  1  1     7.900     90
            1  0  0  1     5.050     91
            0  1  0  1     5.050     92
            0  0  1  1     5.050     93
            2  0  0  0    10.900     94
            1  1  0  0    10.900     95
            1  0  1  0    10.900     96
            0  2  0  0    10.900     97
            0  1  1  0    10.900     98
            0  0  2  0    10.900     99
            2  0  0  0     6.050    100
            1  1  0  0     6.050    101
            1  0  1  0     6.050    102
            0  2  0  0     6.050    103
            0  1  1  0     6.050    104
            0  0  2  0     6.050    105
            2  0  0  0     3.500    106
            1  1  0  0     3.500    107
            1  0  1  0     3.500    108
            0  2  0  0     3.500    109
            0  1  1  0     3.500    110
            0  0  2  0     3.500    111
            0  0  0  3     4.500    112
            0  0  0  3     2.800    113
            0  0  0  3     1.800    114
            1  0  0  2     3.250    115
            0  1  0  2     3.250    116
            0  0  1  2     3.250    117
            1  0  0  2     1.950    118
            0  1  0  2     1.950    119
            0  0  1  2     1.950    120
            1  0  0  2     1.200    121
            0  1  0  2     1.200    122
            0  0  1  2     1.200    123
            2  0  0  1     1.800    124
            1  1  0  1     1.800    125
            1  0  1  1     1.800    126
            0  2  0  1     1.800    127
            0  1  1  1     1.800    128
            0  0  2  1     1.800    129
            3  0  0  0     1.800    130
            2  1  0  0     1.800    131
            2  0  1  0     1.800    132
            1  2  0  0     1.800    133
            1  1  1  0     1.800    134
            1  0  2  0     1.800    135
            0  3  0  0     1.800    136
            0  2  1  0     1.800    137
            0  1  2  0     1.800    138
            0  0  3  0     1.800    139

 Total number of charge fitting functions (nprimf)       382
 Total number of Cartesian basis functions (naos)        139
 Total number of Cartesian core functions  (ncos)          0

1
 ***************************************************************************************************



                                              ***********************
                                              *  T E C H N I C A L  *
                                              ***********************
  



 =============================================================
 P A R A L L E L I Z A T I O N  and  V E C T O R I Z A T I O N
 =============================================================
  
 Nr of parallel processes:                               12
 Maximum vector length in NumInt loops:                 128

 IO buffersize (Mb):                                     64.000000



 =====================
 S C F   U P D A T E S
 =====================
  
 Max. nr. of cycles:                               250
 Convergence criterion:                              0.0000010000
   secondary criterion:                              0.0010000000

 Mix parameter (when DIIS does not apply):           0.2000000000
 Mixed ADIIS+DIIS will be used
    Max number of expansion vectors:                10
    Pure ADIIS when Max([F,P]) is above              0.1000000000
    Pure DIIS when Max([F,P]) is below               0.0010000000
 Automatic ElectronSmearing (in case of problematic SCF convergence) disabled



 =================
 P R E C I S I O N  ***  (General: NumInt, NeglectFunctionTails, ...)  ***
 =================
  

 NumInt:           Target precision:                 6.0000000000
 -------           Initial precision:                6.0000000000
                   Min. precision (optimization):    6.0000000000

 Neglect Functions:          Basis functions:        0.1000000000E-07
 ------------------          Fit functions:          0.1000000000E-07



 ===========================
 L I N E A R   S C A L I N G
 ===========================
  

 Cut-off radii density fit:                        0.1000000000E-09
 Overlap cut-off criterion AO matrix elements:     0.1000000000E-07
 Cut-offs for Coulomb potential and fitted density:0.1000000000E-09
 Cut-off criterion for Coulomb multipole terms:    0.1000000000E-09
 Progressive Convergence parameter:                 0.000000000    
1
 ***************************************************************************************************



                                            ***************************
                                            *  C O M P U T A T I O N  *
                                            ***************************
  

 Number of elements of the density matrix on this node (used, total):      2016      9730



 ===========================================
 Numerical Integration : Fuzzy Cells (Becke)
 ===========================================
  
 Becke grid quality: GOOD           
  
 Lebedev angular grid order:             min:  11 max:  31
 Nr. of radial points:                   min:  80 max:  90

 Total nr. of points:      53896
 Nr. of blocks:              422
 Block length:               128
 Nr. of dummy points:        120


 Test of Precision of the Numerical Integration Grid
 ===================================================

 Integral of the Total Core Density:                   0.00000000000000



 ========================
 Density Fitting (zlmFit)
 ========================
  
 ZlmFit Fit Quality: NORMAL         
  
 Max L-expansion:                        min:   7 max:   7
 Nr. of radial interpolation points:     min:  60 max:  72



 =====
 S C F  ***  ScaSCF  ***
 =====
  
 Initial density matrix is calculated as sum of fragments

 CYCLE    1
 SCF Error: norm([F,P])=      1.284840512381, max([F,P])=      0.662271794930
 orbitals (Q,E):
 ---------------
 A :26...45          ( 2.00    -0.5771)  ( 2.00    -0.4205)  ( 2.00    -0.2726)  ( 2.00    -0.2219)
                     ( 2.00    -0.2219)  ( 2.00    -0.1295)  ( 2.00    -0.1295)  ( 2.00    -0.1187)
                     ( 2.00    -0.0081)  ( 2.00    -0.0080)  ( 0.00     0.0375)  ( 0.00     0.2659)
                     ( 0.00     0.3030)  ( 0.00     0.3253)  ( 0.00     0.3253)  ( 0.00     0.3430)
                     ( 0.00     0.3430)  ( 0.00     0.3480)  ( 0.00     0.3990)  ( 0.00     0.3990)

 CYCLE    2
  SDIIS (wt  0.000):  0.3409  0.6591
 A-DIIS (wt  1.000):  0.9023  0.0977
  DIIS coefficients:  0.9023  0.0977
 SCF Error: norm([F,P])=      0.911382275988, max([F,P])=      0.380184280434
 orbitals (Q,E):
 ---------------
 A :26...36          ( 2.00    -0.5586)  ( 2.00    -0.4572)  ( 2.00    -0.2415)  ( 2.00    -0.1823)
                     ( 2.00    -0.1823)  ( 2.00    -0.1158)  ( 2.00    -0.1158)  ( 2.00    -0.1101)
                     ( 2.00    -0.0400)  ( 2.00    -0.0400)  ( 0.00     0.0186)

 CYCLE    3
  SDIIS (wt  0.000):  0.0795 -1.1527  2.0732
 A-DIIS (wt  1.000):  0.8501  0.0000  0.1499
  DIIS coefficients:  0.8501  0.0000  0.1499
 SCF Error: norm([F,P])=      0.588093226377, max([F,P])=      0.279643520873
 orbitals (Q,E):
 ---------------
 A :26...36          ( 2.00    -0.5601)  ( 2.00    -0.4615)  ( 2.00    -0.2382)  ( 2.00    -0.1754)
                     ( 2.00    -0.1754)  ( 2.00    -0.1180)  ( 2.00    -0.1180)  ( 2.00    -0.1097)
                     ( 2.00    -0.0441)  ( 2.00    -0.0441)  ( 0.00     0.0151)

 CYCLE    4
  SDIIS (wt  0.000): -1.0893 -0.9107  3.0000
 A-DIIS (wt  1.000):  0.0000  0.0000  1.0000
  DIIS coefficients:  0.0000  0.0000  1.0000
 SCF Error: norm([F,P])=      0.555295255970, max([F,P])=      0.272734766050
 orbitals (Q,E):
 ---------------
 A :26...36          ( 2.00    -0.5229)  ( 2.00    -0.3202)  ( 2.00    -0.2841)  ( 2.00    -0.2686)
                     ( 2.00    -0.2686)  ( 2.00    -0.0756)  ( 2.00    -0.0756)  ( 2.00    -0.0638)
                     ( 2.00     0.0970)  ( 2.00     0.0970)  ( 0.00     0.1351)

 CYCLE    5
  SDIIS (wt  0.000): -0.6433 -1.4772  3.0000  0.1205
 A-DIIS (wt  1.000):  0.0000  0.0000  0.7794  0.2206
  DIIS coefficients:  0.0000  0.0000  0.7794  0.2206
 SCF Error: norm([F,P])=      1.537016282294, max([F,P])=      0.486431211825
 orbitals (Q,E):
 ---------------
 A :26...36          ( 2.00    -0.5188)  ( 2.00    -0.4661)  ( 2.00    -0.1978)  ( 2.00    -0.1475)
                     ( 2.00    -0.1475)  ( 2.00    -0.0925)  ( 2.00    -0.0802)  ( 2.00    -0.0802)
                     ( 2.00    -0.0375)  ( 2.00    -0.0375)  ( 0.00     0.0426)

 CYCLE    6
  SDIIS (wt  0.000): -0.0915 -2.0000  2.6429  0.0019  0.4468
 A-DIIS (wt  1.000):  0.0000  0.0000  0.4438  0.0000  0.5562
  DIIS coefficients:  0.0000  0.0000  0.4438  0.0000  0.5562
 SCF Error: norm([F,P])=      0.500882437990, max([F,P])=      0.164664312543
 orbitals (Q,E):
 ---------------
 A :26...36          ( 2.00    -0.5190)  ( 2.00    -0.4939)  ( 2.00    -0.2246)  ( 2.00    -0.1609)
                     ( 2.00    -0.1609)  ( 2.00    -0.0906)  ( 2.00    -0.0890)  ( 2.00    -0.0890)
                     ( 2.00    -0.0714)  ( 2.00    -0.0714)  ( 0.00     0.0020)

 CYCLE    7
  SDIIS (wt  0.000): -0.2980  0.6233 -0.0272 -0.0582  0.2954  0.4648
 A-DIIS (wt  1.000):  0.0000  0.0000  0.1980  0.0000  0.2017  0.6003
  DIIS coefficients:  0.0000  0.0000  0.1980  0.0000  0.2017  0.6003
 SCF Error: norm([F,P])=      0.298251842809, max([F,P])=      0.134936345926
 orbitals (Q,E):
 ---------------
 A :26...36          ( 2.00    -0.5302)  ( 2.00    -0.4849)  ( 2.00    -0.1996)  ( 2.00    -0.1294)
                     ( 2.00    -0.1294)  ( 2.00    -0.1012)  ( 2.00    -0.0991)  ( 2.00    -0.0991)
                     ( 2.00    -0.0599)  ( 2.00    -0.0599)  ( 0.00     0.0228)

 CYCLE    8
  SDIIS (wt  0.000): -0.0828 -0.2550  0.4563 -0.0097  0.0905  0.4600  0.3407
 A-DIIS (wt  1.000):  0.0000  0.0000  0.0000  0.0000  0.0000  0.5388  0.4612
  DIIS coefficients:  0.0000  0.0000  0.0000  0.0000  0.0000  0.5388  0.4612
 SCF Error: norm([F,P])=      0.328416922098, max([F,P])=      0.134682372767
 orbitals (Q,E):
 ---------------
 A :26...36          ( 2.00    -0.5302)  ( 2.00    -0.4943)  ( 2.00    -0.2114)  ( 2.00    -0.1379)
                     ( 2.00    -0.1379)  ( 2.00    -0.0971)  ( 2.00    -0.0968)  ( 2.00    -0.0968)
                     ( 2.00    -0.0725)  ( 2.00    -0.0725)  ( 0.00     0.0089)

 CYCLE    9
  SDIIS (wt  0.900):  0.0102 -0.2513  0.2538 -0.0050  0.0345  0.1569  0.0959  0.7049
 A-DIIS (wt  0.100):  0.0000  0.0000  0.0000  0.0000  0.0000  0.0000  0.0000  1.0000
  DIIS coefficients:  0.0092 -0.2261  0.2284 -0.0045  0.0310  0.1412  0.0863  0.7345
 SCF Error: norm([F,P])=      0.026633021013, max([F,P])=      0.010914839880
 orbitals (Q,E):
 ---------------
 A :26...36          ( 2.00    -0.5283)  ( 2.00    -0.4950)  ( 2.00    -0.2116)  ( 2.00    -0.1386)
                     ( 2.00    -0.1386)  ( 2.00    -0.0963)  ( 2.00    -0.0956)  ( 2.00    -0.0956)
                     ( 2.00    -0.0727)  ( 2.00    -0.0727)  ( 0.00     0.0086)

 CYCLE   10
  SDIIS (wt  0.945):  0.0029 -0.0875  0.0941 -0.0004 -0.0037  0.0106  0.0288  0.1809  0.7742
 A-DIIS (wt  0.055):  0.0000  0.0000  0.0000  0.0000  0.0000  0.0000  0.0000  0.3423  0.6577
  DIIS coefficients:  0.0027 -0.0827  0.0890 -0.0004 -0.0035  0.0100  0.0272  0.1898  0.7678
 SCF Error: norm([F,P])=      0.014992257556, max([F,P])=      0.006433656013
 orbitals (Q,E):
 ---------------
 A :26...36          ( 2.00    -0.5288)  ( 2.00    -0.4946)  ( 2.00    -0.2114)  ( 2.00    -0.1382)
                     ( 2.00    -0.1382)  ( 2.00    -0.0964)  ( 2.00    -0.0959)  ( 2.00    -0.0959)
                     ( 2.00    -0.0726)  ( 2.00    -0.0726)  ( 0.00     0.0088)

 CYCLE   11
  SDIIS (wt  1.000):  0.0003 -0.0308  0.0353  0.0001 -0.0031 -0.0005  0.0079  0.0559  0.2799  0.6550
  DIIS coefficients:  0.0003 -0.0308  0.0353  0.0001 -0.0031 -0.0005  0.0079  0.0559  0.2799  0.6550
 SCF Error: norm([F,P])=      0.001873572818, max([F,P])=      0.000884457049
 orbitals (Q,E):
 ---------------
 A :26...36          ( 2.00    -0.5289)  ( 2.00    -0.4946)  ( 2.00    -0.2114)  ( 2.00    -0.1382)
                     ( 2.00    -0.1382)  ( 2.00    -0.0964)  ( 2.00    -0.0959)  ( 2.00    -0.0959)
                     ( 2.00    -0.0725)  ( 2.00    -0.0725)  ( 0.00     0.0088)

 CYCLE   12
  SDIIS (wt  1.000): -0.0100  0.0120  0.0000 -0.0010 -0.0005  0.0012  0.0163  0.0600  0.3118  0.6102
  DIIS coefficients: -0.0100  0.0120  0.0000 -0.0010 -0.0005  0.0012  0.0163  0.0600  0.3118  0.6102
 SCF Error: norm([F,P])=      0.000683381412, max([F,P])=      0.000266689735
 orbitals (Q,E):
 ---------------
 A :26...36          ( 2.00    -0.5289)  ( 2.00    -0.4946)  ( 2.00    -0.2114)  ( 2.00    -0.1383)
                     ( 2.00    -0.1383)  ( 2.00    -0.0964)  ( 2.00    -0.0959)  ( 2.00    -0.0959)
                     ( 2.00    -0.0726)  ( 2.00    -0.0726)  ( 0.00     0.0088)

 CYCLE   13
  SDIIS (wt  1.000):  0.0001  0.0000 -0.0002 -0.0004 -0.0004 -0.0043 -0.0142  0.0011  0.0769  0.9414
  DIIS coefficients:  0.0001  0.0000 -0.0002 -0.0004 -0.0004 -0.0043 -0.0142  0.0011  0.0769  0.9414
 SCF Error: norm([F,P])=      0.000214691136, max([F,P])=      0.000100190778
 orbitals (Q,E):
 ---------------
 A :26...36          ( 2.00    -0.5289)  ( 2.00    -0.4946)  ( 2.00    -0.2114)  ( 2.00    -0.1383)
                     ( 2.00    -0.1383)  ( 2.00    -0.0964)  ( 2.00    -0.0959)  ( 2.00    -0.0959)
                     ( 2.00    -0.0726)  ( 2.00    -0.0726)  ( 0.00     0.0088)

 CYCLE   14
  SDIIS (wt  1.000):  0.0000 -0.0000  0.0000 -0.0001 -0.0012 -0.0061 -0.0118  0.0013  0.4865  0.5313
  DIIS coefficients:  0.0000 -0.0000  0.0000 -0.0001 -0.0012 -0.0061 -0.0118  0.0013  0.4865  0.5313
 SCF Error: norm([F,P])=      0.000070274269, max([F,P])=      0.000028209985
 orbitals (Q,E):
 ---------------
 A :26...36          ( 2.00    -0.5289)  ( 2.00    -0.4946)  ( 2.00    -0.2114)  ( 2.00    -0.1383)
                     ( 2.00    -0.1383)  ( 2.00    -0.0964)  ( 2.00    -0.0959)  ( 2.00    -0.0959)
                     ( 2.00    -0.0726)  ( 2.00    -0.0726)  ( 0.00     0.0088)

 CYCLE   15
  SDIIS (wt  1.000): -0.0000  0.0000 -0.0000 -0.0002 -0.0019 -0.0025  0.0037  0.1781  0.1994  0.6233
  DIIS coefficients: -0.0000  0.0000 -0.0000 -0.0002 -0.0019 -0.0025  0.0037  0.1781  0.1994  0.6233
 SCF Error: norm([F,P])=      0.000012774271, max([F,P])=      0.000005540642
 orbitals (Q,E):
 ---------------
 A :26...36          ( 2.00    -0.5289)  ( 2.00    -0.4946)  ( 2.00    -0.2114)  ( 2.00    -0.1383)
                     ( 2.00    -0.1383)  ( 2.00    -0.0964)  ( 2.00    -0.0959)  ( 2.00    -0.0959)
                     ( 2.00    -0.0726)  ( 2.00    -0.0726)  ( 0.00     0.0088)

 CYCLE   16
  SDIIS (wt  1.000):  0.0000 -0.0000 -0.0001 -0.0003 -0.0004  0.0011  0.0456  0.0484  0.2704  0.6354
  DIIS coefficients:  0.0000 -0.0000 -0.0001 -0.0003 -0.0004  0.0011  0.0456  0.0484  0.2704  0.6354
 SCF Error: norm([F,P])=      0.000002034269, max([F,P])=      0.000000559572
 orbitals (Q,E):
 ---------------
 A :26...36          ( 2.00    -0.5289)  ( 2.00    -0.4946)  ( 2.00    -0.2114)  ( 2.00    -0.1383)
                     ( 2.00    -0.1383)  ( 2.00    -0.0964)  ( 2.00    -0.0959)  ( 2.00    -0.0959)
                     ( 2.00    -0.0726)  ( 2.00    -0.0726)  ( 0.00     0.0088)

 SCF CONVERGED

 CYCLE   17
1
 ***************************************************************************************************



                                                *******************
                                                *  R E S U L T S  *
                                                *******************
  
 *** Setting up for NEW gradients in Focky
 *** Using FIT density in Focky

 Orbital Energies, per Irrep and Spin:
 ======================================
                        Occup              E (au)              E (eV)       Diff (eV) with prev. cycle
                        -----      --------------------        ------       --------------------------
 A
              26        2.000     -0.52889363640363E+00       -14.392               3.12E-08
              27        2.000     -0.49459729669007E+00       -13.459              -4.96E-07
              28        2.000     -0.21143756665319E+00        -5.754              -4.33E-07
              29        2.000     -0.13826068395410E+00        -3.762              -4.89E-07
              30        2.000     -0.13825990055235E+00        -3.762              -4.89E-07
              31        2.000     -0.96447792478014E-01        -2.624              -1.26E-07
              32        2.000     -0.95881144874281E-01        -2.609               2.39E-09
              33        2.000     -0.95880580531416E-01        -2.609               2.37E-09
              34        2.000     -0.72559747323218E-01        -1.974              -3.46E-07
              35        2.000     -0.72558864431837E-01        -1.974              -3.46E-07
              36        0.000      0.87785620549213E-02         0.239
              37        0.000      0.26617227710160E+00         7.243
              38        0.000      0.29735056126364E+00         8.091
              39        0.000      0.29735523619884E+00         8.091
              40        0.000      0.34470267003118E+00         9.380
              41        0.000      0.36323765680631E+00         9.884
              42        0.000      0.38953428514994E+00        10.600
              43        0.000      0.38953585674097E+00        10.600
              44        0.000      0.39256179453844E+00        10.682
              45        0.000      0.39256222427246E+00        10.682
  
 HOMO :       35 A                -0.72558864431837E-01
 LUMO :       36 A                 0.87785620549213E-02
  


 All Electron Calculation, thus no Orbital Energies of the Core Orbitals are calculated


 Fit test: (difference of exact and fit density, squared integrated, result summed over spins)
         Sum-of-Fragments:                             0.00091816232913
         Orthogonalized Fragments:                     0.00092196838962
         SCF:                                          0.00092330398855



 ==========================
 Electron Density at Nuclei
 ==========================
  
 The electron density is calculated at points on a small sphere around the center of a nucleus.
 The printed electron density is the average electron density on these points.
 The radius of the sphere is the printed approximate finite nuclear radius.

         Atom        Nuclear Radius (Angstrom)             Electron Density (a.u.)
         ----        -------------------------             -----------------------
     1)   Cl                0.0000426624                             3211.75384
     2)   Cl                0.0000426624                             3210.66510
     3)   Br                0.0000536685                            29313.34179



 =======================================
 M U L L I K E N   P O P U L A T I O N S
 =======================================
  
 The survey below gives for each atom:
 a) the total charge (Z minus electrons)
 b) the net spin polarization (nr of electrons spin-A minus spin-B)
 c) for each spin the atomic electron valence density (integrated) per L-value.

 Atom              Charge    Spin density          S         P         D         F
 ----              ------    ------------       ------    ------    ------    ------
 1 Cl             -0.0791                       5.9647   11.0374    0.0672    0.0097
 2 Cl             -0.4470                       5.9843   11.4370    0.0209    0.0048
 3 Br             -0.4740                       7.9963   17.4325   10.0365    0.0086

 Populations of individual BAS functions
 ----------------------------------------
 1 Cl           0.5054  1.4528  1.7143  0.2467  0.7269  0.7201  0.7305  1.2722  1.2811  1.2673
                0.6390  1.0776  0.3289  0.2670  0.1863  0.3105  1.0560  0.8718  1.1554  0.4234
                0.2539  0.5150  0.0019  0.0286  0.0029  0.0300  0.0082 -0.0045 -0.0021 -0.0020
                0.0010  0.0103  0.0012 -0.0048  0.0134  0.0099 -0.0076 -0.0096
 2 Cl           0.5055  1.4530  1.7133  0.2531  0.7269  0.7233  0.7288  1.2713  1.2762  1.2687
                0.6080  1.0347  0.4168  0.2835  0.2369  0.3087  1.0287  0.9281  1.0830  0.5413
                0.4300  0.6015  0.0002  0.0075  0.0013  0.0148  0.0037 -0.0065 -0.0018 -0.0018
                0.0007  0.0071  0.0006 -0.0037  0.0098  0.0070 -0.0062 -0.0071
 3 Br           0.3611  1.5681  2.0732  0.7131  0.7128  0.7132  1.2649  1.2654  1.2646  1.4376
                0.5947  1.1372  1.1315  1.1403  0.8915  0.8969  0.8886  0.2677  0.4014  0.4016
                0.2677  0.4015  0.2677  0.7770  1.1647  1.1655  0.7754  1.1650  0.7778  0.2884
                0.4340  0.4328  0.2915  0.4335  0.2869  0.2723  1.2107  0.4787  0.5835  0.4979
                0.6298  0.9596  0.8522  1.0176  0.3016  0.2302  0.3401  0.0018  0.0119  0.0026
                0.0193  0.0073 -0.0065 -0.0031 -0.0011  0.0009  0.0109  0.0012 -0.0049  0.0132
                0.0088 -0.0088 -0.0085

 Gross Charges per Atom (Z minus electrons)
 ==========================================
            -0.0791   -0.4470   -0.4740
 Net Total: -1.00000000


 Atom-Atom Population Matrix (off-diagonal elements not doubled)
 ===============================================================

     1 :    17.1114
     2 :    -0.0203   17.4505
     3 :    -0.0121    0.0168   35.4692


 Frag-Frag Population Matrix (off-diagonal elements not doubled)
 ===============================================================

     1 :    34.5213
     2 :     0.0048   35.4692



 =================================================
 H I R S H F E L D   C H A R G E   A N A L Y S I S
 =================================================
  
 For each fragment: the (numerical) integral of rho(scf) * rho(fragment)/rho(sum-of-fragments)
 (nuclear charges are included, electrons are counted negative)

 The fragments and their ordering are defined in the early G E O M E T R Y output section.
 If you use single-atom fragments, this usually implies that all atoms of the same
 chemical type are grouped together. This may not be the order in which you listed them
 in the input file!

    1  ClCl                     -0.4392
    2  Br                       -0.5608

 Sum of these charges (accuracy NumInt/Tails) =          -1.00000041



 =============================
 V O R O N O I   C H A R G E S
 =============================
  
 For each atom: the (numerical) integral of the total electronic charge density in its Voronoi cell,
 i.e. the region of space that is closer to that atom than to any other atom.
 (cf. Wigner-Seitz cells in crystals)

 Within the Voronoi cell the subintegrals over the atomic sphere and the remaining part are evaluated
 separately to give the numbers of electrons (negative charge) in these regions.
 The net total charge in the cell (including the nuclear charge) is also given.

 Values are provided for
    a) the Initial (sum-of-fragments) density
    b) the Orthogonalized-Fragments density
    c) the SCF density
    d) the Voronoi Deformation Density (VDD): the difference SCF-Initial for the complete atomic cell
 ---------------------------------------------------------------------------------------------------
 Total NetCharge:              -1.000                     -1.000                     -1.000    0.000
 (accuracy NumInt/Tails)

 Remark: the 'NetTotal' Voronoi charges often do not match the Mulliken and/or Hirshfeld charges very
 well. This is caused by the fact that chemically different atoms are not treated in accordance with
 their relative sizes. (Voronoi cells are defined by boundary planes halfway between the atoms.)
 However, the CHANGES in charge, comparing 'Initial' to 'SCF' for instance, do give a fair indication
 of the flow of charge caused by the relaxation from sum-of-fragments to self-consistency.

 Warning: the absolute accuracy of the VDD charges obtained using the Fuzzy Cells (Becke) integration
 scheme is much poorer than the one obtained with an 'equivalent' Voronoi integration grid. 



 =================================================================
 M U L T I P O L E   D E R I V E D   C H A R G E   A N A L Y S I S
 =================================================================

 This charge analysis uses the atomic multipoles (obtained from the fitted density) up to some level X,
 and reconstructs these multipoles exactly (up to level X) by distributing charges over all atoms.
 This is achieved by using Lagrange multipliers and a weight function to keep the multipoles local.

 Dummy atoms can be included (by setting INCDUM in MDC-block to 1) to obtain a fractional charge.
 This is generally useful and necessary only for small symmetrical molecules, when there are not
 enough degrees of freedom to reconstruct the multipoles.

 Since the atomic multipoles are reconstructed up to level X,
 the molecular multipoles are represented also up to level X.
 The recommended level is to reconstruct up to quadrupole : -> MDC-q charges.

 See: M. Swart, P.Th. van Duijnen, J.G. Snijders, J.Comput.Chem., (2001), p. 79-88.

 ------------------------------------------------------------- 
 Atomic electronic multipole moments from SCF equations (a.u.)
 ------------------------------------------------------------- 

   atom        charge        dip-x     dip-y     dip-z      quad-xx   quad-xy   quad-xz   quad-yy   quad-yz   quad-zz
 --------------------------------------------------------------------------------------------------------------------
    1 Cl    -0.247319     0.104110 -0.175345  0.009439    -0.156811 -0.626055  0.033804  0.866748 -0.056888 -0.709937
    2 Cl    -0.419619    -0.117901  0.198525 -0.010729    -0.142270 -0.567557  0.030596  0.785851 -0.051526 -0.643581
    3 Br    -0.333062     0.230911 -0.388884  0.020961    -0.218621 -0.871619  0.046938  1.207150 -0.079075 -0.988529

 --------------------------------------- 
 Multipole derived atomic charges (a.u.)
 --------------------------------------- 

 The MDC-m charges are just the Monopole terms in the multipole expansion, while for the MDC-d charges
 also the Dipoles are reconstructed. The usually preferred charges are the MDC-q charges.
 These reconstruct the Monopoles, Dipoles and Quadrupoles (both atomic AND molecular).

        Atom    Level:     MDC-m        MDC-d        MDC-q
 ---------------------------------------------------------
     1     Cl          -0.247319    -0.111841    -0.066769
     2     Cl          -0.419619    -0.443572    -0.466689
     3     Br          -0.333062    -0.444587    -0.466541

 ------------------------------------------------ 
 Average absolute deviations in atomic multipoles
 ------------------------------------------------ 

 Stated here are the average differences between the atomic multipoles
 and the reconstructed atomic multipoles (from the distributed charges).
 If these values are not zero, this means there are not enough degrees of freedom,
 to be able to reconstruct the atomic multipoles. (This usually happens only
 for small and/or highly symmetric molecules). If this is the case, one could add
 dummy atoms as extra point charges (and setting INCDUM in MDC-block to 1).

 Level:                                 MDC-d        MDC-q
 ---------------------------------------------------------
 Charge   (a.u.)                       0.0000       0.0000
 Dipole   (Debye)                      0.0000       0.0000
 Quad.    (a.u.)                       0.3233       0.1905

 --------------------------------------- 
 Represented molecular multipole moments
 --------------------------------------- 

 Given here are the Molecular multipole moments from the atomic charges, and from the Fit Density.
 Note that the atomic charges represent the latter, NOT the ones from the Exact density.

            Q (a.u.)             Dipole moment (Debye)                                          Quadrupole moment (a.u.)
                                 x         y         z              xx        xy        xz        yy        yz        zz
------------------------------------------------------------------------------------------------------------------------
MDC-m        -1.0000       23.1453  -14.0274    0.1733        -65.9020   86.0690   -1.5067    1.1374    1.5333   64.7647
MDC-d        -1.0000       23.6972  -14.9569    0.2234        -67.4708   95.0488   -1.9154   -2.9404    1.9318   70.4111
MDC-q        -1.0000       23.6972  -14.9569    0.2234        -67.3626   95.6956   -1.9502   -3.5376    1.9905   70.9002
 
Fit.Dens.    -1.0000       23.6972  -14.9569    0.2233        -67.6167   95.2087   -1.9239   -2.1346    1.9464   69.7513



 =============
 Dipole Moment  ***  (Debye)  ***
 =============
  
 Vector   :        23.70338511    -14.96732880      0.22394502
 Magnitude:        28.03429237

 This molecular dipole moment is calculated with analytic integration
 ************************************************************************************
 Since the molecule is NOT NEUTRAL, the dipole moment depends on the choice of origin
 ************************************************************************************



 =========================================
 Quadrupole Moment (Buckingham convention)  ***  (a.u.)  ***
 =========================================
  
      quad-xx        quad-xy        quad-xz        quad-yy        quad-yz        quad-zz
    -67.63727936    94.25992388    -1.87225598    -2.16453492     1.85590547    69.80181428

 This molecular quadrupole moment is calculated with analytic integration
1



                                             *************************
                                             *  SFO MO coefficients  *
                                             *************************
  


                                       === A ===
 MOs expanded in CFs+SFOs
 ========================

 The SFOs have been characterized in an earlier part of output.
 To deduce the bonding / antibonding nature of SFO combinations in an MO, consider the products
 of the coefficients AND THE OVERLAP between the SFOs (may be NEGATIVE). The SFO overlap matrix
 is printed later, in the SFO Populations section.

 (The CF coefficients are not printed)

 MOs :      1        2        3        4        5        6        7        8        9       10
 occup:   2.00     2.00     2.00     2.00     2.00     2.00     2.00     2.00     2.00     2.00
 CF+SFO
     1  -0.0000  -0.4414  -0.8973   0.0000   0.0000  -0.0000  -0.0000  -0.0000  -0.0001   0.0001
     2  -0.0000  -0.8973   0.4414   0.0000   0.0000  -0.0000  -0.0000  -0.0000   0.0000   0.0001
     3   0.0000  -0.0000  -0.0000  -0.0000  -0.0000   0.0000   0.0000   0.7009   0.7133  -0.0008
     4   0.0000  -0.0000   0.0000  -0.0000  -0.0000   0.0000   0.0000   0.7132  -0.7008  -0.0008
     5   0.0000   0.0000  -0.0000  -0.0000   0.0000   0.0000   0.0000   0.0028  -0.0013  -0.0003
     6  -0.0000  -0.0000  -0.0000   0.0000  -0.0000  -0.0000  -0.0000  -0.0029  -0.0013   0.0003
     7   0.0000   0.0000   0.0000  -0.0000   0.0000   0.0000  -0.0000   0.0000   0.0000  -0.0000
     8   0.0000  -0.0000  -0.0000   0.0000   0.0000   0.0000   0.0000   0.0000  -0.0000  -0.0000
     9  -0.0000  -0.0000   0.0000   0.0000  -0.0000  -0.0000   0.0000  -0.0000   0.0000   0.0000
    10  -0.0000   0.0000  -0.0000  -0.0000  -0.0000  -0.0000  -0.0000  -0.0000  -0.0000   0.0000
    11   0.0000   0.0000  -0.0000  -0.0000  -0.0000   0.0000   0.0000  -0.0005   0.0006  -0.0036
    12   0.0000   0.0000  -0.0000  -0.0000  -0.0000   0.0000   0.0000  -0.0005  -0.0000  -0.0041
    13  -0.0000  -0.0000   0.0000   0.0000   0.0000  -0.0000  -0.0000   0.0001  -0.0004   0.0039
    14  -0.0000   0.0000   0.0000   0.0000   0.0000   0.0000  -0.0000   0.0000  -0.0000   0.0000
    15   0.0000  -0.0000   0.0000  -0.0000  -0.0000  -0.0000  -0.0000   0.0000  -0.0000  -0.0000
    16   0.0000  -0.0000  -0.0000  -0.0000  -0.0000  -0.0000  -0.0000   0.0000   0.0000  -0.0000
    17   0.0000   0.0000   0.0000  -0.0000  -0.0000  -0.0000   0.0000  -0.0000   0.0000  -0.0000
    18   0.0000  -0.0000  -0.0000  -0.0000  -0.0000   0.0000   0.0000   0.0001   0.0004  -0.0041
    19   0.0000   0.0000  -0.0000  -0.0000  -0.0000   0.0000   0.0000  -0.0002   0.0008  -0.0058
    20  -0.0000  -0.0000   0.0000   0.0000   0.0000  -0.0000  -0.0000   0.0000  -0.0003   0.0049
    21   0.0000   0.0000  -0.0000  -0.0000  -0.0000   0.0000  -0.0000   0.0000   0.0000  -0.0000
    22  -0.0000  -0.0000   0.0000   0.0000   0.0000  -0.0000  -0.0000   0.0000  -0.0000   0.0000
    23   0.0000   0.0000  -0.0000  -0.0000  -0.0000   0.0000   0.0000  -0.0001   0.0005  -0.0034
    24   0.0000   0.0000   0.0000  -0.0000  -0.0000  -0.0000  -0.0000   0.0000  -0.0000  -0.0000
    25   0.0000   0.0000  -0.0000  -0.0000  -0.0000  -0.0000   0.0000   0.0000  -0.0000  -0.0000
    26   0.0000   0.0000   0.0000  -0.0000  -0.0000  -0.0000   0.0000   0.0000   0.0000   0.0000
    27  -0.0000  -0.0000  -0.0000   0.0000   0.0000   0.0000   0.0000  -0.0000   0.0000   0.0000
    28   0.0000   0.0000   0.0000   0.0000  -0.0000   0.0000  -0.0000  -0.0001  -0.0001  -0.0004
    29   0.0000   0.0000  -0.0000  -0.0000  -0.0000   0.0000  -0.0000  -0.0000   0.0000  -0.0000
    30   0.0000   0.0000  -0.0000  -0.0000  -0.0000  -0.0000  -0.0000   0.0000  -0.0000  -0.0000
    31   0.0000   0.0000  -0.0000  -0.0000  -0.0000  -0.0000   0.0000  -0.0002   0.0001  -0.0010
    32  -0.0000  -0.0000   0.0000  -0.0000  -0.0000  -0.0000   0.0000   0.0000  -0.0000   0.0000
    33  -0.0000  -0.0000   0.0000  -0.0000  -0.0000  -0.0000  -0.0000   0.0000   0.0000   0.0000
    34  -0.0000  -0.0000   0.0000   0.0000   0.0000   0.0000   0.0000  -0.0000  -0.0000   0.0000
    35   0.0000   0.0000  -0.0000  -0.0000  -0.0000  -0.0000   0.0000  -0.0000  -0.0000   0.0000
    36  -0.0000  -0.0000  -0.0000   0.0000  -0.0000   0.0000   0.0000   0.0002  -0.0001  -0.0000
    37   0.0000   0.0000  -0.0000   0.0000  -0.0000   0.0000   0.0000  -0.0000   0.0000  -0.0000
    38   0.0000   0.0000  -0.0000   0.0000   0.0000   0.0000   0.0000  -0.0000   0.0000  -0.0000
    39  -0.0000  -0.0000   0.0000   0.0000   0.0000  -0.0000   0.0000   0.0000  -0.0000  -0.0000
    40  -0.0000   0.0000  -0.0000  -0.0000  -0.0000   0.0000   0.0000  -0.0000   0.0000   0.0000
    41   0.0000   0.0000  -0.0000   0.0000  -0.0000  -0.0000   0.0000   0.0000   0.0000  -0.0000
    42  -0.0000   0.0000   0.0000  -0.0000   0.0000  -0.0000  -0.0000   0.0000  -0.0000   0.0000
    43  -0.0000  -0.0000   0.0000  -0.0000   0.0000  -0.0000   0.0000   0.0001  -0.0002   0.0004
    44   0.0000  -0.0000  -0.0000   0.0000  -0.0000   0.0000  -0.0000  -0.0000  -0.0000  -0.0000
    45  -0.0000  -0.0000   0.0000  -0.0000   0.0000   0.0000   0.0000  -0.0000  -0.0000   0.0000
    46  -0.0000   0.0000   0.0000  -0.0000   0.0000   0.0000  -0.0000  -0.0000  -0.0000   0.0000
    47  -0.0000   0.0000   0.0000  -0.0000   0.0000   0.0000   0.0000  -0.0000  -0.0000   0.0000
    48  -0.0000   0.0000   0.0000  -0.0000   0.0000  -0.0000   0.0000  -0.0001  -0.0002   0.0001
    49   0.0000   0.0000  -0.0000   0.0000  -0.0000   0.0000   0.0000  -0.0000  -0.0000  -0.0000
    50  -0.0000  -0.0000   0.0000   0.0000   0.0000  -0.0000   0.0000   0.0000  -0.0000  -0.0000
    51  -0.0000  -0.0000   0.0000   0.0000  -0.0000   0.0000  -0.0000   0.0005  -0.0005   0.0001
    52   0.0000   0.0000  -0.0000  -0.0000  -0.0000  -0.0000   0.0000  -0.0002   0.0002  -0.0001
    53   0.0000  -0.0000  -0.0000   0.0000   0.0000   0.0000  -0.0000  -0.0000  -0.0000  -0.0000
    54   0.0000  -0.0000  -0.0000   0.0000  -0.0000  -0.0000  -0.0000  -0.0000   0.0000  -0.0000
    55  -0.0000   0.0000   0.0000  -0.0000   0.0000  -0.0000   0.0000  -0.0005  -0.0004   0.0003
    56  -0.0000  -0.0000  -0.0000   0.0000   0.0000   0.0000  -0.0000  -0.0000   0.0000  -0.0000
    57   0.0000   0.0000   0.0000  -0.0000   0.0000  -0.0000  -0.0000  -0.0000   0.0000  -0.0000
    58   0.0000  -0.0000  -0.0000  -0.0000   0.0000  -0.0000   0.0000   0.0003   0.0003  -0.0000
    59  -0.0000   0.0001  -0.0001   0.0000  -0.0000   0.0000  -0.0000  -0.0002   0.0002   0.0001
    60  -0.0000   0.0001   0.0001   0.0000  -0.0000   0.0000  -0.0000  -0.0002  -0.0002  -0.0000
    61   0.0000   0.0000  -0.0000  -0.0000  -0.0000  -0.0000   0.0000  -0.0000   0.0000   0.0000
    62   0.0000   0.0000   0.0000  -0.0000  -0.0000  -0.0000  -0.0000  -0.0000  -0.0000  -0.0000
    63  -0.0000  -0.0000   0.0000   0.0000  -0.0000   0.0000  -0.0000   0.0001  -0.0000   0.0001
    64  -0.0000   0.0000   0.0000  -0.0000  -0.0000  -0.0000   0.0000  -0.0000  -0.0000   0.0000
    65  -0.0000  -0.0000  -0.0000   0.0000  -0.0000  -0.0000  -0.0000  -0.0000   0.0000   0.0000
    66  -0.0000  -0.0000  -0.0000   0.0000  -0.0000   0.0000  -0.0000   0.0001   0.0000   0.0000
    67   0.0000   0.0001  -0.0001  -0.0000   0.0000  -0.0000   0.0000   0.0000  -0.0000  -0.0000
    68  -0.0000  -0.0001  -0.0001   0.0000  -0.0000   0.0000  -0.0000  -0.0000  -0.0000  -0.0000
    69  -1.0000   0.0000  -0.0000   0.0000  -0.0000  -0.0000  -0.0000  -0.0000   0.0000  -0.0000
    70  -0.0000  -0.0000   0.0000  -1.0000   0.0004   0.0000  -0.0000   0.0000  -0.0000   0.0002
    71   0.0000  -0.0000   0.0000  -0.0000  -0.0471   0.7245   0.6876   0.0000  -0.0000   0.0000
    72   0.0000  -0.0000   0.0000  -0.0004  -0.9758  -0.1804   0.1233   0.0000  -0.0000   0.0000
    73  -0.0000   0.0000  -0.0000   0.0001   0.2134  -0.6652   0.7155  -0.0000   0.0000  -0.0000
    74   0.0000  -0.0000   0.0000   0.0001  -0.0000  -0.0000   0.0000   0.0001  -0.0002  -0.9989
    75   0.0000   0.0000  -0.0000   0.0000   0.0000   0.0000  -0.0000  -0.0000   0.0001   0.0014
    76   0.0000   0.0000  -0.0000   0.0000   0.0000  -0.0000   0.0000  -0.0000   0.0000   0.0008
    77  -0.0000  -0.0000   0.0000  -0.0000  -0.0000  -0.0000  -0.0000   0.0000  -0.0000  -0.0001
    78  -0.0000  -0.0000   0.0000  -0.0000  -0.0000  -0.0000  -0.0000  -0.0000  -0.0000  -0.0001
    79  -0.0000  -0.0000   0.0000  -0.0000  -0.0000  -0.0000   0.0000  -0.0000  -0.0000  -0.0006
    80  -0.0000  -0.0000   0.0000  -0.0000  -0.0000  -0.0000  -0.0000  -0.0000  -0.0000  -0.0001
    81  -0.0000  -0.0000   0.0000  -0.0000  -0.0000   0.0000   0.0000  -0.0000  -0.0000  -0.0004
    82   0.0000   0.0000  -0.0000   0.0000   0.0000  -0.0000   0.0000   0.0000   0.0000   0.0006
    83  -0.0000  -0.0000   0.0000  -0.0000   0.0000   0.0000  -0.0000   0.0002  -0.0007   0.0059
    84   0.0000   0.0000  -0.0000  -0.0000  -0.0000  -0.0000   0.0000  -0.0002   0.0006  -0.0053
    85  -0.0000  -0.0000   0.0000   0.0000   0.0000   0.0000   0.0000   0.0000  -0.0000   0.0003
    86  -0.0000  -0.0000   0.0000   0.0000   0.0000  -0.0000   0.0000   0.0001  -0.0003   0.0028
    87  -0.0000  -0.0000   0.0000   0.0000  -0.0000   0.0000  -0.0000   0.0004  -0.0003   0.0039
    88   0.0000   0.0000  -0.0000  -0.0000   0.0000   0.0000  -0.0000  -0.0001   0.0001  -0.0010
    89  -0.0000  -0.0000   0.0000   0.0000  -0.0000  -0.0000  -0.0000   0.0000  -0.0000   0.0002
    90   0.0000   0.0000  -0.0000  -0.0000  -0.0000   0.0000  -0.0000  -0.0002   0.0006  -0.0050
    91  -0.0000   0.0000   0.0000   0.0000   0.0000  -0.0000  -0.0000  -0.0000  -0.0000   0.0004
    92  -0.0000   0.0000   0.0000   0.0000   0.0000  -0.0000  -0.0000  -0.0001  -0.0001   0.0010
    93   0.0000  -0.0000  -0.0000  -0.0000  -0.0000  -0.0000   0.0000   0.0001   0.0001  -0.0017
    94   0.0000  -0.0000  -0.0000  -0.0000  -0.0000  -0.0000  -0.0000   0.0001   0.0001  -0.0015
    95   0.0000  -0.0000  -0.0000  -0.0000  -0.0000   0.0000   0.0000   0.0001   0.0001  -0.0015
    96   0.0000  -0.0000   0.0000   0.0000  -0.0000  -0.0000   0.0000   0.0000  -0.0000  -0.0001
    97  -0.0000   0.0000  -0.0000  -0.0000   0.0000  -0.0000  -0.0000  -0.0003   0.0000   0.0008
    98  -0.0000   0.0000  -0.0000  -0.0000   0.0000   0.0000   0.0000  -0.0000   0.0000   0.0001
    99   0.0000  -0.0000   0.0000   0.0000  -0.0000  -0.0000   0.0000   0.0000  -0.0000  -0.0000
   100  -0.0000   0.0000  -0.0000  -0.0000   0.0000   0.0000   0.0000  -0.0000   0.0000   0.0000
   101   0.0000  -0.0000   0.0000   0.0000  -0.0000  -0.0000  -0.0000   0.0000  -0.0000  -0.0001
   102  -0.0000   0.0000  -0.0000  -0.0000   0.0000   0.0000  -0.0000  -0.0000   0.0000   0.0001
   103  -0.0000   0.0000   0.0000  -0.0000  -0.0000   0.0000  -0.0000  -0.0001  -0.0000   0.0003
   104   0.0000  -0.0000  -0.0000   0.0000   0.0000   0.0000  -0.0000   0.0002   0.0002  -0.0013
   105  -0.0000   0.0000   0.0000  -0.0000  -0.0000   0.0000   0.0000  -0.0000  -0.0000   0.0001
   106   0.0000   0.0000  -0.0000   0.0000  -0.0000  -0.0000   0.0000  -0.0001   0.0000  -0.0009
   107  -0.0000   0.0000   0.0000  -0.0000  -0.0000  -0.0000  -0.0000  -0.0000  -0.0000   0.0002
   108   0.0000  -0.0000  -0.0000   0.0000   0.0000  -0.0000   0.0000   0.0000   0.0000  -0.0001
   109   0.0000  -0.0000  -0.0000   0.0000   0.0000   0.0000  -0.0000   0.0001   0.0000  -0.0007
   110  -0.0000   0.0000   0.0000  -0.0000  -0.0000   0.0000   0.0000  -0.0000  -0.0000   0.0004
   111   0.0000  -0.0000  -0.0000   0.0000   0.0000   0.0000  -0.0000   0.0000   0.0000  -0.0005
   112   0.0000  -0.0000  -0.0000  -0.0000   0.0000   0.0000   0.0000   0.0000   0.0000  -0.0000
   113   0.0000  -0.0000  -0.0000  -0.0000   0.0000  -0.0000   0.0000   0.0000   0.0000  -0.0000
   114   0.0000  -0.0000  -0.0000  -0.0000   0.0000   0.0000  -0.0000   0.0000   0.0000  -0.0000
   115  -0.0000   0.0000  -0.0000  -0.0001   0.0000   0.0000   0.0000  -0.0000   0.0000  -0.0002
   116   0.0000  -0.0000  -0.0000  -0.0000  -0.0000  -0.0000   0.0000   0.0000   0.0000  -0.0000
   117   0.0000  -0.0000  -0.0000  -0.0000  -0.0000  -0.0000   0.0000   0.0000   0.0000  -0.0000
   118  -0.0000   0.0000   0.0000   0.0000   0.0000   0.0000   0.0000  -0.0000  -0.0000   0.0000
   119  -0.0000   0.0000   0.0000   0.0000   0.0000  -0.0000   0.0000  -0.0000  -0.0000   0.0000
   120   0.0000  -0.0000  -0.0000  -0.0000  -0.0000  -0.0000   0.0000   0.0000   0.0000  -0.0000
   121   0.0000  -0.0000  -0.0000   0.0000   0.0000  -0.0000   0.0000   0.0000   0.0000  -0.0000
   122   0.0000  -0.0000  -0.0000   0.0000   0.0000  -0.0001  -0.0000   0.0000   0.0000  -0.0000
   123   0.0000  -0.0000  -0.0000   0.0000   0.0001   0.0000  -0.0000   0.0000   0.0000  -0.0000
   124  -0.0001  -0.0000   0.0000  -0.0000   0.0000   0.0000  -0.0000   0.0000  -0.0000   0.0000

 MOs :     11       12       13       14       15       16       17       18       19       20
 occup:   2.00     2.00     2.00     2.00     2.00     2.00     2.00     2.00     2.00     2.00
 CF+SFO
     1   0.0000  -0.0000  -0.0000   0.0000  -0.0000   0.0000  -0.0000  -0.0000   0.0000   0.0000
     2   0.0000  -0.0000  -0.0000  -0.0000   0.0000  -0.0000  -0.0000  -0.0000   0.0000   0.0000
     3  -0.0028   0.0000  -0.0000  -0.0013   0.0000  -0.0000   0.0000   0.0000  -0.0000  -0.0000
     4  -0.0028   0.0000  -0.0000   0.0013  -0.0000   0.0000   0.0000   0.0000  -0.0000  -0.0000
     5   0.6963   0.0000   0.0000  -0.7178  -0.0000  -0.0000   0.0000   0.0000  -0.0000   0.0000
     6  -0.7178  -0.0000  -0.0000  -0.6963  -0.0000  -0.0000  -0.0000  -0.0000   0.0000  -0.0000
     7  -0.0000  -0.6262   0.0902   0.0000  -0.7652  -0.1192   0.0000  -0.0000   0.0000   0.0000
     8  -0.0000   0.0902   0.6262   0.0000   0.1193  -0.7652  -0.0000   0.0000   0.0000   0.0000
     9   0.0000   0.7665  -0.1105   0.0000  -0.6252  -0.0975  -0.0000   0.0000  -0.0000  -0.0000
    10   0.0001  -0.1105  -0.7665   0.0000   0.0975  -0.6251   0.0000  -0.0000  -0.0000  -0.0000
    11   0.0002  -0.0000   0.0000   0.0001  -0.0000  -0.0000   0.0002   0.0000  -0.0000  -0.0005
    12   0.0003  -0.0000   0.0000   0.0001  -0.0000  -0.0000   0.0003   0.0000  -0.0000  -0.0006
    13  -0.0001   0.0000  -0.0000  -0.0003   0.0000   0.0000  -0.0004  -0.0000   0.0000   0.0007
    14   0.0000   0.0001  -0.0001  -0.0000  -0.0000  -0.0000  -0.0000  -0.0000   0.0000   0.0000
    15   0.0000   0.0001   0.0001  -0.0000  -0.0000   0.0000   0.0000  -0.0000  -0.0000  -0.0000
    16   0.0000   0.0001   0.0001   0.0000  -0.0000   0.0000   0.0000  -0.0000  -0.0000  -0.0000
    17  -0.0000  -0.0001   0.0001  -0.0000   0.0000   0.0000   0.0000   0.0000  -0.0000   0.0000
    18   0.0002  -0.0000   0.0000   0.0000  -0.0000  -0.0000   0.0004   0.0000  -0.0000  -0.0007
    19   0.0004  -0.0000   0.0000   0.0003  -0.0000  -0.0000   0.0004   0.0000  -0.0000  -0.0004
    20  -0.0003   0.0000  -0.0000  -0.0002   0.0000   0.0000  -0.0002  -0.0000   0.0000   0.0004
    21   0.0000   0.0000  -0.0000  -0.0000   0.0000   0.0000   0.0000   0.0000  -0.0001  -0.0000
    22  -0.0000   0.0000   0.0000  -0.0000   0.0000  -0.0000  -0.0000   0.0001   0.0000   0.0000
    23   0.0004  -0.0000   0.0000   0.0001  -0.0000  -0.0000   0.0004   0.0000  -0.0000  -0.0004
    24   0.0000  -0.0000  -0.0001  -0.0000  -0.0000   0.0000   0.0000  -0.0000  -0.0000  -0.0000
    25   0.0000   0.0001  -0.0000   0.0000   0.0000   0.0000   0.0000   0.0000  -0.0000   0.0000
    26   0.0000   0.0001  -0.0001  -0.0000  -0.0000  -0.0000   0.0000  -0.0000   0.0000   0.0000
    27  -0.0000   0.0001   0.0001   0.0000  -0.0000   0.0000  -0.0000  -0.0000  -0.0000   0.0000
    28   0.0002  -0.0000   0.0000   0.0001   0.0000  -0.0000   0.0002  -0.0000  -0.0000  -0.0002
    29  -0.0000  -0.0000  -0.0000   0.0000   0.0000  -0.0000  -0.0000   0.0000  -0.0000   0.0000
    30  -0.0000  -0.0000   0.0000   0.0000   0.0000   0.0000  -0.0000   0.0000  -0.0000   0.0000
    31  -0.0001  -0.0000  -0.0000  -0.0000  -0.0000  -0.0000  -0.0000   0.0000  -0.0000   0.0002
    32   0.0000   0.0000   0.0000  -0.0000   0.0000  -0.0000  -0.0000  -0.0000   0.0000  -0.0000
    33   0.0000  -0.0000   0.0000  -0.0000  -0.0000  -0.0000   0.0000   0.0000  -0.0000   0.0000
    34  -0.0000   0.0001   0.0001  -0.0000   0.0000  -0.0000  -0.0000  -0.0001  -0.0000  -0.0000
    35   0.0000   0.0001  -0.0001  -0.0000   0.0000   0.0000   0.0000  -0.0000   0.0001   0.0000
    36   0.0003   0.0000   0.0000   0.0001   0.0000   0.0000   0.0001  -0.0000  -0.0000  -0.0002
    37   0.0000   0.0000  -0.0000   0.0000  -0.0000   0.0000   0.0000  -0.0000   0.0000  -0.0000
    38  -0.0000  -0.0000  -0.0000   0.0000  -0.0000   0.0000  -0.0000   0.0000   0.0000  -0.0000
    39  -0.0000  -0.0000   0.0001   0.0000  -0.0000  -0.0000  -0.0000   0.0000  -0.0001  -0.0000
    40   0.0000  -0.0001  -0.0000  -0.0000  -0.0000   0.0000   0.0000   0.0001   0.0000   0.0000
    41  -0.0000  -0.0000   0.0000  -0.0000   0.0000   0.0000   0.0000   0.0000  -0.0000   0.0000
    42   0.0000   0.0000   0.0000  -0.0000   0.0000  -0.0000  -0.0000   0.0000  -0.0000  -0.0000
[...]
  114    6.77911966725343E-16 -4.22984626271781E-16  4.13500368582872E-16  2.31752428130214E-16
  115   -1.23016892506611E-15 -7.21265918762455E-16  2.30215142967761E-15  3.86733315985455E-16
  116    2.73730628158383E-16  5.57984906150016E-17  8.25773882733540E-16 -9.40108578467032E-17
  117   -2.33764443950817E-16 -3.89448411441888E-17 -2.58930547202461E-16  4.03337267339889E-16
  118   -7.08834161779392E-16 -4.73689808513269E-16  1.16004068508277E-15 -6.22113116493570E-16
  119   -1.36832788675761E-15  1.10464377742027E-15 -1.40417098589318E-16  6.93121775467670E-16
  120    1.22195302311510E-16 -6.57299678034260E-16 -1.04027300566787E-15  1.28678712209645E-16
  121   -2.24963338186204E-16  1.06796991101701E-16 -3.83053193576110E-16  1.56241175325142E-17
  122    9.47926733412231E-18 -6.67663322418366E-16 -1.89942338344381E-16 -3.31206451861664E-15
  123    3.24571047812578E-16 -1.87564917814628E-16  3.00910532389789E-16  2.28357151103367E-16
  124    5.40474782984024E-16 -2.68340037690162E-17 -2.08383657551714E-16  8.47939272507862E-17

 column         113                   114                   115                   116
 row
  113    1.00000000000000E+00
  114    2.22957895039351E-16  1.00000000000000E+00
  115    2.30599931506853E-15 -1.28236329379927E-14  1.00000000000004E+00
  116    2.96986292438067E-16 -1.89937216803920E-16  5.88596928326693E-16  1.00000000000000E+00
  117   -7.35128936433252E-16 -4.02145799280700E-17 -3.77139748198395E-15 -1.46277687456763E-15
  118    6.05612149332194E-16 -1.08372531444290E-15  3.39447844807230E-16  1.25861979396307E-15
  119   -5.45178396644796E-16 -7.50660615627585E-16 -1.04888857482108E-15  7.45791863629322E-16
  120    5.50793001684967E-16  4.06063341551002E-16  3.59080453868029E-16  4.48189022195521E-16
  121    1.62232690929308E-15  5.29000797752720E-16  1.94733896969001E-16  6.70151546401959E-17
  122    5.25620538036413E-16 -1.63580085083036E-16 -1.33292788002280E-16 -1.07258325549151E-16
  123    2.00155375312551E-15  2.19330981271062E-15  2.13837821813093E-16  1.33720426329824E-16
  124   -3.48584550981246E-16 -2.54882378224186E-16 -1.39598619122716E-14 -2.93412212928890E-17

 column         117                   118                   119                   120
 row
  117    9.99999999999998E-01
  118    1.43734883299449E-15  9.99999999999999E-01
  119   -6.40383827890106E-16  8.59020369282080E-16  9.99999999999999E-01
  120   -3.31391333942813E-16  2.91015055094240E-16 -7.13218847683188E-16  1.00000000000000E+00
  121    4.23664759814021E-16 -3.20336587007008E-16 -1.59307174084008E-16  2.81575633076073E-16
  122    3.42618794788189E-17 -4.99623883522696E-16  1.23234084061184E-16  7.85815533005588E-17
  123    1.80531406856354E-16 -1.40638514159784E-16 -5.02459348741210E-16 -3.84114400127567E-16
  124    3.04606600359802E-16  6.20976794291073E-17  5.44106860261850E-16 -4.17743097058665E-16

 column         121                   122                   123                   124
 row
  121    1.00000000000000E+00
  122    2.82596870256292E-16  1.00000000000001E+00
  123   -8.90537690594769E-16  3.65295433865317E-17  1.00000000000001E+00
  124   -6.06746640777200E-17  4.33533697019616E-17 -2.24829649255603E-16  9.99999999999996E-01


 SFO contributions (%) per orbital
 (multiplication by the orbital occupation yields the SFO Gross Populations)

 Orb.:       26     27     28     29     30     31     32     33     34     35     36     37     38     39
 occup:     2.00   2.00   2.00   2.00   2.00   2.00   2.00   2.00   2.00   2.00   0.00   0.00   0.00   0.00
 CF+SFO     ----   ----   ----   ----   ----   ----   ----   ----   ----   ----   ----   ----   ----   ----
 ------
     11:   16.08   0.17   0.20  -0.00  -0.00   0.14   0.00   0.00   0.00  -0.00   0.12  -0.08  -0.00  -0.00
     12:   55.96  34.37   0.43   0.00   0.00   0.47   0.00   0.00   0.00  -0.00   0.06  -0.26  -0.00  -0.00
     13:    0.37   0.46  74.63   0.00   0.00  22.57   0.00   0.00   0.00   0.00   1.20  -0.51  -0.00  -0.00
     14:    0.00  -0.00   0.00  58.57  20.89   0.00   5.85  14.50  -0.01  -0.02  -0.00  -0.00  -0.00  -0.02
     15:    0.00   0.00   0.00  20.89  58.57   0.00  14.50   5.85  -0.02  -0.01   0.00   0.00  -0.02  -0.00
     16:    0.00   0.00   0.00   0.24   8.03   0.00  12.38  22.45  26.30  30.16   0.00   0.00  -0.03  -0.01
     17:    0.00   0.00   0.00   8.03   0.24   0.00  22.45  12.38  30.16  26.30   0.00   0.00  -0.01  -0.03
     18:    0.31   0.27   2.59   0.00  -0.00  26.85   0.00   0.00   0.00  -0.00  69.03  -0.99  -0.00  -0.00
     19:    0.01  -0.32  -0.03   0.00  -0.00  -0.35  -0.00  -0.00  -0.00   0.00  -1.36   2.16   0.00  -0.00
     20:   -0.14  -0.03  -0.04  -0.00   0.00  -0.50  -0.00  -0.00  -0.00  -0.00  -0.41  -4.42  -0.00  -0.00
     21:   -0.00   0.00   0.00   0.06   0.03  -0.00  -0.03  -0.10   0.00   0.01  -0.00  -0.00   0.05   1.37
     22:    0.00   0.00   0.00   0.03   0.06  -0.00  -0.10  -0.03   0.01   0.00   0.00   0.00   1.37   0.05
     23:    0.07   0.05   0.09   0.00  -0.00  -0.11  -0.00  -0.00   0.00  -0.00   0.33   5.29   0.00   0.00
     83:   27.02  64.80   1.15  -0.00   0.00  -0.01  -0.00  -0.00  -0.00   0.00   0.61   0.04  -0.00   0.00
     84:    0.24   0.16  15.90   2.48   0.12  39.04   5.84   3.81   4.58   4.70  23.09   1.98   0.03   0.06
     85:    0.00   0.00   0.04   1.02  10.99   0.09  21.17  23.21  25.26  17.62   0.06   0.00   0.31   0.09
     86:    0.06   0.04   4.34   8.53   0.93  10.73  17.45  17.44  13.12  20.64   6.31   0.54   0.06   0.25
     87:   -0.03  -0.06   0.07  -0.01  -0.01   0.69   0.00   0.01   0.00   0.03  -0.32  89.31   0.15   6.54
     88:   -0.00  -0.00   0.01  -0.24  -0.05   0.05   0.04   0.06   0.14   0.34  -0.02   6.36  11.24  79.17
     89:   -0.00  -0.00   0.00  -0.06  -0.25   0.00   0.07   0.04   0.37   0.14  -0.00   0.27  85.45  11.12


 Summation over all MOs, multiplied by occupation: Total SFO Gross Populations in this Irrep
 ===========================================================================================

     2.00    2.00    2.00    2.00    2.00    2.00    2.00    2.00    2.00    2.00    2.00    2.00
     1.96    2.00    2.00    1.99    1.99    0.60   -0.01   -0.01   -0.00   -0.00    0.00    0.00
     0.00    0.00    0.00    0.01    0.00    0.00    0.00    0.00    0.00    0.00    0.00   -0.00
     0.00    0.00    0.00    0.00    0.00    0.00    0.00    0.00    0.00    0.00    0.00    0.00
     0.00    0.00    0.00    0.00    0.00    0.00   -0.00    0.00    0.00    0.00    0.00    0.00
    -0.00   -0.00    0.00   -0.00   -0.00   -0.00    0.00    0.00    2.00    2.00    2.00    2.00
     2.00    2.00    2.00    2.00    2.00    2.00    2.00    2.00    2.00    2.00    2.00    1.55
     1.99    1.87    0.01    0.01    0.01   -0.00    0.00    0.01    0.01    0.01    0.00    0.00
     0.00    0.00    0.00    0.00    0.00    0.00    0.00   -0.00    0.00    0.00   -0.00   -0.00
    -0.00   -0.00   -0.00   -0.00   -0.00   -0.00    0.00   -0.00   -0.00   -0.00   -0.00   -0.00
     0.00    0.00    0.00   -0.00



 List of all MOs, ordered by energy, with the most significant SFO gross populations
 ===================================================================================

 Each percentage contribution in the table below corresponds to the indicated SFO.
 In general, a SFO may be a linear combination of several Fragment Orbitals on the same,
 or on symmetry-related Fragments. Only the first 'member' of such a combination is
 specified here. A full definition of all SFOs is given in an earlier part of the output.
 The numbering of the SFOs in this table does NOT include the Core Orbitals, and starts
 from one for each symmetry representation, as in the SFO definition list earlier.

       E(eV)  Occ       MO           %     SFO (first member)   E(eV)  Occ   Fragment
 -------------------------------------------------------------------------------------

     -16.024  2.00    25 A         83.18%    11 A             -21.546  2.00     1 ClCl
                                    8.57%    12 A             -19.914  2.00     1 ClCl
                                    6.97%    15 A             -10.500  2.00     2 Br
     -14.392  2.00    26 A         55.96%    12 A             -19.914  2.00     1 ClCl
                                   27.02%    15 A             -10.500  2.00     2 Br
                                   16.08%    11 A             -21.546  2.00     1 ClCl
     -13.459  2.00    27 A         64.80%    15 A             -10.500  2.00     2 Br
                                   34.37%    12 A             -19.914  2.00     1 ClCl
      -5.754  2.00    28 A         74.63%    13 A             -10.926  2.00     1 ClCl
                                   15.90%    16 A               0.447  2.00     2 Br
                                    4.34%    18 A               0.447  2.00     2 Br
                                    2.59%    18 A              -6.720  0.00     1 ClCl
                                    1.15%    15 A             -10.500  2.00     2 Br
      -3.762  2.00    29 A         58.57%    14 A              -9.029  2.00     1 ClCl
                                   20.89%    15 A              -9.029  2.00     1 ClCl
                                    8.53%    18 A               0.447  2.00     2 Br
                                    8.03%    17 A              -7.866  2.00     1 ClCl
                                    2.48%    16 A               0.447  2.00     2 Br
                                    1.02%    17 A               0.447  2.00     2 Br
      -3.762  2.00    30 A         58.57%    15 A              -9.029  2.00     1 ClCl
                                   20.89%    14 A              -9.029  2.00     1 ClCl
                                   10.99%    17 A               0.447  2.00     2 Br
                                    8.03%    16 A              -7.866  2.00     1 ClCl
      -2.624  2.00    31 A         39.04%    16 A               0.447  2.00     2 Br
                                   26.85%    18 A              -6.720  0.00     1 ClCl
                                   22.57%    13 A             -10.926  2.00     1 ClCl
                                   10.73%    18 A               0.447  2.00     2 Br
      -2.609  2.00    32 A         22.45%    17 A              -7.866  2.00     1 ClCl
                                   21.17%    17 A               0.447  2.00     2 Br
                                   17.45%    18 A               0.447  2.00     2 Br
                                   14.50%    15 A              -9.029  2.00     1 ClCl
                                   12.38%    16 A              -7.866  2.00     1 ClCl
                                    5.85%    14 A              -9.029  2.00     1 ClCl
                                    5.84%    16 A               0.447  2.00     2 Br
      -2.609  2.00    33 A         23.21%    17 A               0.447  2.00     2 Br
                                   22.45%    16 A              -7.866  2.00     1 ClCl
                                   17.44%    18 A               0.447  2.00     2 Br
                                   14.50%    14 A              -9.029  2.00     1 ClCl
                                   12.38%    17 A              -7.866  2.00     1 ClCl
                                    5.85%    15 A              -9.029  2.00     1 ClCl
                                    3.81%    16 A               0.447  2.00     2 Br
      -1.974  2.00    34 A         30.16%    17 A              -7.866  2.00     1 ClCl
                                   26.30%    16 A              -7.866  2.00     1 ClCl
                                   25.26%    17 A               0.447  2.00     2 Br
                                   13.12%    18 A               0.447  2.00     2 Br
                                    4.58%    16 A               0.447  2.00     2 Br
      -1.974  2.00    35 A         30.16%    16 A              -7.866  2.00     1 ClCl
                                   26.30%    17 A              -7.866  2.00     1 ClCl
                                   20.64%    18 A               0.447  2.00     2 Br
                                   17.62%    17 A               0.447  2.00     2 Br
                                    4.70%    16 A               0.447  2.00     2 Br
       0.239  0.00    36 A         69.03%    18 A              -6.720  0.00     1 ClCl
                                   23.09%    16 A               0.447  2.00     2 Br
                                    6.31%    18 A               0.447  2.00     2 Br
                                   -1.36%    19 A               4.783  0.00     1 ClCl
                                    1.20%    13 A             -10.926  2.00     1 ClCl



 =======================================================================
 Electrostatic potential at the Nuclei due to electrons and other nuclei
 =======================================================================
  
         Atom                  Potential
         ----                  ---------
     1)   Cl                 64.57886882
     2)   Cl                 64.62106709
     3)   Br                176.13695819
 
 
 ========================
 No memory problems found
 ========================
 
 Maximum number of active allocate calls:         652
 
 *******************************************************************************

                             A D F   E X I T
 NORMAL TERMINATION



 =================
 Timing Statistics
 =================
  
 Total Used :                     CPU=        6.64      System=        0.23     Elapsed=        7.16

 Calls  Section                     ( Mean, Percentage )
 ---------------------------------------------------------------------------------------------------
     3  ><      ................      0.00    0.03             0.00    0.00             0.00    0.02
     1  INIT    ................      0.46    6.91             0.03   14.10             0.49    6.91
     1  GEOMET  ................      0.03    0.50             0.00    1.76             0.25    3.51
     1  FRAGM   ................      0.01    0.17             0.01    3.08             0.03    0.43
     1  INPUTA  ................      0.00    0.00             0.00    0.00             0.00    0.01
     1  ATDEN   ................      0.00    0.05             0.00    0.44             0.00    0.06
     1  MAINSY  ................      0.01    0.12             0.00    1.32             0.01    0.21
     1  SYMFIT  ................      0.00    0.02             0.00    0.44             0.00    0.03
     1  CORORT  ................      0.00    0.02             0.00    0.00             0.00    0.01
     1  SYMORB  ................      0.00    0.05             0.00    0.00             0.00    0.05
     1  CLSMAT  ................      0.01    0.12             0.00    0.00             0.01    0.11
     1  ORTHON  ................      0.01    0.15             0.00    0.88             0.01    0.16
     1  GENPT   ................      0.11    1.69             0.01    3.08             0.12    1.69
     1  PTBAS   ................      0.04    0.62             0.00    0.00             0.04    0.56
    17  FOCKY   ................      0.12   31.40             0.00    7.05             0.12   29.47
    17  FOCKTR  ................      0.00    0.54             0.00    0.88             0.00    0.54
    17  SDIIS   ................      0.00    0.89             0.00    2.64             0.00    0.93
     1  COREPS  ................      0.10    1.58             0.00    0.44             0.11    1.50
     1  TOTEN   ................      0.33    5.03             0.00    1.32             0.34    4.72
     1  POPAN   ................      0.00    0.03             0.00    0.88             0.01    0.12
     1  DEBYE   ................      0.01    0.09             0.00    0.44             0.01    0.09
     1  INPUTE  ................      0.00    0.00             0.00    0.44             0.00    0.02
     1  SYMORE  ................      0.00    0.02             0.00    0.00             0.00    0.02
     1  METS    ................      0.00    0.02             0.00    0.00             0.00    0.01
     1  CETS    ................      0.01    0.23             0.00    0.44             0.03    0.41
     1  POPUL   ................      3.28   49.38             0.13   59.03             3.44   48.00
     1  EXIT PROCEDURE .........      0.03    0.39             0.00    1.32             0.03    0.42


 Currently Open Files (EXIT00)
 ====================

 Unit    Access Format  Status   Type       Ident (file)
 -------------------------------------------------------
   3      SEQ    FORM   TRANSP  NORMAL      LOGFILE
                                          ( logfile )


 Buffered I/O statistics
 =======================
 Memory available:                     67108864
 Number of records fitting in memory:     16131
 Input :   1.0% of                        55605  *4k bytes
 Output:  12.6% of                         4369  *4k bytes
 Records from serial files evicted:           0
                    others evicted:           0
 Hash table lookups:     158545 with          0 conflicts (  0.00%)

 ***************************************************************************************************
 (LOGFILE)
 <May09-2019> <17:12:04>  ADF 2017  RunTime: May09-2019 17:12:04  Nodes: 1  Procs: 12
 <May09-2019> <17:12:05>  *** (NO TITLE) ***
 <May09-2019> <17:12:05>  RunType   : SINGLE POINT
 <May09-2019> <17:12:05>  Net Charge: -1 (Nuclei minus Electrons)
 <May09-2019> <17:12:05>  Symmetry  : NOSYM
 <May09-2019> <17:12:05>  >>>> FRAGM
  Coordinates
    Atom         X           Y           Z   (Angstrom)
    1.Cl       -4.903412    3.063063   -0.043765
    2.Cl       -3.674393    0.992968    0.067635
    3.Br       -6.197576    5.242888   -0.161071
 <May09-2019> <17:12:05>  >>>> CORORT
 <May09-2019> <17:12:05>  >>>> CLSMAT
 <May09-2019> <17:12:05>  >>>> ORTHON
 <May09-2019> <17:12:05>  >>>> GENPT
 <May09-2019> <17:12:05>  Block Length= 128
 <May09-2019> <17:12:05>  >>>> PTBAS
 <May09-2019> <17:12:05>  >>>> CYCLE
 <May09-2019> <17:12:05>              |Error|         MaxErr       Wt(A-DIIS)
 <May09-2019> <17:12:05>      1      1.28484051      0.66227179
 <May09-2019> <17:12:05>      2      0.91138228      0.38018428    100.0
 <May09-2019> <17:12:06>      3      0.58809323      0.27964352    100.0
 <May09-2019> <17:12:06>      4      0.55529526      0.27273477    100.0
 <May09-2019> <17:12:06>      5      1.53701628      0.48643121    100.0
 <May09-2019> <17:12:06>      6      0.50088244      0.16466431    100.0
 <May09-2019> <17:12:06>      7      0.29825184      0.13493635    100.0
 <May09-2019> <17:12:06>      8      0.32841692      0.13468237    100.0
 <May09-2019> <17:12:06>      9      0.02663302      0.01091484     10.0
 <May09-2019> <17:12:06>     10      0.01499226      0.00643366      5.5
 <May09-2019> <17:12:07>     11      0.00187357      0.00088446      0.0
 <May09-2019> <17:12:07>     12      0.00068338      0.00026669      0.0
 <May09-2019> <17:12:07>     13      0.00021469      0.00010019      0.0
 <May09-2019> <17:12:07>     14      0.00007027      0.00002821      0.0
 <May09-2019> <17:12:07>     15      0.00001277      0.00000554      0.0
 <May09-2019> <17:12:07>     16      0.00000203      0.00000056      0.0
 <May09-2019> <17:12:07>  SCF converged
 <May09-2019> <17:12:07>     17      0.00000033      0.00000014      0.0
 <May09-2019> <17:12:07>  >>>> TOTEN
 <May09-2019> <17:12:08>  >>>> POPAN
 <May09-2019> <17:12:08>  >>>> DEBYE
 <May09-2019> <17:12:08>  >>>> AMETS
 <May09-2019> <17:12:11>   Bond Energy          -0.08333464 a.u.
 <May09-2019> <17:12:11>   Bond Energy          -2.26765088 eV
 <May09-2019> <17:12:11>   Bond Energy         -52.29       kcal/mol
 <May09-2019> <17:12:11>  >>>> POPUL
 <May09-2019> <17:12:11>  NORMAL TERMINATION
 <May09-2019> <17:12:11>  END
