
Create Sc   file=TZ2P-Sc
XC
  GGA blyp
End
End Input

 *******************************************************************************
 *                                                                             *
 *  -------------------------------------                                      *
 *   Amsterdam Density Functional  (ADF)         2017                          *
 *  -------------------------------------                                      *
 *                                               r58813 2017-04-12             *
 *                                                                             *
 *                                                                             *
 *                              =================                              *
 *                              |               |                              *
 *                              |     A D F     |                              *
 *                              |               |                              *
 *                              =================                              *
 *                                                                             *
 *                                                                             *
 *   Online information and documentation:  https://www.scm.com/support/       *
 *   E-mail:  support@scm.com   info@scm.com                                   *
 *                                                                             *
 *   Scientific publications using ADF results must be properly referenced     *
 *   See the User Manuals (or the web site) for recommended citations          *
 *   The terms and conditions of the End User License Agreement apply to       *
 *   the use of ADF, https://www.scm.com/license-terms/                        *
 *                                                                             *
 **********************  x86_64_linux_intel / intelmpi  ************************
 
 Licensed to: VU/FEW (+ SARA) / ALGEMEEN / Amsterdam / THE NETHERLANDS
 SCM User ID: u7668
  
 ADF 2017  RunTime: May19-2019 11:26:32  Nodes: 1  Procs: 1

 Temporary files are created in /local/datastore0/tcst25/190764/kid_0.pAXoYg

 Scandium (TZ2P)



 ===========================
 A T T A C H E D   F I L E S
 ===========================
  
 CREATE - Data File:    TZ2P-Sc
                        Scandium (TZ2P)



 ===============================
 M O D E L   P A R A M E T E R S
 ===============================
  
 DENSITY FUNCTIONAL POTENTIAL (scf)
    LDA:                               Exchange only                           == Not Default ==
    Gradient Corrections:              Becke88 LYP                             == Not Default ==

 SPIN  (restricted / unrestr.)
    Molecule:                          Restricted                               

 OTHER ASPECTS
    Relativistic Corrections:          ---                                      

    Nuclear Charge Density Model:      Point Charge Nuclei                      
    Core Treatment:                    Frozen Orbital(s)                        

    Hyperfine or Zeeman Interaction:   ---                                      



 =====================================
 S Y M M E T R Y ,   E L E C T R O N S
 =====================================
  
 Symmetry: ATOM

 Irreducible Representations, including subspecies
 -------------------------------------------------
 S
 P:x  P:y  P:z
 D:z2  D:x2-y2  D:xy  D:xz  D:yz
 F:z3  F:z  F:xyz  F:z2x  F:z2y  F:x  F:y


 Configuration of Valence Electrons
 ==================================

          Occupation Numbers
          -------------------------------------------------
 S        4*2
 P        2*6
 D        1
 F        0
          -------------------------------------------------

 Total:   21

 Net Charge: 0 (Nuclei minus Electrons)

 Preset values for MO occupations will be applied through SCF cycle no. 1000000
 Thereafter, the program will assign electrons to MOs that are spatially
 similar to the occupied MOs in a "reference" cycle ("KeepOrbitals").
 The reference cycle is always the PREVIOUS cycle: it will evolve with
 the SCF procedure.



 ================================
 (Slater-type)  F U N C T I O N S  ***  (Basis and Fit)  ***
 ================================
  

 Atom Type    1  (Sc)
 ==============

 Valence Basis Sets:  19
 -----------------------
   1 S   25.200000
   1 S   19.150000
   2 S    7.950000
   2 S    5.850000
   2 P   11.650000
   2 P    6.950000
   3 S    4.300000
   3 S    2.750000
   3 P    5.150000
   3 P    3.350000
   3 P    2.150000
   3 D    4.400000
   3 D    2.000000
   3 D    0.900000
   4 S    1.800000
   4 S    1.160000
   4 S    0.780000
   4 P    1.140000
   4 F    2.200000


 BAS: List of all Elementary Cartesian Basis Functions
 =====================================================

 The numbering in the list below (to the right of the function characteristics) is referred
 to in print-outs of MO eigenvectors and Mulliken populations in the BAS representation
 (as contrasted to the SFO representation).

 Notes:
 1. The functions are characterized by a polynomial prefactor (powers of x,y,z and r) and
    an exponential decay factor alpha.
 2. Since the basis sets are specific for an atom TYPE, the individual functions occur on
    all atoms of that type.
 3. The word 'Core' in the left margin signals that it is a Core Function (CF) : not a
    degree of freedom in the valence set, but only used to ensure orthogonalization of
    the other valence basis functions on the frozen Core Orbitals.


 (power of) X  Y  Z  R     Alpha  on Atom
            ==========     =====     ==========

 Sc                                   1
                                  ---------------------------------------------------------------------------
            0  0  0  0    25.200      1
            0  0  0  0    19.150      2
            0  0  0  1     7.950      3
            0  0  0  1     5.850      4
            1  0  0  0    11.650      5
            0  1  0  0    11.650      6
            0  0  1  0    11.650      7
            1  0  0  0     6.950      8
            0  1  0  0     6.950      9
            0  0  1  0     6.950     10
            0  0  0  2     4.300     11
            0  0  0  2     2.750     12
            1  0  0  1     5.150     13
            0  1  0  1     5.150     14
            0  0  1  1     5.150     15
            1  0  0  1     3.350     16
            0  1  0  1     3.350     17
            0  0  1  1     3.350     18
            1  0  0  1     2.150     19
            0  1  0  1     2.150     20
            0  0  1  1     2.150     21
            2  0  0  0     4.400     22
            1  1  0  0     4.400     23
            1  0  1  0     4.400     24
            0  2  0  0     4.400     25
            0  1  1  0     4.400     26
            0  0  2  0     4.400     27
            2  0  0  0     2.000     28
            1  1  0  0     2.000     29
            1  0  1  0     2.000     30
            0  2  0  0     2.000     31
            0  1  1  0     2.000     32
            0  0  2  0     2.000     33
            2  0  0  0     0.900     34
            1  1  0  0     0.900     35
            1  0  1  0     0.900     36
            0  2  0  0     0.900     37
            0  1  1  0     0.900     38
            0  0  2  0     0.900     39
            0  0  0  3     1.800     40
            0  0  0  3     1.160     41
            0  0  0  3     0.780     42
            1  0  0  2     1.140     43
            0  1  0  2     1.140     44
            0  0  1  2     1.140     45
            3  0  0  0     2.200     46
            2  1  0  0     2.200     47
            2  0  1  0     2.200     48
            1  2  0  0     2.200     49
            1  1  1  0     2.200     50
            1  0  2  0     2.200     51
            0  3  0  0     2.200     52
            0  2  1  0     2.200     53
            0  1  2  0     2.200     54
            0  0  3  0     2.200     55

 Total number of charge fitting functions (nprimf)       170
 Total number of Cartesian basis functions (naos)         55
 Total number of Cartesian core functions  (ncos)          0



 BAS: List of all Elementary Cartesian Basis Functions
 =====================================================

 The numbering in the list below (to the right of the function characteristics) is referred
 to in print-outs of MO eigenvectors and Mulliken populations in the BAS representation
 (as contrasted to the SFO representation).

 Notes:
 1. The functions are characterized by a polynomial prefactor (powers of x,y,z and r) and
    an exponential decay factor alpha.
 2. Since the basis sets are specific for an atom TYPE, the individual functions occur on
    all atoms of that type.
 3. The word 'Core' in the left margin signals that it is a Core Function (CF) : not a
    degree of freedom in the valence set, but only used to ensure orthogonalization of
    the other valence basis functions on the frozen Core Orbitals.


 (power of) X  Y  Z  R     Alpha  on Atom
            ==========     =====     ==========

 Sc                                   1
                                  ---------------------------------------------------------------------------
            0  0  0  0    25.200      1
            0  0  0  0    19.150      2
            0  0  0  1     7.950      3
            0  0  0  1     5.850      4
            1  0  0  0    11.650      5
            0  1  0  0    11.650      6
            0  0  1  0    11.650      7
            1  0  0  0     6.950      8
            0  1  0  0     6.950      9
            0  0  1  0     6.950     10
            0  0  0  2     4.300     11
            0  0  0  2     2.750     12
            1  0  0  1     5.150     13
            0  1  0  1     5.150     14
            0  0  1  1     5.150     15
            1  0  0  1     3.350     16
            0  1  0  1     3.350     17
            0  0  1  1     3.350     18
            1  0  0  1     2.150     19
            0  1  0  1     2.150     20
            0  0  1  1     2.150     21
            2  0  0  0     4.400     22
            1  1  0  0     4.400     23
            1  0  1  0     4.400     24
            0  2  0  0     4.400     25
            0  1  1  0     4.400     26
            0  0  2  0     4.400     27
            2  0  0  0     2.000     28
            1  1  0  0     2.000     29
            1  0  1  0     2.000     30
            0  2  0  0     2.000     31
            0  1  1  0     2.000     32
            0  0  2  0     2.000     33
            2  0  0  0     0.900     34
            1  1  0  0     0.900     35
            1  0  1  0     0.900     36
            0  2  0  0     0.900     37
            0  1  1  0     0.900     38
            0  0  2  0     0.900     39
            0  0  0  3     1.800     40
            0  0  0  3     1.160     41
            0  0  0  3     0.780     42
            1  0  0  2     1.140     43
            0  1  0  2     1.140     44
            0  0  1  2     1.140     45
            3  0  0  0     2.200     46
            2  1  0  0     2.200     47
            2  0  1  0     2.200     48
            1  2  0  0     2.200     49
            1  1  1  0     2.200     50
            1  0  2  0     2.200     51
            0  3  0  0     2.200     52
            0  2  1  0     2.200     53
            0  1  2  0     2.200     54
            0  0  3  0     2.200     55
1
 ***************************************************************************************************



                                              ***********************
                                              *  T E C H N I C A L  *
                                              ***********************
  



 =============================================================
 P A R A L L E L I Z A T I O N  and  V E C T O R I Z A T I O N
 =============================================================
  
 Nr of parallel processes:                                1
 Maximum vector length in NumInt loops:                 128

 IO buffersize (Mb):                                     64.000000



 =====================
 S C F   U P D A T E S
 =====================
  
 Max. nr. of cycles:                               300
 Convergence criterion:                              0.0000000100
   secondary criterion:                              0.0000000100

 Mix parameter (when DIIS does not apply):           0.2000000000
 Special mix parameter for the first cycle:          1.0000000000
 Mixed ADIIS+DIIS will be used
    Max number of expansion vectors:                10
    Pure ADIIS when Max([F,P]) is above              0.1000000000
    Pure DIIS when Max([F,P]) is below               0.0010000000
 Automatic ElectronSmearing (in case of problematic SCF convergence) disabled



 =================
 P R E C I S I O N  ***  (General: NumInt, NeglectFunctionTails, ...)  ***
 =================
  

 NumInt:           Target precision:                12.0000000000
 -------           Initial precision:               10.0000000000
                   Min. precision (optimization):   10.0000000000

 Neglect Functions:          Basis functions:        0.1000000000E-13
 ------------------          Fit functions:          0.1000000000E-13



 ===========================
 L I N E A R   S C A L I N G
 ===========================
  

 Cut-off radii density fit:                        0.1000000000E-97
 Overlap cut-off criterion AO matrix elements:     0.1000000000E-97
 Cut-offs for Coulomb potential and fitted density:0.1000000000E-97
 Cut-off criterion for Coulomb multipole terms:    0.1000000000E-97
 Progressive Convergence parameter:                 0.000000000    
1
 ***************************************************************************************************



                                            ***************************
                                            *  C O M P U T A T I O N  *
                                            ***************************
  

 Number of elements of the density matrix on this node (used, total):      1540      1540



 ===========================================
 Numerical Integration : Fuzzy Cells (Becke)
 ===========================================
  
 Becke grid quality: VERYGOOD       
  
 Lebedev angular grid order:             min:  13 max:  41
 Nr. of radial points:                   min: 102 max: 102

 Total nr. of points:        102
 Nr. of blocks:                1
 Block length:               102
 Nr. of dummy points:          0


 Test of Precision of the Numerical Integration Grid
 ===================================================

 Integral of the Total Core Density:                   0.00000000000000



 ========================
 Density Fitting (zlmFit)
 ========================
  
 ZlmFit Fit Quality: VERYGOOD       
  
 Max L-expansion:                        min:   0 max:   0
 Nr. of radial interpolation points:     min: 210 max: 210



 =====
 S C F  ***  ScaSCF  ***
 =====
  

 CYCLE    1
 SCF Error: norm([F,P])=      0.000000000000, max([F,P])=      0.000000000000
 orbitals (Q,E):
 ---------------
 S :1...9            ( 2.00  -220.4883)  ( 2.00   -55.1028)  ( 2.00   -24.4401)  ( 2.00   -13.5471)
                     ( 0.00    -8.3232)  ( 0.00    -5.5613)  ( 0.00    -3.9184)  ( 0.00    -2.5507)
                     ( 0.00   285.1819)
 P :1...6            ( 6.00   -55.1012)  ( 6.00   -24.3471)  ( 0.00   -13.5277)  ( 0.00    -8.2704)
                     ( 0.00    -4.6088)  ( 0.00     7.3893)
 D :1...3            ( 1.00   -21.6890)  ( 0.00   -10.3209)  ( 0.00    -4.7779)
 F :1...1            ( 0.00    -9.1300)

 CYCLE    2
  SDIIS (wt  0.000):  1.0000  0.0000
 A-DIIS (wt  1.000):  0.0000  1.0000
  DIIS coefficients:  0.0000  1.0000
 SCF Error: norm([F,P])=     55.822850565367, max([F,P])=     13.327426654564
 orbitals (Q,E):
 ---------------
 S :1...5            ( 2.00  -142.7387)  ( 2.00    -7.9954)  ( 2.00    -0.1029)  ( 2.00     0.0407)
                     ( 0.00     0.2825)
 P :1...3            ( 6.00    -4.3231)  ( 6.00     0.0254)  ( 0.00     0.6103)
 D :1...2            ( 1.00     0.1867)  ( 0.00     1.4680)
 F :1...1            ( 0.00     2.0192)

 CYCLE    3
  SDIIS (wt  0.000):  0.1526  0.8474
 A-DIIS (wt  1.000):  0.2353  0.7647
  DIIS coefficients:  0.2353  0.7647
 SCF Error: norm([F,P])=     21.620691354031, max([F,P])=      6.065355166903
 orbitals (Q,E):
 ---------------
 S :1...5            ( 2.00  -165.8939)  ( 2.00   -21.4253)  ( 2.00    -4.8079)  ( 2.00    -1.2762)
                     ( 0.00    -0.2532)
 P :1...3            ( 6.00   -18.5842)  ( 6.00    -3.9892)  ( 0.00    -1.0079)
 D :1...2            ( 1.00    -2.6851)  ( 0.00    -0.5254)
 F :1...1            ( 0.00    -0.3066)

 CYCLE    4
  SDIIS (wt  0.000): -0.0346  0.1082  0.9264
 A-DIIS (wt  1.000):  0.0000  0.0000  1.0000
  DIIS coefficients:  0.0000  0.0000  1.0000
 SCF Error: norm([F,P])=      5.801545996496, max([F,P])=      1.927838068905
 orbitals (Q,E):
 ---------------
 S :1...5            ( 2.00  -157.3026)  ( 2.00   -14.7944)  ( 2.00    -0.8927)  ( 2.00    -0.0250)
                     ( 0.00     0.1029)
 P :1...3            ( 6.00   -11.6876)  ( 6.00    -0.2650)  ( 0.00     0.1435)
 D :1...2            ( 1.00     0.1897)  ( 0.00     0.8242)
 F :1...1            ( 0.00     1.6428)

 CYCLE    5
  SDIIS (wt  0.000): -0.0130 -0.0316  0.4901  0.5545
 A-DIIS (wt  1.000):  0.0000  0.0000  0.5158  0.4842
  DIIS coefficients:  0.0000  0.0000  0.5158  0.4842
 SCF Error: norm([F,P])=      5.298079975550, max([F,P])=      1.937478774042
 orbitals (Q,E):
 ---------------
 S :1...5            ( 2.00  -160.6631)  ( 2.00   -17.3137)  ( 2.00    -2.1346)  ( 2.00    -0.2034)
                     ( 0.00    -0.0093)
 P :1...3            ( 6.00   -14.3061)  ( 6.00    -1.3710)  ( 0.00    -0.0775)
 D :1...2            ( 1.00    -0.2425)  ( 0.00     0.1246)
 F :1...1            ( 0.00     1.0579)

 CYCLE    6
  SDIIS (wt  0.374):  0.0008 -0.0061  0.0141  0.0207  0.9706
 A-DIIS (wt  0.626):  0.0000  0.0000  0.0000  0.0000  1.0000
  DIIS coefficients:  0.0003 -0.0023  0.0053  0.0077  0.9890
 SCF Error: norm([F,P])=      0.233016811475, max([F,P])=      0.063021735768
 orbitals (Q,E):
 ---------------
 S :1...5            ( 2.00  -160.5672)  ( 2.00   -17.1266)  ( 2.00    -1.8883)  ( 2.00    -0.1190)
                     ( 0.00     0.0417)
 P :1...3            ( 6.00   -14.1298)  ( 6.00    -1.1305)  ( 0.00    -0.0096)
 D :1...2            ( 1.00    -0.0459)  ( 0.00     0.2153)
 F :1...1            ( 0.00     1.2384)

 CYCLE    7
  SDIIS (wt  0.374): -0.0002  0.0008  0.0124 -0.0178  0.3241  0.6806
 A-DIIS (wt  0.626):  0.0000  0.0000  0.0000  0.0000  0.4380  0.5620
  DIIS coefficients: -0.0001  0.0003  0.0046 -0.0067  0.3954  0.6063
 SCF Error: norm([F,P])=      0.220847255551, max([F,P])=      0.068101989237
 orbitals (Q,E):
 ---------------
 S :1...5            ( 2.00  -160.7235)  ( 2.00   -17.2802)  ( 2.00    -1.9999)  ( 2.00    -0.1477)
                     ( 0.00     0.0285)
 P :1...3            ( 6.00   -14.2841)  ( 6.00    -1.2370)  ( 0.00    -0.0347)
 D :1...2            ( 1.00    -0.1225)  ( 0.00     0.1732)
 F :1...1            ( 0.00     1.1746)

 CYCLE    8
  SDIIS (wt  0.783): -0.0000  0.0001 -0.0013  0.0000  0.0866  0.1711  0.7435
 A-DIIS (wt  0.217):  0.0000  0.0000  0.0000  0.0000  0.0000  0.0000  1.0000
  DIIS coefficients: -0.0000  0.0001 -0.0010  0.0000  0.0678  0.1339  0.7992
 SCF Error: norm([F,P])=      0.060692076287, max([F,P])=      0.022482220117
 orbitals (Q,E):
 ---------------
 S :1...5            ( 2.00  -160.6776)  ( 2.00   -17.2492)  ( 2.00    -1.9879)  ( 2.00    -0.1474)
                     ( 0.00     0.0287)
 P :1...3            ( 6.00   -14.2513)  ( 6.00    -1.2261)  ( 0.00    -0.0346)
 D :1...2            ( 1.00    -0.1160)  ( 0.00     0.1754)
 F :1...1            ( 0.00     1.1774)

 CYCLE    9
  SDIIS (wt  0.977):  0.0000  0.0000 -0.0000 -0.0000  0.0014 -0.0010  0.1248  0.8748
 A-DIIS (wt  0.023):  0.0000  0.0000  0.0000  0.0000  0.0000  0.0000  0.0000  1.0000
  DIIS coefficients:  0.0000  0.0000 -0.0000 -0.0000  0.0013 -0.0010  0.1220  0.8777
 SCF Error: norm([F,P])=      0.008991796447, max([F,P])=      0.003264824761
 orbitals (Q,E):
 ---------------
 S :1...5            ( 2.00  -160.6838)  ( 2.00   -17.2535)  ( 2.00    -1.9899)  ( 2.00    -0.1475)
                     ( 0.00     0.0286)
 P :1...3            ( 6.00   -14.2558)  ( 6.00    -1.2278)  ( 0.00    -0.0347)
 D :1...2            ( 1.00    -0.1171)  ( 0.00     0.1750)
 F :1...1            ( 0.00     1.1768)

 CYCLE   10
  SDIIS (wt  1.000):  0.0000 -0.0000 -0.0000 -0.0000  0.0002  0.0007  0.0015  0.0201  0.9774
  DIIS coefficients:  0.0000 -0.0000 -0.0000 -0.0000  0.0002  0.0007  0.0015  0.0201  0.9774
 SCF Error: norm([F,P])=      0.000226177611, max([F,P])=      0.000077000937
 orbitals (Q,E):
 ---------------
 S :1...5            ( 2.00  -160.6837)  ( 2.00   -17.2534)  ( 2.00    -1.9898)  ( 2.00    -0.1475)
                     ( 0.00     0.0286)
 P :1...3            ( 6.00   -14.2557)  ( 6.00    -1.2278)  ( 0.00    -0.0348)
 D :1...2            ( 1.00    -0.1171)  ( 0.00     0.1750)
 F :1...1            ( 0.00     1.1768)

 CYCLE   11
  SDIIS (wt  1.000):  0.0000  0.0000 -0.0000 -0.0000 -0.0000  0.0001 -0.0002 -0.0000  0.0747  0.9254
  DIIS coefficients:  0.0000  0.0000 -0.0000 -0.0000 -0.0000  0.0001 -0.0002 -0.0000  0.0747  0.9254
 SCF Error: norm([F,P])=      0.000016367098, max([F,P])=      0.000005434889
 orbitals (Q,E):
 ---------------
 S :1...5            ( 2.00  -160.6837)  ( 2.00   -17.2534)  ( 2.00    -1.9898)  ( 2.00    -0.1475)
                     ( 0.00     0.0286)
 P :1...3            ( 6.00   -14.2557)  ( 6.00    -1.2278)  ( 0.00    -0.0348)
 D :1...2            ( 1.00    -0.1171)  ( 0.00     0.1750)
 F :1...1            ( 0.00     1.1768)

 CYCLE   12
  SDIIS (wt  1.000):  0.0000  0.0000  0.0000  0.0000 -0.0016 -0.0095  1.0111
  DIIS coefficients:  0.0000  0.0000  0.0000  0.0000 -0.0016 -0.0095  1.0111
 SCF Error: norm([F,P])=      0.000000404904, max([F,P])=      0.000000117020
 orbitals (Q,E):
 ---------------
 S :1...5            ( 2.00  -160.6837)  ( 2.00   -17.2534)  ( 2.00    -1.9898)  ( 2.00    -0.1475)
                     ( 0.00     0.0286)
 P :1...3            ( 6.00   -14.2557)  ( 6.00    -1.2278)  ( 0.00    -0.0348)
 D :1...2            ( 1.00    -0.1171)  ( 0.00     0.1750)
 F :1...1            ( 0.00     1.1768)

 CYCLE   13
  SDIIS (wt  1.000):  0.0000  0.0000 -0.0002 -0.0113  1.0115
  DIIS coefficients:  0.0000  0.0000 -0.0002 -0.0113  1.0115
 SCF Error: norm([F,P])=      0.000000005495, max([F,P])=      0.000000001786
 orbitals (Q,E):
 ---------------
 S :1...5            ( 2.00  -160.6837)  ( 2.00   -17.2534)  ( 2.00    -1.9898)  ( 2.00    -0.1475)
                     ( 0.00     0.0286)
 P :1...3            ( 6.00   -14.2557)  ( 6.00    -1.2278)  ( 0.00    -0.0348)
 D :1...2            ( 1.00    -0.1171)  ( 0.00     0.1750)
 F :1...1            ( 0.00     1.1768)

 SCF CONVERGED

 CYCLE   14
1
 ***************************************************************************************************



                                                *******************
                                                *  R E S U L T S  *
                                                *******************
  
 *** Setting up for NEW gradients in Focky
 *** Using FIT density in Focky

 Orbital Energies, per Irrep and Spin:
 ======================================
                        Occup              E (au)              E (eV)       Diff (eV) with prev. cycle
                        -----      --------------------        ------       --------------------------
 S
               1        2.000     -0.16068367418880E+03     -4372.425              -5.75E-10
               2        2.000     -0.17253408577600E+02      -469.489              -5.43E-10
               3        2.000     -0.19898129220883E+01       -54.146              -4.36E-10
               4        2.000     -0.14752804387125E+00        -4.014              -3.14E-10
               5        0.000      0.28609450777574E-01         0.779
               6        0.000      0.39908725573446E+00        10.860
               7        0.000      0.25436233455048E+01        69.216
               8        0.000      0.18571103203413E+02       505.345
               9        0.000      0.33849929259814E+03      9211.034
 P
               1        6.000     -0.14255667472263E+02      -387.916              -5.51E-10
               2        6.000     -0.12278115948960E+01       -33.410              -4.35E-10
               3        0.000     -0.34750208959796E-01        -0.946
               4        0.000      0.77481707883445E+00        21.084
               5        0.000      0.58416114008489E+01       158.958
               6        0.000      0.43695240891299E+02      1189.008
 D
               1        1.000     -0.11709305268341E+00        -3.186              -4.16E-10
               2        0.000      0.17496742627596E+00         4.761
               3        0.000      0.20899942333042E+01        56.872
 F
               1        0.000      0.11768037048945E+01        32.022


 Partially Occupied:
               1 D                -0.11709305268341E+00
  
 HOMO :        4 S                -0.14752804387125E+00
 LUMO :        3 P                -0.34750208959796E-01
  


 Orbital Energies, all Irreps
 ========================================

 Irrep        no.  (spin)   Occup              E (au)                E (eV)
 ---------------------------------------------------------------------------
 S             1             2.00       -0.16068367418880E+03     -4372.4252
 S             2             2.00       -0.17253408577600E+02      -469.4891
 P             1             6.00       -0.14255667472263E+02      -387.9164
 S             3             2.00       -0.19898129220883E+01       -54.1456
 P             2             6.00       -0.12278115948960E+01       -33.4105
 S             4             2.00       -0.14752804387125E+00        -4.0144
 D             1             1.00       -0.11709305268341E+00        -3.1863
 P             3             0.00       -0.34750208959796E-01        -0.9456
 S             5             0.00        0.28609450777574E-01         0.7785
 D             2             0.00        0.17496742627596E+00         4.7611
 S             6             0.00        0.39908725573446E+00        10.8597
 P             4             0.00        0.77481707883445E+00        21.0838
 F             1             0.00        0.11768037048945E+01        32.0225
 D             3             0.00        0.20899942333042E+01        56.8716
 S             7             0.00        0.25436233455048E+01        69.2155
 P             5             0.00        0.58416114008489E+01       158.9583
 S             8             0.00        0.18571103203413E+02       505.3454
 P             6             0.00        0.43695240891299E+02      1189.0080
 S             9             0.00        0.33849929259814E+03      9211.0344


 All Electron Calculation, thus no Orbital Energies of the Core Orbitals are calculated



 =======================================
 M U L L I K E N   P O P U L A T I O N S
 =======================================
  
 The survey below gives for each atom:
 a) the total charge (Z minus electrons)
 b) the net spin polarization (nr of electrons spin-A minus spin-B)
 c) for each spin the atomic electron valence density (integrated) per L-value.

 Atom              Charge    Spin density          S         P         D         F
 ----              ------    ------------       ------    ------    ------    ------
 1 Sc              0.0000                       8.0000   12.0000    1.0000    0.0000

 Populations of individual BAS functions
 ----------------------------------------
 1 Sc           0.4378  1.5133  1.7758  0.1533  0.6261  0.6261  0.6261  1.3696  1.3696  1.3696
                1.2412  0.8823  0.1778  0.1778  0.1778  1.2991  1.2991  1.2991  0.5261  0.5261
                0.5261  0.0289  0.0434  0.0434  0.0289  0.0434  0.0289  0.0746  0.1119  0.1119
                0.0746  0.1119  0.0746  0.0298  0.0447  0.0447  0.0298  0.0447  0.0298  0.5416
                1.1684  0.2864  0.0013  0.0013  0.0013  0.0000  0.0000  0.0000  0.0000  0.0000
                0.0000  0.0000  0.0000  0.0000  0.0000

 Gross Charges per Atom (Z minus electrons)
 ==========================================
             0.0000
 Net Total:  0.00000000



 =======================================================================
 Electrostatic potential at the Nuclei due to electrons and other nuclei
 =======================================================================
  
         Atom                  Potential
         ----                  ---------
     1)   Sc                 85.73824215
 
 
 ========================
 No memory problems found
 ========================
 
 Maximum number of active allocate calls:         447
 
 *******************************************************************************

                             A D F   E X I T
 NORMAL TERMINATION



 =================
 Timing Statistics
 =================
  
 Total Used :                     CPU=        1.12      System=        0.03     Elapsed=        1.15

 Calls  Section                     ( Mean, Percentage )
 ---------------------------------------------------------------------------------------------------
     3  ><      ................      0.00    0.09             0.00    0.00             0.00    0.07
     1  INIT    ................      0.01    1.34             0.02   51.43             0.03    3.01
     1  GEOMET  ................      0.01    0.99             0.00    5.71             0.01    1.14
     1  INPUTA  ................      0.00    0.18             0.00    2.86             0.00    0.28
     1  MAINSY  ................      0.01    0.54             0.00    5.72             0.01    0.69
     1  SYMFIT  ................      0.00    0.00             0.00    2.86             0.00    0.11
     1  CORORT  ................      0.00    0.09             0.00    0.00             0.00    0.04
     1  SYMORB  ................      0.00    0.09             0.00    0.00             0.00    0.14
     1  CLSMAT  ................      0.01    0.81             0.00    0.00             0.01    0.80
     1  ORTHON  ................      0.00    0.18             0.00    2.85             0.00    0.27
     1  GENPT   ................      0.03    2.96             0.00    0.00             0.03    2.86
     1  PTBAS   ................      0.01    0.63             0.00    0.00             0.01    0.55
    14  FOCKY   ................      0.06   79.03             0.00   17.14             0.06   76.98
    14  FOCKTR  ................      0.00    1.70             0.00    2.86             0.00    1.74
    14  SDIIS   ................      0.00    3.32             0.00    0.00             0.00    3.31
     1  COREPS  ................      0.05    4.57             0.00    0.00             0.05    4.41
     1  POPAN   ................      0.01    0.81             0.00    0.00             0.01    0.80
     1  DEBYE   ................      0.00    0.18             0.00    0.00             0.00    0.10
     1  EXIT PROCEDURE .........      0.03    2.51             0.00    8.57             0.03    2.72


 Currently Open Files (EXIT00)
 ====================

 Unit    Access Format  Status   Type       Ident (file)
 -------------------------------------------------------
   3      SEQ    FORM   TRANSP  NORMAL      LOGFILE
                                          ( logfile )


 Buffered I/O statistics
 =======================
 Memory available:                     67108864
 Number of records fitting in memory:     16131
 Input :   0.1% of                        29464  *4k bytes
 Output:  12.4% of                         1517  *4k bytes
 Records from serial files evicted:           0
                    others evicted:           0
 Hash table lookups:      76483 with          0 conflicts (  0.00%)

 ***************************************************************************************************
 (LOGFILE)
 <May19-2019> <11:26:32>  ADF 2017  RunTime: May19-2019 11:26:32  Nodes: 1  Procs: 1
 <May19-2019> <11:26:32>  Scandium (TZ2P)
 <May19-2019> <11:26:32>  RunType   : CREATE
 <May19-2019> <11:26:32>  Net Charge: 0 (Nuclei minus Electrons)
 <May19-2019> <11:26:32>  Symmetry  : ATOM
  Coordinates
    Atom         X           Y           Z   (Angstrom)
    1.Sc        0.000000    0.000000    0.000000
 <May19-2019> <11:26:32>  >>>> CORORT
 <May19-2019> <11:26:32>  >>>> CLSMAT
 <May19-2019> <11:26:32>  >>>> ORTHON
 <May19-2019> <11:26:32>  >>>> GENPT
 <May19-2019> <11:26:32>  Block Length= 102
 <May19-2019> <11:26:32>  >>>> PTBAS
 <May19-2019> <11:26:32>  >>>> CYCLE
 <May19-2019> <11:26:32>              |Error|         MaxErr       Wt(A-DIIS)
 <May19-2019> <11:26:32>      1      0.00000000      0.00000000
 <May19-2019> <11:26:33>      2     55.82285057     13.32742665    100.0
 <May19-2019> <11:26:33>      3     21.62069135      6.06535517    100.0
 <May19-2019> <11:26:33>      4      5.80154600      1.92783807    100.0
 <May19-2019> <11:26:33>      5      5.29807998      1.93747877    100.0
 <May19-2019> <11:26:33>      6      0.23301681      0.06302174     62.6
 <May19-2019> <11:26:33>      7      0.22084726      0.06810199     62.6
 <May19-2019> <11:26:33>      8      0.06069208      0.02248222     21.7
 <May19-2019> <11:26:33>      9      0.00899180      0.00326482      2.3
 <May19-2019> <11:26:33>     10      0.00022618      0.00007700      0.0
 <May19-2019> <11:26:33>     11      0.00001637      0.00000543      0.0
 <May19-2019> <11:26:33>     12      0.00000040      0.00000012      0.0
 <May19-2019> <11:26:33>     13      0.00000001      0.00000000      0.0
 <May19-2019> <11:26:33>  SCF converged
 <May19-2019> <11:26:33>     14      0.00000000      0.00000000      0.0
 <May19-2019> <11:26:33>  >>>> POPAN
 <May19-2019> <11:26:33>  >>>> DEBYE
 <May19-2019> <11:26:33>  NORMAL TERMINATION
 <May19-2019> <11:26:33>  END

Create O   file=TZ2P-O
XC
  GGA blyp
End
End Input

 *******************************************************************************
 *                                                                             *
 *  -------------------------------------                                      *
 *   Amsterdam Density Functional  (ADF)         2017                          *
 *  -------------------------------------                                      *
 *                                               r58813 2017-04-12             *
 *                                                                             *
 *                                                                             *
 *                              =================                              *
 *                              |               |                              *
 *                              |     A D F     |                              *
 *                              |               |                              *
 *                              =================                              *
 *                                                                             *
 *                                                                             *
 *   Online information and documentation:  https://www.scm.com/support/       *
 *   E-mail:  support@scm.com   info@scm.com                                   *
 *                                                                             *
 *   Scientific publications using ADF results must be properly referenced     *
 *   See the User Manuals (or the web site) for recommended citations          *
 *   The terms and conditions of the End User License Agreement apply to       *
 *   the use of ADF, https://www.scm.com/license-terms/                        *
 *                                                                             *
 **********************  x86_64_linux_intel / intelmpi  ************************
 
 Licensed to: VU/FEW (+ SARA) / ALGEMEEN / Amsterdam / THE NETHERLANDS
 SCM User ID: u7668
  
 ADF 2017  RunTime: May19-2019 11:26:33  Nodes: 1  Procs: 1

 Temporary files are created in /local/datastore0/tcst25/190764/kid_0.ASxS4y

 Oxygen (TZ2P)



 ===========================
 A T T A C H E D   F I L E S
 ===========================
  
 CREATE - Data File:    TZ2P-O
                        Oxygen (TZ2P)



 ===============================
 M O D E L   P A R A M E T E R S
 ===============================
  
 DENSITY FUNCTIONAL POTENTIAL (scf)
    LDA:                               Exchange only                           == Not Default ==
    Gradient Corrections:              Becke88 LYP                             == Not Default ==

 SPIN  (restricted / unrestr.)
    Molecule:                          Restricted                               

 OTHER ASPECTS
    Relativistic Corrections:          ---                                      

    Nuclear Charge Density Model:      Point Charge Nuclei                      
    Core Treatment:                    Frozen Orbital(s)                        

    Hyperfine or Zeeman Interaction:   ---                                      



 =====================================
 S Y M M E T R Y ,   E L E C T R O N S
 =====================================
  
 Symmetry: ATOM

 Irreducible Representations, including subspecies
 -------------------------------------------------
 S
 P:x  P:y  P:z
 D:z2  D:x2-y2  D:xy  D:xz  D:yz
 F:z3  F:z  F:xyz  F:z2x  F:z2y  F:x  F:y


 Configuration of Valence Electrons
 ==================================

          Occupation Numbers
          -------------------------------------------------
 S        2*2
 P        4
 D        0
 F        0
          -------------------------------------------------

 Total:   8

 Net Charge: 0 (Nuclei minus Electrons)

 Preset values for MO occupations will be applied through SCF cycle no. 1000000
 Thereafter, the program will assign electrons to MOs that are spatially
 similar to the occupied MOs in a "reference" cycle ("KeepOrbitals").
 The reference cycle is always the PREVIOUS cycle: it will evolve with
 the SCF procedure.



 ================================
 (Slater-type)  F U N C T I O N S  ***  (Basis and Fit)  ***
 ================================
  

 Atom Type    1  (O)
 ==============

 Valence Basis Sets:  10
 -----------------------
   1 S    9.800000
   1 S    6.800000
   2 S    7.580000
   2 S    2.880000
   2 S    1.720000
   2 P    4.080000
   2 P    2.080000
   2 P    1.120000
   3 D    2.000000
   4 F    3.000000


 BAS: List of all Elementary Cartesian Basis Functions
 =====================================================

 The numbering in the list below (to the right of the function characteristics) is referred
 to in print-outs of MO eigenvectors and Mulliken populations in the BAS representation
 (as contrasted to the SFO representation).

 Notes:
 1. The functions are characterized by a polynomial prefactor (powers of x,y,z and r) and
    an exponential decay factor alpha.
 2. Since the basis sets are specific for an atom TYPE, the individual functions occur on
    all atoms of that type.
 3. The word 'Core' in the left margin signals that it is a Core Function (CF) : not a
    degree of freedom in the valence set, but only used to ensure orthogonalization of
    the other valence basis functions on the frozen Core Orbitals.


 (power of) X  Y  Z  R     Alpha  on Atom
            ==========     =====     ==========

 O                                    1
                                  ---------------------------------------------------------------------------
            0  0  0  0     9.800      1
            0  0  0  0     6.800      2
            0  0  0  1     7.580      3
            0  0  0  1     2.880      4
            0  0  0  1     1.720      5
            1  0  0  0     4.080      6
            0  1  0  0     4.080      7
            0  0  1  0     4.080      8
            1  0  0  0     2.080      9
            0  1  0  0     2.080     10
            0  0  1  0     2.080     11
            1  0  0  0     1.120     12
            0  1  0  0     1.120     13
            0  0  1  0     1.120     14
            2  0  0  0     2.000     15
            1  1  0  0     2.000     16
            1  0  1  0     2.000     17
            0  2  0  0     2.000     18
            0  1  1  0     2.000     19
            0  0  2  0     2.000     20
            3  0  0  0     3.000     21
            2  1  0  0     3.000     22
            2  0  1  0     3.000     23
            1  2  0  0     3.000     24
            1  1  1  0     3.000     25
            1  0  2  0     3.000     26
            0  3  0  0     3.000     27
            0  2  1  0     3.000     28
            0  1  2  0     3.000     29
            0  0  3  0     3.000     30

 Total number of charge fitting functions (nprimf)        84
 Total number of Cartesian basis functions (naos)         30
 Total number of Cartesian core functions  (ncos)          0



 BAS: List of all Elementary Cartesian Basis Functions
 =====================================================

 The numbering in the list below (to the right of the function characteristics) is referred
 to in print-outs of MO eigenvectors and Mulliken populations in the BAS representation
 (as contrasted to the SFO representation).

 Notes:
 1. The functions are characterized by a polynomial prefactor (powers of x,y,z and r) and
    an exponential decay factor alpha.
 2. Since the basis sets are specific for an atom TYPE, the individual functions occur on
    all atoms of that type.
 3. The word 'Core' in the left margin signals that it is a Core Function (CF) : not a
    degree of freedom in the valence set, but only used to ensure orthogonalization of
    the other valence basis functions on the frozen Core Orbitals.


 (power of) X  Y  Z  R     Alpha  on Atom
            ==========     =====     ==========

 O                                    1
                                  ---------------------------------------------------------------------------
            0  0  0  0     9.800      1
            0  0  0  0     6.800      2
            0  0  0  1     7.580      3
            0  0  0  1     2.880      4
            0  0  0  1     1.720      5
            1  0  0  0     4.080      6
            0  1  0  0     4.080      7
            0  0  1  0     4.080      8
            1  0  0  0     2.080      9
            0  1  0  0     2.080     10
            0  0  1  0     2.080     11
            1  0  0  0     1.120     12
            0  1  0  0     1.120     13
            0  0  1  0     1.120     14
            2  0  0  0     2.000     15
            1  1  0  0     2.000     16
            1  0  1  0     2.000     17
            0  2  0  0     2.000     18
            0  1  1  0     2.000     19
            0  0  2  0     2.000     20
            3  0  0  0     3.000     21
            2  1  0  0     3.000     22
            2  0  1  0     3.000     23
            1  2  0  0     3.000     24
            1  1  1  0     3.000     25
            1  0  2  0     3.000     26
            0  3  0  0     3.000     27
            0  2  1  0     3.000     28
            0  1  2  0     3.000     29
            0  0  3  0     3.000     30
1
 ***************************************************************************************************



                                              ***********************
                                              *  T E C H N I C A L  *
                                              ***********************
  



 =============================================================
 P A R A L L E L I Z A T I O N  and  V E C T O R I Z A T I O N
 =============================================================
  
 Nr of parallel processes:                                1
 Maximum vector length in NumInt loops:                 128

 IO buffersize (Mb):                                     64.000000



 =====================
 S C F   U P D A T E S
 =====================
  
 Max. nr. of cycles:                               300
 Convergence criterion:                              0.0000000100
   secondary criterion:                              0.0000000100

 Mix parameter (when DIIS does not apply):           0.2000000000
 Special mix parameter for the first cycle:          1.0000000000
 Mixed ADIIS+DIIS will be used
    Max number of expansion vectors:                10
    Pure ADIIS when Max([F,P]) is above              0.1000000000
    Pure DIIS when Max([F,P]) is below               0.0010000000
 Automatic ElectronSmearing (in case of problematic SCF convergence) disabled



 =================
 P R E C I S I O N  ***  (General: NumInt, NeglectFunctionTails, ...)  ***
 =================
  

 NumInt:           Target precision:                12.0000000000
 -------           Initial precision:               10.0000000000
                   Min. precision (optimization):   10.0000000000

 Neglect Functions:          Basis functions:        0.1000000000E-13
 ------------------          Fit functions:          0.1000000000E-13



 ===========================
 L I N E A R   S C A L I N G
 ===========================
  

 Cut-off radii density fit:                        0.1000000000E-97
 Overlap cut-off criterion AO matrix elements:     0.1000000000E-97
 Cut-offs for Coulomb potential and fitted density:0.1000000000E-97
 Cut-off criterion for Coulomb multipole terms:    0.1000000000E-97
 Progressive Convergence parameter:                 0.000000000    
1
 ***************************************************************************************************



                                            ***************************
                                            *  C O M P U T A T I O N  *
                                            ***************************
  

 Number of elements of the density matrix on this node (used, total):       465       465



 ===========================================
 Numerical Integration : Fuzzy Cells (Becke)
 ===========================================
  
 Becke grid quality: VERYGOOD       
  
 Lebedev angular grid order:             min:  13 max:  41
 Nr. of radial points:                   min:  68 max:  68

 Total nr. of points:         68
 Nr. of blocks:                1
 Block length:                68
 Nr. of dummy points:          0


 Test of Precision of the Numerical Integration Grid
 ===================================================

 Integral of the Total Core Density:                   0.00000000000000



 ========================
 Density Fitting (zlmFit)
 ========================
  
 ZlmFit Fit Quality: VERYGOOD       
  
 Max L-expansion:                        min:   0 max:   0
 Nr. of radial interpolation points:     min: 180 max: 180



 =====
 S C F  ***  ScaSCF  ***
 =====
  

 CYCLE    1
 SCF Error: norm([F,P])=      0.000000000000, max([F,P])=      0.000000000000
 orbitals (Q,E):
 ---------------
 S :1...5            ( 2.00   -31.9999)  ( 2.00    -7.9363)  ( 0.00    -3.4636)  ( 0.00     4.3191)
                     ( 0.00   110.5486)
 P :1...3            ( 4.00    -7.9991)  ( 0.00    -3.4855)  ( 0.00    -1.8903)
 D :1...1            ( 0.00    -3.3333)
 F :1...1            ( 0.00    -1.5000)

 CYCLE    2
  SDIIS (wt  0.000):  1.0000 -0.0000
 A-DIIS (wt  1.000):  0.0000  1.0000
  DIIS coefficients:  0.0000  1.0000
 SCF Error: norm([F,P])=      8.765745414074, max([F,P])=      5.518031311555
 orbitals (Q,E):
 ---------------
 S :1...3            ( 2.00   -14.5579)  ( 2.00    -0.0124)  ( 0.00     1.8192)
 P :1...2            ( 4.00     0.2183)  ( 0.00     1.2385)
 D :1...1            ( 0.00     1.5388)
 F :1...1            ( 0.00     3.9464)

 CYCLE    3
  SDIIS (wt  0.000):  0.2278  0.7722
 A-DIIS (wt  1.000):  0.3148  0.6852
  DIIS coefficients:  0.3148  0.6852
 SCF Error: norm([F,P])=      3.585499450444, max([F,P])=      2.499410108106
 orbitals (Q,E):
 ---------------
 S :1...3            ( 2.00   -19.8063)  ( 2.00    -1.5198)  ( 0.00     0.3996)
 P :1...2            ( 4.00    -0.9763)  ( 0.00     0.1325)
 D :1...1            ( 0.00     0.6540)
 F :1...1            ( 0.00     2.8642)

 CYCLE    4
  SDIIS (wt  0.000): -0.0456  0.1707  0.8749
 A-DIIS (wt  1.000):  0.0000  0.0000  1.0000
  DIIS coefficients:  0.0000  0.0000  1.0000
 SCF Error: norm([F,P])=      1.147919112368, max([F,P])=      0.583019620058
 orbitals (Q,E):
 ---------------
 S :1...3            ( 2.00   -18.0523)  ( 2.00    -0.5465)  ( 0.00     1.0349)
 P :1...2            ( 4.00    -0.0477)  ( 0.00     0.5307)
 D :1...1            ( 0.00     1.2443)
 F :1...1            ( 0.00     3.5731)

 CYCLE    5
  SDIIS (wt  0.000): -0.0195 -0.0760  0.5845  0.5110
 A-DIIS (wt  1.000):  0.0000  0.0000  0.6414  0.3586
  DIIS coefficients:  0.0000  0.0000  0.6414  0.3586
 SCF Error: norm([F,P])=      1.519585468023, max([F,P])=      0.840542006159
 orbitals (Q,E):
 ---------------
 S :1...3            ( 2.00   -18.8182)  ( 2.00    -0.8502)  ( 0.00     0.8091)
 P :1...2            ( 4.00    -0.3077)  ( 0.00     0.3582)
 D :1...1            ( 0.00     1.0753)
 F :1...1            ( 0.00     3.3669)

 CYCLE    6
  SDIIS (wt  0.000):  0.0038 -0.0006  0.0668 -0.0496  0.9795
 A-DIIS (wt  1.000):  0.0000  0.0000  0.0000  0.0000  1.0000
  DIIS coefficients:  0.0000  0.0000  0.0000  0.0000  1.0000
 SCF Error: norm([F,P])=      0.178828926625, max([F,P])=      0.104242033505
 orbitals (Q,E):
 ---------------
 S :1...3            ( 2.00   -19.0541)  ( 2.00    -0.9245)  ( 0.00     0.7610)
 P :1...2            ( 4.00    -0.3806)  ( 0.00     0.3267)
 D :1...1            ( 0.00     1.0451)
 F :1...1            ( 0.00     3.3284)

 CYCLE    7
  SDIIS (wt  0.000): -0.0003  0.0004 -0.0182  0.0130  0.4190  0.5861
 A-DIIS (wt  1.000):  0.0000  0.0000  0.0000  0.0000  0.5807  0.4193
  DIIS coefficients:  0.0000  0.0000  0.0000  0.0000  0.5807  0.4193
 SCF Error: norm([F,P])=      0.200125290981, max([F,P])=      0.113649127569
 orbitals (Q,E):
 ---------------
 S :1...3            ( 2.00   -18.9379)  ( 2.00    -0.8781)  ( 0.00     0.7909)
 P :1...2            ( 4.00    -0.3354)  ( 0.00     0.3452)
 D :1...1            ( 0.00     1.0687)
 F :1...1            ( 0.00     3.3572)

 CYCLE    8
  SDIIS (wt  0.910): -0.0000  0.0002  0.0044 -0.0011 -0.0192 -0.1454  1.1612
 A-DIIS (wt  0.090):  0.0000  0.0000  0.0000  0.0000  0.0000  0.0000  1.0000
  DIIS coefficients: -0.0000  0.0002  0.0040 -0.0010 -0.0175 -0.1323  1.1466
 SCF Error: norm([F,P])=      0.016951777154, max([F,P])=      0.009947196225
 orbitals (Q,E):
 ---------------
 S :1...3            ( 2.00   -18.9255)  ( 2.00    -0.8739)  ( 0.00     0.7936)
 P :1...2            ( 4.00    -0.3314)  ( 0.00     0.3469)
 D :1...1            ( 0.00     1.0707)
 F :1...1            ( 0.00     3.3597)

 CYCLE    9
  SDIIS (wt  1.000): -0.0000  0.0000  0.0000 -0.0001  0.0003  0.0067  0.0145  0.9786
  DIIS coefficients: -0.0000  0.0000  0.0000 -0.0001  0.0003  0.0067  0.0145  0.9786
 SCF Error: norm([F,P])=      0.001748429775, max([F,P])=      0.000984374869
 orbitals (Q,E):
 ---------------
 S :1...3            ( 2.00   -18.9266)  ( 2.00    -0.8743)  ( 0.00     0.7933)
 P :1...2            ( 4.00    -0.3318)  ( 0.00     0.3467)
 D :1...1            ( 0.00     1.0705)
 F :1...1            ( 0.00     3.3595)

 CYCLE   10
  SDIIS (wt  1.000): -0.0000 -0.0000 -0.0000 -0.0000  0.0000  0.0001 -0.0011 -0.0034  1.0043
  DIIS coefficients: -0.0000 -0.0000 -0.0000 -0.0000  0.0000  0.0001 -0.0011 -0.0034  1.0043
 SCF Error: norm([F,P])=      0.000001425696, max([F,P])=      0.000000713883
 orbitals (Q,E):
 ---------------
 S :1...3            ( 2.00   -18.9266)  ( 2.00    -0.8743)  ( 0.00     0.7933)
 P :1...2            ( 4.00    -0.3318)  ( 0.00     0.3467)
 D :1...1            ( 0.00     1.0705)
 F :1...1            ( 0.00     3.3595)

 CYCLE   11
  SDIIS (wt  1.000):  0.0000 -0.0000 -0.0000 -0.0001 -0.0046  1.0047
  DIIS coefficients:  0.0000 -0.0000 -0.0000 -0.0001 -0.0046  1.0047
 SCF Error: norm([F,P])=      0.000000048706, max([F,P])=      0.000000022971
 orbitals (Q,E):
 ---------------
 S :1...3            ( 2.00   -18.9266)  ( 2.00    -0.8743)  ( 0.00     0.7933)
 P :1...2            ( 4.00    -0.3318)  ( 0.00     0.3467)
 D :1...1            ( 0.00     1.0705)
 F :1...1            ( 0.00     3.3595)

 CYCLE   12
  SDIIS (wt  1.000):  0.0000  0.0003  0.0049  0.9947
  DIIS coefficients:  0.0000  0.0003  0.0049  0.9947
 SCF Error: norm([F,P])=      0.000000002392, max([F,P])=      0.000000001168
 orbitals (Q,E):
 ---------------
 S :1...3            ( 2.00   -18.9266)  ( 2.00    -0.8743)  ( 0.00     0.7933)
 P :1...2            ( 4.00    -0.3318)  ( 0.00     0.3467)
 D :1...1            ( 0.00     1.0705)
 F :1...1            ( 0.00     3.3595)

 SCF CONVERGED

 CYCLE   13
1
 ***************************************************************************************************



                                                *******************
                                                *  R E S U L T S  *
                                                *******************
  
 *** Setting up for NEW gradients in Focky
 *** Using FIT density in Focky

 Orbital Energies, per Irrep and Spin:
 ======================================
                        Occup              E (au)              E (eV)       Diff (eV) with prev. cycle
                        -----      --------------------        ------       --------------------------
 S
               1        2.000     -0.18926622910087E+02      -515.020               5.76E-10
               2        2.000     -0.87432318445324E+00       -23.792               3.90E-10
               3        0.000      0.79334608634537E+00        21.588
               4        0.000      0.13459763470969E+02       366.259
               5        0.000      0.12310776301329E+03      3349.933
 P
               1        4.000     -0.33177161342558E+00        -9.028               3.71E-10
               2        0.000      0.34673871865826E+00         9.435
               3        0.000      0.38246989192600E+01       104.075
 D
               1        0.000      0.10704889823391E+01        29.129
 F
               1        0.000      0.33594552407685E+01        91.415


 Partially Occupied:
               1 P                -0.33177161342558E+00
  
 HOMO :        2 S                -0.87432318445324E+00
 LUMO :        2 P                 0.34673871865826E+00
  


 Orbital Energies, all Irreps
 ========================================

 Irrep        no.  (spin)   Occup              E (au)                E (eV)
 ---------------------------------------------------------------------------
 S             1             2.00       -0.18926622910087E+02      -515.0196
 S             2             2.00       -0.87432318445324E+00       -23.7915
 P             1             4.00       -0.33177161342558E+00        -9.0280
 P             2             0.00        0.34673871865826E+00         9.4352
 S             3             0.00        0.79334608634537E+00        21.5880
 D             1             0.00        0.10704889823391E+01        29.1295
 F             1             0.00        0.33594552407685E+01        91.4154
 P             3             0.00        0.38246989192600E+01       104.0754
 S             4             0.00        0.13459763470969E+02       366.2588
 S             5             0.00        0.12310776301329E+03      3349.9327


 All Electron Calculation, thus no Orbital Energies of the Core Orbitals are calculated



 =======================================
 M U L L I K E N   P O P U L A T I O N S
 =======================================
  
 The survey below gives for each atom:
 a) the total charge (Z minus electrons)
 b) the net spin polarization (nr of electrons spin-A minus spin-B)
 c) for each spin the atomic electron valence density (integrated) per L-value.

 Atom              Charge    Spin density          S         P         D         F
 ----              ------    ------------       ------    ------    ------    ------
 1 O              -0.0000                       4.0000    4.0000    0.0000    0.0000

 Populations of individual BAS functions
 ----------------------------------------
 1 O            0.6447  1.3214  0.0008  1.1425  0.8905  0.2537  0.2537  0.2537  0.7364  0.7364
                0.7364  0.3432  0.3432  0.3432  0.0000  0.0000  0.0000  0.0000  0.0000  0.0000
                0.0000  0.0000  0.0000  0.0000  0.0000  0.0000  0.0000  0.0000  0.0000  0.0000

 Gross Charges per Atom (Z minus electrons)
 ==========================================
            -0.0000
 Net Total: -0.00000000



 =======================================================================
 Electrostatic potential at the Nuclei due to electrons and other nuclei
 =======================================================================
  
         Atom                  Potential
         ----                  ---------
     1)   O                  22.23872615
 
 
 ========================
 No memory problems found
 ========================
 
 Maximum number of active allocate calls:         447
 
 *******************************************************************************

                             A D F   E X I T
 NORMAL TERMINATION



 =================
 Timing Statistics
 =================
  
 Total Used :                     CPU=        0.79      System=        0.04     Elapsed=        0.83

 Calls  Section                     ( Mean, Percentage )
 ---------------------------------------------------------------------------------------------------
     3  ><      ................      0.00    0.13             0.00    0.00             0.00    0.09
     1  INIT    ................      0.01    1.78             0.02   50.00             0.03    4.21
     1  GEOMET  ................      0.01    1.27             0.00    7.90             0.01    1.58
     1  INPUTA  ................      0.00    0.25             0.00    2.63             0.00    0.37
     1  MAINSY  ................      0.01    1.02             0.00    0.00             0.01    0.96
     1  SYMFIT  ................      0.00    0.00             0.00    2.63             0.00    0.14
     1  CORORT  ................      0.00    0.13             0.00    0.00             0.00    0.05
     1  SYMORB  ................      0.00    0.13             0.00    0.00             0.00    0.19
     1  CLSMAT  ................      0.01    1.14             0.00    0.00             0.01    1.10
     1  ORTHON  ................      0.00    0.25             0.00    2.63             0.00    0.35
     1  GENPT   ................      0.02    2.66             0.00    0.00             0.02    2.54
     1  PTBAS   ................      0.00    0.63             0.00    2.63             0.01    0.74
    13  FOCKY   ................      0.05   74.75             0.00   18.42             0.05   72.14
    13  FOCKTR  ................      0.00    2.16             0.00    5.26             0.00    2.19
    13  SDIIS   ................      0.00    4.57             0.00    0.00             0.00    4.25
     1  COREPS  ................      0.04    4.57             0.00    0.00             0.04    4.37
     1  POPAN   ................      0.01    1.14             0.00    0.00             0.01    1.10
     1  DEBYE   ................      0.00    0.00             0.00    2.63             0.00    0.11
     1  EXIT PROCEDURE .........      0.03    3.43             0.00    5.26             0.03    3.49


 Currently Open Files (EXIT00)
 ====================

 Unit    Access Format  Status   Type       Ident (file)
 -------------------------------------------------------
   3      SEQ    FORM   TRANSP  NORMAL      LOGFILE
                                          ( logfile )


 Buffered I/O statistics
 =======================
 Memory available:                     67108864
 Number of records fitting in memory:     16131
 Input :   0.1% of                        27833  *4k bytes
 Output:  13.5% of                         1390  *4k bytes
 Records from serial files evicted:           0
                    others evicted:           0
 Hash table lookups:      71898 with          0 conflicts (  0.00%)

 ***************************************************************************************************
 (LOGFILE)
 <May19-2019> <11:26:32>  ADF 2017  RunTime: May19-2019 11:26:32  Nodes: 1  Procs: 1
 <May19-2019> <11:26:32>  Scandium (TZ2P)
 <May19-2019> <11:26:32>  RunType   : CREATE
 <May19-2019> <11:26:32>  Net Charge: 0 (Nuclei minus Electrons)
 <May19-2019> <11:26:32>  Symmetry  : ATOM
  Coordinates
    Atom         X           Y           Z   (Angstrom)
    1.Sc        0.000000    0.000000    0.000000
 <May19-2019> <11:26:32>  >>>> CORORT
 <May19-2019> <11:26:32>  >>>> CLSMAT
 <May19-2019> <11:26:32>  >>>> ORTHON
 <May19-2019> <11:26:32>  >>>> GENPT
 <May19-2019> <11:26:32>  Block Length= 102
 <May19-2019> <11:26:32>  >>>> PTBAS
 <May19-2019> <11:26:32>  >>>> CYCLE
 <May19-2019> <11:26:32>              |Error|         MaxErr       Wt(A-DIIS)
 <May19-2019> <11:26:32>      1      0.00000000      0.00000000
 <May19-2019> <11:26:33>      2     55.82285057     13.32742665    100.0
 <May19-2019> <11:26:33>      3     21.62069135      6.06535517    100.0
 <May19-2019> <11:26:33>      4      5.80154600      1.92783807    100.0
 <May19-2019> <11:26:33>      5      5.29807998      1.93747877    100.0
 <May19-2019> <11:26:33>      6      0.23301681      0.06302174     62.6
 <May19-2019> <11:26:33>      7      0.22084726      0.06810199     62.6
 <May19-2019> <11:26:33>      8      0.06069208      0.02248222     21.7
 <May19-2019> <11:26:33>      9      0.00899180      0.00326482      2.3
 <May19-2019> <11:26:33>     10      0.00022618      0.00007700      0.0
 <May19-2019> <11:26:33>     11      0.00001637      0.00000543      0.0
 <May19-2019> <11:26:33>     12      0.00000040      0.00000012      0.0
 <May19-2019> <11:26:33>     13      0.00000001      0.00000000      0.0
 <May19-2019> <11:26:33>  SCF converged
 <May19-2019> <11:26:33>     14      0.00000000      0.00000000      0.0
 <May19-2019> <11:26:33>  >>>> POPAN
 <May19-2019> <11:26:33>  >>>> DEBYE
 <May19-2019> <11:26:33>  NORMAL TERMINATION
 <May19-2019> <11:26:33>  END
 <May19-2019> <11:26:33>  ADF 2017  RunTime: May19-2019 11:26:33  Nodes: 1  Procs: 1
 <May19-2019> <11:26:33>  Oxygen (TZ2P)
 <May19-2019> <11:26:33>  RunType   : CREATE
 <May19-2019> <11:26:33>  Net Charge: 0 (Nuclei minus Electrons)
 <May19-2019> <11:26:33>  Symmetry  : ATOM
  Coordinates
    Atom         X           Y           Z   (Angstrom)
    1.O         0.000000    0.000000    0.000000
 <May19-2019> <11:26:33>  >>>> CORORT
 <May19-2019> <11:26:33>  >>>> CLSMAT
 <May19-2019> <11:26:33>  >>>> ORTHON
 <May19-2019> <11:26:33>  >>>> GENPT
 <May19-2019> <11:26:33>  Block Length=  68
 <May19-2019> <11:26:33>  >>>> PTBAS
 <May19-2019> <11:26:33>  >>>> CYCLE
 <May19-2019> <11:26:34>              |Error|         MaxErr       Wt(A-DIIS)
 <May19-2019> <11:26:34>      1      0.00000000      0.00000000
 <May19-2019> <11:26:34>      2      8.76574541      5.51803131    100.0
 <May19-2019> <11:26:34>      3      3.58549945      2.49941011    100.0
 <May19-2019> <11:26:34>      4      1.14791911      0.58301962    100.0
 <May19-2019> <11:26:34>      5      1.51958547      0.84054201    100.0
 <May19-2019> <11:26:34>      6      0.17882893      0.10424203    100.0
 <May19-2019> <11:26:34>      7      0.20012529      0.11364913    100.0
 <May19-2019> <11:26:34>      8      0.01695178      0.00994720      9.0
 <May19-2019> <11:26:34>      9      0.00174843      0.00098437      0.0
 <May19-2019> <11:26:34>     10      0.00000143      0.00000071      0.0
 <May19-2019> <11:26:34>     11      0.00000005      0.00000002      0.0
 <May19-2019> <11:26:34>     12      0.00000000      0.00000000      0.0
 <May19-2019> <11:26:34>  SCF converged
 <May19-2019> <11:26:34>     13      0.00000000      0.00000000      0.0
 <May19-2019> <11:26:34>  >>>> POPAN
 <May19-2019> <11:26:34>  >>>> DEBYE
 <May19-2019> <11:26:34>  NORMAL TERMINATION
 <May19-2019> <11:26:34>  END

Create C   file=TZ2P-C
XC
  GGA blyp
End
End Input

 *******************************************************************************
 *                                                                             *
 *  -------------------------------------                                      *
 *   Amsterdam Density Functional  (ADF)         2017                          *
 *  -------------------------------------                                      *
 *                                               r58813 2017-04-12             *
 *                                                                             *
 *                                                                             *
 *                              =================                              *
 *                              |               |                              *
 *                              |     A D F     |                              *
 *                              |               |                              *
 *                              =================                              *
 *                                                                             *
 *                                                                             *
 *   Online information and documentation:  https://www.scm.com/support/       *
 *   E-mail:  support@scm.com   info@scm.com                                   *
 *                                                                             *
 *   Scientific publications using ADF results must be properly referenced     *
 *   See the User Manuals (or the web site) for recommended citations          *
 *   The terms and conditions of the End User License Agreement apply to       *
 *   the use of ADF, https://www.scm.com/license-terms/                        *
 *                                                                             *
 **********************  x86_64_linux_intel / intelmpi  ************************
 
 Licensed to: VU/FEW (+ SARA) / ALGEMEEN / Amsterdam / THE NETHERLANDS
 SCM User ID: u7668
  
 ADF 2017  RunTime: May19-2019 11:26:34  Nodes: 1  Procs: 1

 Temporary files are created in /local/datastore0/tcst25/190764/kid_0.C52UEx

 Carbon (TZ2P)



 ===========================
 A T T A C H E D   F I L E S
 ===========================
  
 CREATE - Data File:    TZ2P-C
                        Carbon (TZ2P)



 ===============================
 M O D E L   P A R A M E T E R S
 ===============================
  
 DENSITY FUNCTIONAL POTENTIAL (scf)
    LDA:                               Exchange only                           == Not Default ==
    Gradient Corrections:              Becke88 LYP                             == Not Default ==

 SPIN  (restricted / unrestr.)
    Molecule:                          Restricted                               

 OTHER ASPECTS
    Relativistic Corrections:          ---                                      

    Nuclear Charge Density Model:      Point Charge Nuclei                      
    Core Treatment:                    Frozen Orbital(s)                        

    Hyperfine or Zeeman Interaction:   ---                                      



 =====================================
 S Y M M E T R Y ,   E L E C T R O N S
 =====================================
  
 Symmetry: ATOM

 Irreducible Representations, including subspecies
 -------------------------------------------------
 S
 P:x  P:y  P:z
 D:z2  D:x2-y2  D:xy  D:xz  D:yz
 F:z3  F:z  F:xyz  F:z2x  F:z2y  F:x  F:y


 Configuration of Valence Electrons
 ==================================

          Occupation Numbers
          -------------------------------------------------
 S        2*2
 P        2
 D        0
 F        0
          -------------------------------------------------

 Total:   6

 Net Charge: 0 (Nuclei minus Electrons)

 Preset values for MO occupations will be applied through SCF cycle no. 1000000
 Thereafter, the program will assign electrons to MOs that are spatially
 similar to the occupied MOs in a "reference" cycle ("KeepOrbitals").
 The reference cycle is always the PREVIOUS cycle: it will evolve with
 the SCF procedure.



 ================================
 (Slater-type)  F U N C T I O N S  ***  (Basis and Fit)  ***
 ================================
  

 Atom Type    1  (C)
 ==============

 Valence Basis Sets:  10
 -----------------------
   1 S    7.680000
   1 S    5.000000
   2 S    1.280000
   2 S    2.100000
   2 S    4.600000
   2 P    0.820000
   2 P    1.480000
   2 P    2.940000
   3 D    2.200000
   4 F    3.300000


 BAS: List of all Elementary Cartesian Basis Functions
 =====================================================

 The numbering in the list below (to the right of the function characteristics) is referred
 to in print-outs of MO eigenvectors and Mulliken populations in the BAS representation
 (as contrasted to the SFO representation).

 Notes:
 1. The functions are characterized by a polynomial prefactor (powers of x,y,z and r) and
    an exponential decay factor alpha.
 2. Since the basis sets are specific for an atom TYPE, the individual functions occur on
    all atoms of that type.
 3. The word 'Core' in the left margin signals that it is a Core Function (CF) : not a
    degree of freedom in the valence set, but only used to ensure orthogonalization of
    the other valence basis functions on the frozen Core Orbitals.


 (power of) X  Y  Z  R     Alpha  on Atom
            ==========     =====     ==========

 C                                    1
                                  ---------------------------------------------------------------------------
            0  0  0  0     7.680      1
            0  0  0  0     5.000      2
            0  0  0  1     1.280      3
            0  0  0  1     2.100      4
            0  0  0  1     4.600      5
            1  0  0  0     0.820      6
            0  1  0  0     0.820      7
            0  0  1  0     0.820      8
            1  0  0  0     1.480      9
            0  1  0  0     1.480     10
            0  0  1  0     1.480     11
            1  0  0  0     2.940     12
            0  1  0  0     2.940     13
            0  0  1  0     2.940     14
            2  0  0  0     2.200     15
            1  1  0  0     2.200     16
            1  0  1  0     2.200     17
            0  2  0  0     2.200     18
            0  1  1  0     2.200     19
            0  0  2  0     2.200     20
            3  0  0  0     3.300     21
            2  1  0  0     3.300     22
            2  0  1  0     3.300     23
            1  2  0  0     3.300     24
            1  1  1  0     3.300     25
            1  0  2  0     3.300     26
            0  3  0  0     3.300     27
            0  2  1  0     3.300     28
            0  1  2  0     3.300     29
            0  0  3  0     3.300     30

 Total number of charge fitting functions (nprimf)        84
 Total number of Cartesian basis functions (naos)         30
 Total number of Cartesian core functions  (ncos)          0



 BAS: List of all Elementary Cartesian Basis Functions
 =====================================================

 The numbering in the list below (to the right of the function characteristics) is referred
 to in print-outs of MO eigenvectors and Mulliken populations in the BAS representation
 (as contrasted to the SFO representation).

 Notes:
 1. The functions are characterized by a polynomial prefactor (powers of x,y,z and r) and
    an exponential decay factor alpha.
 2. Since the basis sets are specific for an atom TYPE, the individual functions occur on
    all atoms of that type.
 3. The word 'Core' in the left margin signals that it is a Core Function (CF) : not a
    degree of freedom in the valence set, but only used to ensure orthogonalization of
    the other valence basis functions on the frozen Core Orbitals.


 (power of) X  Y  Z  R     Alpha  on Atom
            ==========     =====     ==========

 C                                    1
                                  ---------------------------------------------------------------------------
            0  0  0  0     7.680      1
            0  0  0  0     5.000      2
            0  0  0  1     1.280      3
            0  0  0  1     2.100      4
            0  0  0  1     4.600      5
            1  0  0  0     0.820      6
            0  1  0  0     0.820      7
            0  0  1  0     0.820      8
            1  0  0  0     1.480      9
            0  1  0  0     1.480     10
            0  0  1  0     1.480     11
            1  0  0  0     2.940     12
            0  1  0  0     2.940     13
            0  0  1  0     2.940     14
            2  0  0  0     2.200     15
            1  1  0  0     2.200     16
            1  0  1  0     2.200     17
            0  2  0  0     2.200     18
            0  1  1  0     2.200     19
            0  0  2  0     2.200     20
            3  0  0  0     3.300     21
            2  1  0  0     3.300     22
            2  0  1  0     3.300     23
            1  2  0  0     3.300     24
            1  1  1  0     3.300     25
            1  0  2  0     3.300     26
            0  3  0  0     3.300     27
            0  2  1  0     3.300     28
            0  1  2  0     3.300     29
            0  0  3  0     3.300     30
1
 ***************************************************************************************************



                                              ***********************
                                              *  T E C H N I C A L  *
                                              ***********************
  



 =============================================================
 P A R A L L E L I Z A T I O N  and  V E C T O R I Z A T I O N
 =============================================================
  
 Nr of parallel processes:                                1
 Maximum vector length in NumInt loops:                 128

 IO buffersize (Mb):                                     64.000000



 =====================
 S C F   U P D A T E S
 =====================
  
 Max. nr. of cycles:                               300
 Convergence criterion:                              0.0000000100
   secondary criterion:                              0.0000000100

 Mix parameter (when DIIS does not apply):           0.2000000000
 Special mix parameter for the first cycle:          1.0000000000
 Mixed ADIIS+DIIS will be used
    Max number of expansion vectors:                10
    Pure ADIIS when Max([F,P]) is above              0.1000000000
    Pure DIIS when Max([F,P]) is below               0.0010000000
 Automatic ElectronSmearing (in case of problematic SCF convergence) disabled



 =================
 P R E C I S I O N  ***  (General: NumInt, NeglectFunctionTails, ...)  ***
 =================
  

 NumInt:           Target precision:                12.0000000000
 -------           Initial precision:               10.0000000000
                   Min. precision (optimization):   10.0000000000

 Neglect Functions:          Basis functions:        0.1000000000E-13
 ------------------          Fit functions:          0.1000000000E-13



 ===========================
 L I N E A R   S C A L I N G
 ===========================
  

 Cut-off radii density fit:                        0.1000000000E-97
 Overlap cut-off criterion AO matrix elements:     0.1000000000E-97
 Cut-offs for Coulomb potential and fitted density:0.1000000000E-97
 Cut-off criterion for Coulomb multipole terms:    0.1000000000E-97
 Progressive Convergence parameter:                 0.000000000    
1
 ***************************************************************************************************



                                            ***************************
                                            *  C O M P U T A T I O N  *
                                            ***************************
  

 Number of elements of the density matrix on this node (used, total):       465       465



 ===========================================
 Numerical Integration : Fuzzy Cells (Becke)
 ===========================================
  
 Becke grid quality: VERYGOOD       
  
 Lebedev angular grid order:             min:  13 max:  41
 Nr. of radial points:                   min:  72 max:  72

 Total nr. of points:         72
 Nr. of blocks:                1
 Block length:                72
 Nr. of dummy points:          0


 Test of Precision of the Numerical Integration Grid
 ===================================================

 Integral of the Total Core Density:                   0.00000000000000



 ========================
 Density Fitting (zlmFit)
 ========================
  
 ZlmFit Fit Quality: VERYGOOD       
  
 Max L-expansion:                        min:   0 max:   0
 Nr. of radial interpolation points:     min: 160 max: 160



 =====
 S C F  ***  ScaSCF  ***
 =====
  

 CYCLE    1
 SCF Error: norm([F,P])=      0.000000000000, max([F,P])=      0.000000000000
 orbitals (Q,E):
 ---------------
 S :1...5            ( 2.00   -17.9995)  ( 2.00    -4.4761)  ( 0.00    -1.9482)  ( 0.00     0.6812)
                     ( 0.00    42.8100)
 P :1...3            ( 2.00    -4.4994)  ( 0.00    -1.9807)  ( 0.00    -1.0849)
 D :1...1            ( 0.00    -1.9800)
 F :1...1            ( 0.00     0.4950)

 CYCLE    2
  SDIIS (wt  0.000):  1.0000 -0.0000
 A-DIIS (wt  1.000):  0.0000  1.0000
  DIIS coefficients:  0.0000  1.0000
 SCF Error: norm([F,P])=      4.480319744476, max([F,P])=      3.328841325837
 orbitals (Q,E):
 ---------------
 S :1...3            ( 2.00    -7.7917)  ( 2.00    -0.0500)  ( 0.00     0.8490)
 P :1...2            ( 2.00     0.1033)  ( 0.00     0.5895)
 D :1...1            ( 0.00     1.7552)
 F :1...1            ( 0.00     4.6366)

 CYCLE    3
  SDIIS (wt  0.000):  0.2185  0.7815
 A-DIIS (wt  1.000):  0.1233  0.8767
  DIIS coefficients:  0.1233  0.8767
 SCF Error: norm([F,P])=      1.636788894664, max([F,P])=      1.315295345514
 orbitals (Q,E):
 ---------------
 S :1...3            ( 2.00   -10.9862)  ( 2.00    -0.9428)  ( 0.00     0.1231)
 P :1...2            ( 2.00    -0.6386)  ( 0.00     0.0246)
 D :1...1            ( 0.00     0.8395)
 F :1...1            ( 0.00     3.5625)

 CYCLE    4
  SDIIS (wt  0.000): -0.0629  0.2184  0.8445
 A-DIIS (wt  1.000):  0.0000  0.0872  0.9128
  DIIS coefficients:  0.0000  0.0872  0.9128
 SCF Error: norm([F,P])=      0.722267649759, max([F,P])=      0.580815510644
 orbitals (Q,E):
 ---------------
 S :1...3            ( 2.00    -9.6419)  ( 2.00    -0.3647)  ( 0.00     0.4682)
 P :1...2            ( 2.00    -0.0765)  ( 0.00     0.2450)
 D :1...1            ( 0.00     1.3742)
 F :1...1            ( 0.00     4.1720)

 CYCLE    5
  SDIIS (wt  0.000): -0.0214 -0.0561  0.3847  0.6927
 A-DIIS (wt  1.000):  0.0000  0.0000  0.2646  0.7354
  DIIS coefficients:  0.0000  0.0000  0.2646  0.7354
 SCF Error: norm([F,P])=      0.412794757847, max([F,P])=      0.328642040749
 orbitals (Q,E):
 ---------------
 S :1...3            ( 2.00   -10.1968)  ( 2.00    -0.5643)  ( 0.00     0.3336)
 P :1...2            ( 2.00    -0.2533)  ( 0.00     0.1428)
 D :1...1            ( 0.00     1.1818)
 F :1...1            ( 0.00     3.9467)

 CYCLE    6
  SDIIS (wt  0.032):  0.0025 -0.0116 -0.0698  0.2077  0.8712
[...]
    8.C          0.267  -0.042  -0.085        -0.096   0.000  -0.000        -0.569   0.000  -0.000
    9.O          0.280   0.020   0.022         0.071   0.000   0.000         0.419  -0.000   0.000
   10.C          0.267  -0.042   0.085         0.096   0.000  -0.000        -0.569   0.000   0.000
   11.O          0.280   0.020  -0.022        -0.071   0.000   0.000         0.419  -0.000  -0.000


                      2219.918                      2220.093                      2221.256
              ------------------------      ------------------------      ------------------------
    1.Sc         0.000   0.006   0.000         0.000   0.000  -0.000         0.000  -0.000  -0.001
    2.C         -0.000  -0.569  -0.000        -0.000   0.403   0.000        -0.000  -0.391  -0.000
    3.O          0.000   0.419   0.000         0.000  -0.296  -0.000         0.000   0.287   0.000
    4.C         -0.000  -0.569   0.000        -0.000  -0.403   0.000        -0.000   0.391  -0.000
    5.O          0.000   0.419  -0.000         0.000   0.296  -0.000         0.000  -0.287   0.000
    6.C         -0.000  -0.000   0.000        -0.000  -0.000   0.000        -0.000   0.000   0.193
    7.O          0.000   0.000  -0.000         0.000   0.000  -0.000         0.000   0.000  -0.141
    8.C         -0.010  -0.000  -0.000        -0.403  -0.000  -0.000        -0.391   0.000  -0.000
    9.O          0.007   0.000   0.000         0.296   0.000   0.000         0.287   0.000   0.000
   10.C         -0.010  -0.000   0.000         0.403  -0.000  -0.000         0.391   0.000  -0.000
   11.O          0.007   0.000  -0.000        -0.296   0.000   0.000        -0.287  -0.000   0.000




 List of All Frequencies:


 Intensities
 ===========

               Frequency       Dipole Strength        Absorption Intensity (degeneracy not counted)
                 cm-1           1e-40 esu2 cm2          km/mole
              ----------          ----------          ----------
              -14.845852            0.000000            0.000000
               32.377437         1565.907204           12.708274
               34.820311          330.706499            2.886380
               34.820311          330.706499            2.886380
               56.731050            0.000000            0.000000
               59.206203          216.432014            3.211935
               59.206203          216.432014            3.211935
              194.317497            0.000000            0.000000
              201.899512           76.267761            3.859707
              219.730345          207.902665           11.450598
              231.278783            0.000000            0.000000
              235.408217          259.455310           15.309544
              235.408217          259.455310           15.309544
              241.597997            0.000000            0.000000
              242.037355            1.167081            0.070805
              242.037355            1.167081            0.070805
              262.019203          190.556191           12.515098
              263.334572          183.955289           12.142224
              263.334572          183.955289           12.142224
              276.662202            0.000000            0.000000
              303.271977          701.617566           53.334817
              303.271977          701.617566           53.334817
             2218.838032            0.568431            0.316142
             2219.918369            8.008508            4.456221
             2219.918369            8.008508            4.456221
             2220.093020            0.000000            0.000000
             2221.256108            0.032382            0.018029



 ============================
 Statistical Thermal Analysis  ***  ideal gas assumed  ***
 ============================
  
 Pressure:                  1.000000 atm.
 Temperature:             298.150000 K



 Moments of Inertia (and direction vectors)
 ==========================================

        2901.1571       2901.1571       4067.2035
 ------------------------------------------------
           1.0000          0.0000          0.0000
           0.0000          1.0000          0.0000
           0.0000          0.0000          1.0000


 The rotational contribution to the molecular entropy includes
 a term, dependent on the symmetry number sigma. The results 
 reported below were computed using sigma = 4, determined from
 the point group symmetry of the input geometry (C(4V)). 
 If this is not the correct symmetry, please contact SCM to report a bug.
 Contributions from frequencies below 20 1/cm are not included in
 the vibrational sums. Their contributions, if any, are reported separately.


     Temp                                                       Transl     Rotat    Vibrat     Total
     ----                                                       ------     -----    ------     -----

     298.15   Entropy (cal/mole-K):                             41.551    29.149    56.736   127.436
              Internal Energy (Kcal/mole):                       0.889     0.889    29.375    31.152
              Constant Volume Heat Capacity (cal/mole-K):        2.981     2.981    38.361    44.322

              Summary of energy terms
                                                   hartree              eV         kcal/mol           kJ/mol
                                      --------------------     -----------       ----------      -----------
              Bond Energy:              -1.565928273573930        -42.6111          -982.63         -4111.34
              Internal Energy:           0.049644330406218          1.3509            31.15           130.34
              pV/n = RT:                 0.000944186013486          0.0257             0.59             2.48
              Enthalpy H:               -1.515339757154227        -41.2345          -950.89         -3978.52
              -T*S:                     -0.060549120790767         -1.6476           -38.00          -158.97
              Gibbs free energy:        -1.575888877944994        -42.8821          -988.89         -4137.50
 

 ***************************************************************************************************
 


====================================================================
*** DONE CALCULATING ANALYTICAL SECOND DERIVATIVES OF THE ENERGY ***
====================================================================

 
 
 ========================
 No memory problems found
 ========================
 
 Maximum number of active allocate calls:        2550
 
 *******************************************************************************

                             A D F   E X I T
 NORMAL TERMINATION



 =================
 Timing Statistics
 =================
  
 Total Used :                     CPU=      146.17      System=        0.66     Elapsed=      147.10

 Calls  Section                     ( Mean, Percentage )
 ---------------------------------------------------------------------------------------------------
     3  ><      ................      0.00    0.00             0.00    0.00             0.00    0.00
     1  INIT    ................      0.46    0.31             0.02    3.47             0.51    0.34
     1  GEOMET  ................      0.06    0.04             0.01    0.90             0.07    0.04
     1  FRAGM   ................      0.03    0.02             0.01    1.06             0.05    0.03
     1  INPUTA  ................      0.00    0.00             0.00    0.00             0.00    0.00
     1  ATDEN   ................      0.02    0.01             0.00    0.00             0.02    0.01
     1  MAINSY  ................      0.02    0.02             0.01    2.11             0.04    0.03
     1  SYMFIT  ................      0.01    0.00             0.00    0.00             0.01    0.01
     1  CORORT  ................      0.00    0.00             0.00    0.00             0.00    0.00
     1  SYMORB  ................      0.01    0.01             0.00    0.15             0.01    0.01
     1  CLSMAT  ................      0.02    0.01             0.00    0.30             0.02    0.01
     1  ORTHON  ................      0.02    0.01             0.00    0.30             0.02    0.01
     1  GENPT   ................      0.20    0.14             0.01    2.11             0.22    0.15
     1  PTBAS   ................      0.52    0.36             0.00    0.60             0.53    0.36
    16  FOCKY   ................      0.75    8.15             0.00    4.98             0.75    8.14
    16  FOCKTR  ................      0.00    0.05             0.00    0.30             0.01    0.06
    16  SDIIS   ................      0.01    0.06             0.00    0.75             0.01    0.08
     1  COREPS  ................      0.50    0.34             0.00    0.60             0.51    0.35
     1  TOTEN   ................      2.53    1.73             0.01    2.11             2.55    1.73
     1  POPAN   ................      0.01    0.01             0.00    0.15             0.01    0.01
     1  DEBYE   ................      0.01    0.01             0.00    0.15             0.01    0.01
     1  INPUTE  ................      0.00    0.00             0.00    0.00             0.00    0.00
     1  SYMORE  ................      0.00    0.00             0.00    0.00             0.00    0.00
     1  METS    ................      0.00    0.00             0.00    0.15             0.00    0.00
     1  CETS    ................      0.01    0.01             0.00    0.00             0.01    0.01
     2  ELNRGY  ................      1.30    1.78             0.00    1.21             1.31    1.78
     1  POPUL   ................      0.03    0.02             0.00    0.15             0.04    0.03
     1  ENGRAD  ................      0.00    0.00             0.00    0.00             0.00    0.00
     1  ENHESS  ................    126.97   86.86             0.51   77.68           127.62   86.76
     1  EXIT PROCEDURE .........      0.04    0.03             0.00    0.75             0.05    0.03


 Currently Open Files (EXIT00)
 ====================

 Unit    Access Format  Status   Type       Ident (file)
 -------------------------------------------------------
   3      SEQ    FORM   TRANSP  NORMAL      LOGFILE
                                          ( logfile )


 Buffered I/O statistics
 =======================
 Memory available:                     67108864
 Number of records fitting in memory:     16131
 Input :   0.2% of                       697588  *4k bytes
 Output:   5.1% of                        33038  *4k bytes
 Records from serial files evicted:           0
                    others evicted:           0
 Hash table lookups:    1874940 with          0 conflicts (  0.00%)

 ***************************************************************************************************
 (LOGFILE)
 <May19-2019> <11:26:32>  ADF 2017  RunTime: May19-2019 11:26:32  Nodes: 1  Procs: 1
 <May19-2019> <11:26:32>  Scandium (TZ2P)
 <May19-2019> <11:26:32>  RunType   : CREATE
 <May19-2019> <11:26:32>  Net Charge: 0 (Nuclei minus Electrons)
 <May19-2019> <11:26:32>  Symmetry  : ATOM
  Coordinates
    Atom         X           Y           Z   (Angstrom)
    1.Sc        0.000000    0.000000    0.000000
 <May19-2019> <11:26:32>  >>>> CORORT
 <May19-2019> <11:26:32>  >>>> CLSMAT
 <May19-2019> <11:26:32>  >>>> ORTHON
 <May19-2019> <11:26:32>  >>>> GENPT
 <May19-2019> <11:26:32>  Block Length= 102
 <May19-2019> <11:26:32>  >>>> PTBAS
 <May19-2019> <11:26:32>  >>>> CYCLE
 <May19-2019> <11:26:32>              |Error|         MaxErr       Wt(A-DIIS)
 <May19-2019> <11:26:32>      1      0.00000000      0.00000000
 <May19-2019> <11:26:33>      2     55.82285057     13.32742665    100.0
 <May19-2019> <11:26:33>      3     21.62069135      6.06535517    100.0
 <May19-2019> <11:26:33>      4      5.80154600      1.92783807    100.0
 <May19-2019> <11:26:33>      5      5.29807998      1.93747877    100.0
 <May19-2019> <11:26:33>      6      0.23301681      0.06302174     62.6
 <May19-2019> <11:26:33>      7      0.22084726      0.06810199     62.6
 <May19-2019> <11:26:33>      8      0.06069208      0.02248222     21.7
 <May19-2019> <11:26:33>      9      0.00899180      0.00326482      2.3
 <May19-2019> <11:26:33>     10      0.00022618      0.00007700      0.0
 <May19-2019> <11:26:33>     11      0.00001637      0.00000543      0.0
 <May19-2019> <11:26:33>     12      0.00000040      0.00000012      0.0
 <May19-2019> <11:26:33>     13      0.00000001      0.00000000      0.0
 <May19-2019> <11:26:33>  SCF converged
 <May19-2019> <11:26:33>     14      0.00000000      0.00000000      0.0
 <May19-2019> <11:26:33>  >>>> POPAN
 <May19-2019> <11:26:33>  >>>> DEBYE
 <May19-2019> <11:26:33>  NORMAL TERMINATION
 <May19-2019> <11:26:33>  END
 <May19-2019> <11:26:33>  ADF 2017  RunTime: May19-2019 11:26:33  Nodes: 1  Procs: 1
 <May19-2019> <11:26:33>  Oxygen (TZ2P)
 <May19-2019> <11:26:33>  RunType   : CREATE
 <May19-2019> <11:26:33>  Net Charge: 0 (Nuclei minus Electrons)
 <May19-2019> <11:26:33>  Symmetry  : ATOM
  Coordinates
    Atom         X           Y           Z   (Angstrom)
    1.O         0.000000    0.000000    0.000000
 <May19-2019> <11:26:33>  >>>> CORORT
 <May19-2019> <11:26:33>  >>>> CLSMAT
 <May19-2019> <11:26:33>  >>>> ORTHON
 <May19-2019> <11:26:33>  >>>> GENPT
 <May19-2019> <11:26:33>  Block Length=  68
 <May19-2019> <11:26:33>  >>>> PTBAS
 <May19-2019> <11:26:33>  >>>> CYCLE
 <May19-2019> <11:26:34>              |Error|         MaxErr       Wt(A-DIIS)
 <May19-2019> <11:26:34>      1      0.00000000      0.00000000
 <May19-2019> <11:26:34>      2      8.76574541      5.51803131    100.0
 <May19-2019> <11:26:34>      3      3.58549945      2.49941011    100.0
 <May19-2019> <11:26:34>      4      1.14791911      0.58301962    100.0
 <May19-2019> <11:26:34>      5      1.51958547      0.84054201    100.0
 <May19-2019> <11:26:34>      6      0.17882893      0.10424203    100.0
 <May19-2019> <11:26:34>      7      0.20012529      0.11364913    100.0
 <May19-2019> <11:26:34>      8      0.01695178      0.00994720      9.0
 <May19-2019> <11:26:34>      9      0.00174843      0.00098437      0.0
 <May19-2019> <11:26:34>     10      0.00000143      0.00000071      0.0
 <May19-2019> <11:26:34>     11      0.00000005      0.00000002      0.0
 <May19-2019> <11:26:34>     12      0.00000000      0.00000000      0.0
 <May19-2019> <11:26:34>  SCF converged
 <May19-2019> <11:26:34>     13      0.00000000      0.00000000      0.0
 <May19-2019> <11:26:34>  >>>> POPAN
 <May19-2019> <11:26:34>  >>>> DEBYE
 <May19-2019> <11:26:34>  NORMAL TERMINATION
 <May19-2019> <11:26:34>  END
 <May19-2019> <11:26:34>  ADF 2017  RunTime: May19-2019 11:26:34  Nodes: 1  Procs: 1
 <May19-2019> <11:26:34>  Carbon (TZ2P)
 <May19-2019> <11:26:34>  RunType   : CREATE
 <May19-2019> <11:26:34>  Net Charge: 0 (Nuclei minus Electrons)
 <May19-2019> <11:26:34>  Symmetry  : ATOM
  Coordinates
    Atom         X           Y           Z   (Angstrom)
    1.C         0.000000    0.000000    0.000000
 <May19-2019> <11:26:34>  >>>> CORORT
 <May19-2019> <11:26:34>  >>>> CLSMAT
 <May19-2019> <11:26:34>  >>>> ORTHON
 <May19-2019> <11:26:34>  >>>> GENPT
 <May19-2019> <11:26:34>  Block Length=  72
 <May19-2019> <11:26:34>  >>>> PTBAS
 <May19-2019> <11:26:34>  >>>> CYCLE
 <May19-2019> <11:26:35>              |Error|         MaxErr       Wt(A-DIIS)
 <May19-2019> <11:26:35>      1      0.00000000      0.00000000
 <May19-2019> <11:26:35>      2      4.48031974      3.32884133    100.0
 <May19-2019> <11:26:35>      3      1.63678889      1.31529535    100.0
 <May19-2019> <11:26:35>      4      0.72226765      0.58081551    100.0
 <May19-2019> <11:26:35>      5      0.41279476      0.32864204    100.0
 <May19-2019> <11:26:35>      6      0.12664316      0.09684749     96.8
 <May19-2019> <11:26:35>      7      0.11556823      0.09012376     90.0
 <May19-2019> <11:26:35>      8      0.00662928      0.00514089      4.2
 <May19-2019> <11:26:35>      9      0.00021574      0.00016342      0.0
 <May19-2019> <11:26:35>     10      0.00000195      0.00000132      0.0
 <May19-2019> <11:26:35>     11      0.00000002      0.00000002      0.0
 <May19-2019> <11:26:35>     12      0.00000000      0.00000000      0.0
 <May19-2019> <11:26:35>  SCF converged
 <May19-2019> <11:26:35>     13      0.00000000      0.00000000      0.0
 <May19-2019> <11:26:35>  >>>> POPAN
 <May19-2019> <11:26:35>  >>>> DEBYE
 <May19-2019> <11:26:35>  NORMAL TERMINATION
 <May19-2019> <11:26:35>  END
 <May19-2019> <11:26:35>  ADF 2017  RunTime: May19-2019 11:26:35  Nodes: 1  Procs: 12
 <May19-2019> <11:26:36>  *** (NO TITLE) ***
 <May19-2019> <11:26:36>  RunType   : SINGLE POINT
 <May19-2019> <11:26:36>  Net Charge: 3 (Nuclei minus Electrons)
 <May19-2019> <11:26:36>  Symmetry  : C(4V)
 <May19-2019> <11:26:36>  >>>> FRAGM
  Coordinates
    Atom         X           Y           Z   (Angstrom)
    1.Sc        0.000000    0.000000    0.000000
    2.C         0.000000    2.498426    0.000000
    3.O         0.000000    3.621933    0.000000
    4.C         0.000000   -2.498426    0.000000
    5.O         0.000000   -3.621933    0.000000
    6.C         0.000000    0.000000   -2.498426
    7.O         0.000000    0.000000   -3.621933
    8.C         2.498426    0.000000    0.000000
    9.O         3.621933    0.000000    0.000000
   10.C        -2.498426    0.000000    0.000000
   11.O        -3.621933    0.000000    0.000000
 <May19-2019> <11:26:36>  >>>> CORORT
 <May19-2019> <11:26:36>  >>>> CLSMAT
 <May19-2019> <11:26:36>  >>>> ORTHON
 <May19-2019> <11:26:36>  >>>> GENPT
 <May19-2019> <11:26:36>  Block Length= 128
 <May19-2019> <11:26:36>  >>>> PTBAS
 <May19-2019> <11:26:37>  >>>> CYCLE
 <May19-2019> <11:26:38>              |Error|         MaxErr       Wt(A-DIIS)
 <May19-2019> <11:26:38>      1      7.07001984      1.83090725
 <May19-2019> <11:26:39>      2      1.28745420      0.24980244    100.0
 <May19-2019> <11:26:39>      3      0.42116304      0.11119481    100.0
 <May19-2019> <11:26:40>      4      8.03549005      2.17515277    100.0
 <May19-2019> <11:26:41>      5      1.87595468      0.47440320    100.0
 <May19-2019> <11:26:42>      6      0.37262854      0.11944678    100.0
 <May19-2019> <11:26:42>      7      0.11957316      0.03488152     34.2
 <May19-2019> <11:26:43>      8      0.05853585      0.01670825     15.9
 <May19-2019> <11:26:44>      9      0.03387266      0.01545168     14.6
 <May19-2019> <11:26:44>     10      0.01148843      0.00493291      4.0
 <May19-2019> <11:26:45>     11      0.00130549      0.00031159      0.0
 <May19-2019> <11:26:46>     12      0.00022618      0.00004537      0.0
 <May19-2019> <11:26:47>     13      0.00002556      0.00000646      0.0
 <May19-2019> <11:26:47>     14      0.00000706      0.00000174      0.0
 <May19-2019> <11:26:48>     15      0.00000108      0.00000025      0.0
 <May19-2019> <11:26:48>  SCF converged
 <May19-2019> <11:26:49>     16      0.00000014      0.00000004      0.0
 <May19-2019> <11:26:49>  >>>> TOTEN
 <May19-2019> <11:26:52>  >>>> POPAN
 <May19-2019> <11:26:52>  >>>> DEBYE
 <May19-2019> <11:26:52>  >>>> AMETS
 <May19-2019> <11:26:52>   Bond Energy          -1.56592827 a.u.
 <May19-2019> <11:26:52>   Bond Energy         -42.61107639 eV
 <May19-2019> <11:26:52>   Bond Energy        -982.63       kcal/mol
 <May19-2019> <11:26:52>  >>>> POPUL
 <May19-2019> <11:26:52>  >>>> ENGRAD
 <May19-2019> <11:26:55>  >>>> ENHESS
 <May19-2019> <11:26:55>  === NUCLEUS:     1
 <May19-2019> <11:27:20>  === NUCLEUS:     2
 <May19-2019> <11:27:45>  === NUCLEUS:     4
 <May19-2019> <11:28:08>  === NUCLEUS:     7
 <May19-2019> <11:28:33>  === NUCLEUS:     9
 <May19-2019> <11:28:56>  >>>> CALC_HESS_PMAT
 <May19-2019> <11:29:00>  >>>> CALC_HESS_WMAT
 <May19-2019> <11:29:02>  NORMAL TERMINATION
 <May19-2019> <11:29:02>  END
