

 Parallel Execution: Process Information
 ==============================================================================
 Rank   Node Name                              NodeID   MyNodeRank  NodeMaster
    0   BAZIS-cn018                               0          0          0
    1   BAZIS-cn018                               0          1         -1
    2   BAZIS-cn018                               0          2         -1
    3   BAZIS-cn018                               0          3         -1
    4   BAZIS-cn018                               0          4         -1
    5   BAZIS-cn018                               0          5         -1
    6   BAZIS-cn018                               0          6         -1
    7   BAZIS-cn018                               0          7         -1
    8   BAZIS-cn018                               0          8         -1
    9   BAZIS-cn018                               0          9         -1
   10   BAZIS-cn018                               0         10         -1
   11   BAZIS-cn018                               0         11         -1
 ==============================================================================


May use up to 30771MB of RAM as shared memory on node 0


XC
    GGA BP86
END

SCF
    iterations 250
END

EPRINT
    SFO Eig Ovl
END

ZLMFIT
    Quality normal
END

BECKEGRID
    Quality good
End

SYMMETRY nosym
CHARGE -1

ATOMS
1.Cl       -4.851346    2.980883   -0.041226 f=ClF
2.F        -3.829714    1.315120    0.009761 f=ClF
3.Cl       -6.094322    5.002916   -0.105735 f=Cl
END

Fragments
ClF /home/tcst25/advanced_comp_chemistry/exercise2/halogen/FClCl/frag1_ClF.t21
Cl /home/tcst25/advanced_comp_chemistry/exercise2/halogen/FClCl/frag2_Cl.t21
End
end input

 *******************************************************************************
 *                                                                             *
 *  -------------------------------------                                      *
 *   Amsterdam Density Functional  (ADF)         2017                          *
 *  -------------------------------------                                      *
 *                                               r58813 2017-04-12             *
 *                                                                             *
 *                                                                             *
 *                              =================                              *
 *                              |               |                              *
 *                              |     A D F     |                              *
 *                              |               |                              *
 *                              =================                              *
 *                                                                             *
 *                                                                             *
 *   Online information and documentation:  https://www.scm.com/support/       *
 *   E-mail:  support@scm.com   info@scm.com                                   *
 *                                                                             *
 *   Scientific publications using ADF results must be properly referenced     *
 *   See the User Manuals (or the web site) for recommended citations          *
 *   The terms and conditions of the End User License Agreement apply to       *
 *   the use of ADF, https://www.scm.com/license-terms/                        *
 *                                                                             *
 **********************  x86_64_linux_intel / intelmpi  ************************
 
 Licensed to: VU/FEW (+ SARA) / ALGEMEEN / Amsterdam / THE NETHERLANDS
 SCM User ID: u7668
  
 ADF 2017  RunTime: May09-2019 17:12:12  Nodes: 1  Procs: 12

 Temporary files are created in /local/datastore0/tcst25/189787/kid_0.oHADo3


Communication costs MPI_COMM_WORLD:      3.846 usec per message,   0.0178 usec per 8-byte item
Communication costs for intra-node:      3.852 usec per message,   0.0177 usec per 8-byte item

 *** (NO TITLE) ***



 ===========================
 A T T A C H E D   F I L E S
 ===========================
  



 ===============================
 M O D E L   P A R A M E T E R S
 ===============================
  
 DENSITY FUNCTIONAL POTENTIAL (scf)
    LDA:                               VWN                                      
    Gradient Corrections:              Becke88 Perdew86                        == Not Default ==

 SPIN  (restricted / unrestr.)
    Molecule:                          Restricted                               
    Fragments:                         Restricted                               

 OTHER ASPECTS
    Relativistic Corrections:          ---                                      

    Nuclear Charge Density Model:      Point Charge Nuclei                      
    Core Treatment:                    Frozen Orbital(s)                        

    Hyperfine or Zeeman Interaction:   ---                                      


 Fragment File(s)
 ----------------
 ClF:
         file : /home/tcst25/advanced_comp_chemistry/exercise2/halogen/FClCl/frag1_ClF.t21
         jobid: ADF 2017  RunTime: May09-2019 16:32:32  Nodes: 1  Procs: 12
         title: *** (NO TITLE) ***
 Cl:
         file : /home/tcst25/advanced_comp_chemistry/exercise2/halogen/FClCl/frag2_Cl.t21
         jobid: ADF 2017  RunTime: May09-2019 16:32:32  Nodes: 1  Procs: 12
         title: *** (NO TITLE) ***



                                        ************************************
                                        *  R U N   T Y P E : SINGLE POINT  *
                                        ************************************
  



 ===============
 G E O M E T R Y  ***  Planar Molecule  ***
 ===============
  

 ATOMS
 =====                            X Y Z                    CHARGE
                                (Angstrom)             Nucl     +Core       At.Mass
                       --------------------------    ----------------       -------
    1  Cl             -4.8513    2.9809   -0.0412     17.00     17.00       34.9689
    2  F              -3.8297    1.3151    0.0098      9.00      9.00       18.9984
    3  Cl             -6.0943    5.0029   -0.1057     17.00     17.00       34.9689


 FRAGMENTS
 =========                                     Atoms in this Fragment     Cart. coord.s (Angstrom)
                                               -------------------------------------------------------
    1  ClF                                               1  Cl          -4.8513    2.9809   -0.0412
                                                         2  F           -3.8297    1.3151    0.0098
    2  Cl                                                3  Cl          -6.0943    5.0029   -0.1057


 Interatomic Distance Matrix (Angstrom)
 --------------------------------------

   1)     0.000
   2)     1.955   0.000
   3)     2.374   4.329   0.000

 Min. Distance =    1.9548
 Max. Distance =    4.3292



 =====================================
 S Y M M E T R Y ,   E L E C T R O N S
 =====================================
  
 Symmetry: NOSYM

 Irreducible Representations, including subspecies
 -------------------------------------------------
 A


 Configuration of Valence Electrons
 ==================================
 ( determined in the SCF procedure )

 Total:   44

 Net Charge: -1 (Nuclei minus Electrons)

 Aufbau principle for MO occupations will be applied through SCF cycle no.     125
 Thereafter, the program will assign electrons to MOs that are spatially
 similar to the occupied MOs in a "reference" cycle ("KeepOrbitals").
 The reference cycle is always the PREVIOUS cycle: it will evolve with
 the SCF procedure.
1
 ***************************************************************************************************



                                      ****************************************
                                      *  B U I L D : (Fragments, Functions)  *
                                      ****************************************
  

 The individual fragments are copies of the corresponding 'Master' fragments defined on the fragment files.
 However, they may have been rotated (and translated) with respect to the Master. The local coordinate axes
 of each fragment (which define for instance the spatial orientation in the current molecule of a fragment
 P:x orbital) are not necessarily those of the molecule.
 The local frame (if different from the molecular one) is printed to enable an interpretation of the expan-
 sion of an MO in Fragment Orbitals.



                                             *************************
                                             *  Fragment Type : ClF  *
                                             *************************
  

 Fragment no.    1   (in the list of all fragments)
 -----------------
 The local coordinate frame is identical to the molecular frame.

 Check Atomic Coordinates:

                  Master (on file)          After Computed Tranformation               As specified on Input
           ----------------------------     ----------------------------     ---------------------------------
     1)    -4.85135   2.98088  -0.04123     -4.85135   2.98088  -0.04123       1  -4.85135   2.98088  -0.04123
     2)    -3.82971   1.31512   0.00976     -3.82971   1.31512   0.00976       2  -3.82971   1.31512   0.00976



                                              ************************
                                              *  Fragment Type : Cl  *
                                              ************************
  

 Fragment no.    2   (in the list of all fragments)
 -----------------
 The local coordinate frame is identical to the molecular frame.

 Check Atomic Coordinates:

                  Master (on file)          After Computed Tranformation               As specified on Input
           ----------------------------     ----------------------------     ---------------------------------
     1)    -6.09432   5.00292  -0.10573     -6.09432   5.00292  -0.10573       3  -6.09432   5.00292  -0.10573



 =======
 S F O s  ***  (Symmetrized Fragment Orbitals)  ***
 =======
  
 SFOs are linear combinations of (valence) Fragment Orbitals (FOs), such that the SFOs transform as the
 irreducible representations of the (molecular) symmetry group. Each SFO is therefore characterized by
 an irrep of the molecule and by a few (or only one) generating FOs.
 The SFOs constitute a symmetry-adapted basis for the Fock matrix. The MO eigenvector coefficients in
 this basis provide a direct interpretation of the MOs in terms of Frontier Orbital Theory.

 The SFOs are combined with auxiliary Core Functions (CFs) to ensure orthogonalization on the (frozen)
 Core Orbitals (COs). The Core-orthogonalized SFOs (CSFOs) constitute the true Fock basis.

 The FOs, and hence also the (C)SFOs are combinations of the elementary basis functions (BAS). The basis
 functions that participate in the description of the SFOs depend on the irrep. The indices of the
 involved functions are printed below for each irrep.
 (The complete list of primitive basis functions is printed in another section)

 Total nr. of (C)SFOs (summation over all irreps) :    94

 NOTE: a (C)SFO that is defined as a combination of more than one FO is usually NOT normalized.



                                       === A ===
 Nr. of SFOs :   94
 Cartesian basis functions that participate in this irrep (total number =   106) :
      1     2     3     4    11    12    13     5     8    14
     17    20     6     9    15    18    21     7    10    16
     19    22    23    24    25    26    27    28    29    30
     31    32    33    34    35    36    37    38    39    40
     41    42    43    44    47    50    45    48    51    46
     49    52    53    54    55    56    57    58    59    60
     61    62    63    64    65    66    67    68    69    70
     71    72    79    80    81    73    76    82    85    88
     74    77    83    86    89    75    78    84    87    90
     91    92    93    94    95    96    97    98    99   100
    101   102   103   104   105   106

    SFO  (index         Fragment          Generating    Expansion in Fragment Orbitals
  indx  incl.CFs)   Occup   Orb.Energy   FragmentType  Coeff.   Orbital     on Fragment
 --------------------------------------------------------------------------------------
     1       1      2.000    -100.818 au  ClF           1.00      1 A               1
                        (   -2743.404 eV)
     2       2      2.000     -24.332 au  ClF           1.00      2 A               1
                        (    -662.103 eV)
     3       3      2.000      -9.266 au  ClF           1.00      3 A               1
                        (    -252.132 eV)
     4       4      2.000      -7.103 au  ClF           1.00      4 A               1
                        (    -193.278 eV)
     5       5      2.000      -7.081 au  ClF           1.00      5 A               1
                        (    -192.679 eV)
     6       6      2.000      -7.081 au  ClF           1.00      6 A               1
                        (    -192.679 eV)
     7       7      2.000      -1.070 au  ClF           1.00      7 A               1
                        (     -29.122 eV)
     8       8      2.000      -0.780 au  ClF           1.00      8 A               1
                        (     -21.229 eV)
     9       9      2.000      -0.456 au  ClF           1.00      9 A               1
                        (     -12.412 eV)
    10      10      2.000      -0.382 au  ClF           1.00     10 A               1
                        (     -10.404 eV)
    11      11      2.000      -0.382 au  ClF           1.00     11 A               1
                        (     -10.404 eV)
    12      12      2.000      -0.314 au  ClF           1.00     12 A               1
                        (      -8.531 eV)
    13      13      2.000      -0.314 au  ClF           1.00     13 A               1
                        (      -8.531 eV)
    14      14       --        -0.258 au  ClF           1.00     14 A               1
                        (      -7.031 eV)
    15      15       --         0.036 au  ClF           1.00     15 A               1
                        (       0.986 eV)
    16      16       --         0.187 au  ClF           1.00     16 A               1
                        (       5.098 eV)
    17      17       --         0.219 au  ClF           1.00     17 A               1
                        (       5.955 eV)
    18      18       --         0.219 au  ClF           1.00     18 A               1
                        (       5.955 eV)
    19      19       --         0.272 au  ClF           1.00     19 A               1
                        (       7.415 eV)
    20      20       --         0.320 au  ClF           1.00     20 A               1
                        (       8.700 eV)
    21      21       --         0.320 au  ClF           1.00     21 A               1
                        (       8.700 eV)
    22      22       --         0.368 au  ClF           1.00     22 A               1
                        (      10.023 eV)
    23      23       --         0.368 au  ClF           1.00     23 A               1
                        (      10.023 eV)
    24      24       --         0.481 au  ClF           1.00     24 A               1
                        (      13.091 eV)
    25      25       --         0.558 au  ClF           1.00     25 A               1
                        (      15.197 eV)
    26      26       --         0.558 au  ClF           1.00     26 A               1
                        (      15.197 eV)
    27      27       --         0.701 au  ClF           1.00     27 A               1
                        (      19.068 eV)
    28      28       --         1.026 au  ClF           1.00     28 A               1
                        (      27.913 eV)
    29      29       --         1.026 au  ClF           1.00     29 A               1
                        (      27.913 eV)
    30      30       --         1.061 au  ClF           1.00     30 A               1
                        (      28.874 eV)
    31      31       --         1.061 au  ClF           1.00     31 A               1
                        (      28.875 eV)
    32      32       --         1.180 au  ClF           1.00     32 A               1
                        (      32.097 eV)
    33      33       --         1.180 au  ClF           1.00     33 A               1
                        (      32.097 eV)
    34      34       --         1.301 au  ClF           1.00     34 A               1
                        (      35.397 eV)
    35      35       --         1.338 au  ClF           1.00     35 A               1
                        (      36.420 eV)
    36      36       --         1.338 au  ClF           1.00     36 A               1
                        (      36.420 eV)
    37      37       --         1.397 au  ClF           1.00     37 A               1
                        (      38.027 eV)
    38      38       --         1.574 au  ClF           1.00     38 A               1
                        (      42.828 eV)
    39      39       --         1.574 au  ClF           1.00     39 A               1
                        (      42.828 eV)
    40      40       --         1.862 au  ClF           1.00     40 A               1
                        (      50.676 eV)
    41      41       --         2.098 au  ClF           1.00     41 A               1
                        (      57.082 eV)
    42      42       --         2.098 au  ClF           1.00     42 A               1
                        (      57.082 eV)
    43      43       --         2.112 au  ClF           1.00     43 A               1
                        (      57.460 eV)
    44      44       --         2.647 au  ClF           1.00     44 A               1
                        (      72.016 eV)
    45      45       --         3.462 au  ClF           1.00     45 A               1
                        (      94.215 eV)
    46      46       --         3.462 au  ClF           1.00     46 A               1
                        (      94.216 eV)
    47      47       --         3.512 au  ClF           1.00     47 A               1
                        (      95.570 eV)
    48      48       --         3.512 au  ClF           1.00     48 A               1
                        (      95.570 eV)
    49      49       --         3.671 au  ClF           1.00     49 A               1
                        (      99.891 eV)
    50      50       --         3.671 au  ClF           1.00     50 A               1
                        (      99.891 eV)
    51      51       --         3.835 au  ClF           1.00     51 A               1
                        (     104.352 eV)
    52      52       --         4.719 au  ClF           1.00     52 A               1
                        (     128.417 eV)
    53      53       --         4.719 au  ClF           1.00     53 A               1
                        (     128.418 eV)
    54      54       --         5.187 au  ClF           1.00     54 A               1
                        (     141.154 eV)
    55      55       --        13.139 au  ClF           1.00     55 A               1
                        (     357.529 eV)
    56      56       --        18.843 au  ClF           1.00     56 A               1
                        (     512.747 eV)
    57      57       --        18.843 au  ClF           1.00     57 A               1
                        (     512.750 eV)
    58      58       --        19.294 au  ClF           1.00     58 A               1
                        (     525.026 eV)
    59      59       --        49.386 au  ClF           1.00     59 A               1
                        (    1343.866 eV)
    60      60       --       216.263 au  ClF           1.00     60 A               1
                        (    5884.827 eV)
    61      61      2.000    -100.372 au  Cl            1.00      1 A               2
                        (   -2731.270 eV)
    62      62      2.000      -8.827 au  Cl            1.00      2 A               2
                        (    -240.193 eV)
    63      63      2.000      -6.649 au  Cl            1.00      3 A               2
                        (    -180.916 eV)
    64      64      2.000      -6.649 au  Cl            1.00      4 A               2
                        (    -180.916 eV)
    65      65      2.000      -6.649 au  Cl            1.00      5 A               2
                        (    -180.916 eV)
    66      66      2.000      -0.385 au  Cl            1.00      6 A               2
                        (     -10.473 eV)
    67      67      2.000       0.033 au  Cl            1.00      7 A               2
                        (       0.909 eV)
    68      68      2.000       0.033 au  Cl            1.00      8 A               2
                        (       0.909 eV)
    69      69      2.000       0.033 au  Cl            1.00      9 A               2
                        (       0.909 eV)
    70      70       --         0.475 au  Cl            1.00     10 A               2
                        (      12.914 eV)
    71      71       --         0.489 au  Cl            1.00     11 A               2
                        (      13.299 eV)
    72      72       --         0.489 au  Cl            1.00     12 A               2
                        (      13.299 eV)
    73      73       --         0.489 au  Cl            1.00     13 A               2
                        (      13.299 eV)
    74      74       --         0.741 au  Cl            1.00     14 A               2
                        (      20.162 eV)
    75      75       --         0.741 au  Cl            1.00     15 A               2
                        (      20.162 eV)
    76      76       --         0.741 au  Cl            1.00     16 A               2
                        (      20.162 eV)
    77      77       --         0.741 au  Cl            1.00     17 A               2
                        (      20.162 eV)
    78      78       --         0.741 au  Cl            1.00     18 A               2
                        (      20.162 eV)
    79      79       --         1.518 au  Cl            1.00     19 A               2
                        (      41.294 eV)
    80      80       --         1.518 au  Cl            1.00     20 A               2
                        (      41.294 eV)
    81      81       --         1.518 au  Cl            1.00     21 A               2
                        (      41.294 eV)
    82      82       --         1.518 au  Cl            1.00     22 A               2
                        (      41.294 eV)
    83      83       --         1.518 au  Cl            1.00     23 A               2
                        (      41.294 eV)
    84      84       --         1.518 au  Cl            1.00     24 A               2
                        (      41.294 eV)
    85      85       --         1.518 au  Cl            1.00     25 A               2
                        (      41.294 eV)
    86      86       --         2.351 au  Cl            1.00     26 A               2
                        (      63.962 eV)
    87      87       --         2.448 au  Cl            1.00     27 A               2
                        (      66.612 eV)
    88      88       --         2.448 au  Cl            1.00     28 A               2
                        (      66.612 eV)
    89      89       --         2.448 au  Cl            1.00     29 A               2
                        (      66.612 eV)
    90      90       --        13.113 au  Cl            1.00     30 A               2
                        (     356.814 eV)
    91      91       --        19.210 au  Cl            1.00     31 A               2
                        (     522.735 eV)
    92      92       --        19.210 au  Cl            1.00     32 A               2
                        (     522.735 eV)
    93      93       --        19.210 au  Cl            1.00     33 A               2
                        (     522.735 eV)
    94      94       --       215.062 au  Cl            1.00     34 A               2
                        (    5852.138 eV)



 ================================
 (Slater-type)  F U N C T I O N S  ***  (Basis and Fit)  ***
 ================================
  

 Atom Type    1  (Cl)
 ==============

 Valence Basis Sets:  14
 -----------------------
   1 S   20.300000
   1 S   15.250000
   2 S    6.250000
   2 S    4.450000
   2 P    8.850000
   2 P    5.050000
   3 S    3.450000
   3 S    2.300000
   3 S    1.600000
   3 P    3.350000
   3 P    2.050000
   3 P    1.200000
   3 D    2.000000
   4 F    2.000000

 Atom Type    2  (F)
 ==============

 Valence Basis Sets:  10
 -----------------------
   1 S   10.880000
   1 S    7.700000
   2 S    3.240000
   2 S    1.940000
   2 S    0.740000
   2 P    4.540000
   2 P    2.300000
   2 P    1.240000
   3 D    2.000000
   4 F    3.000000

 Atom Type    3  (Cl)
 ==============

 Valence Basis Sets:  14
 -----------------------
   1 S   20.300000
   1 S   15.250000
   2 S    6.250000
   2 S    4.450000
   2 P    8.850000
   2 P    5.050000
   3 S    3.450000
   3 S    2.300000
   3 S    1.600000
   3 P    3.350000
   3 P    2.050000
   3 P    1.200000
   3 D    2.000000
   4 F    2.000000


 BAS: List of all Elementary Cartesian Basis Functions
 =====================================================

 The numbering in the list below (to the right of the function characteristics) is referred
 to in print-outs of MO eigenvectors and Mulliken populations in the BAS representation
 (as contrasted to the SFO representation).

 Notes:
 1. The functions are characterized by a polynomial prefactor (powers of x,y,z and r) and
    an exponential decay factor alpha.
 2. Since the basis sets are specific for an atom TYPE, the individual functions occur on
    all atoms of that type.
 3. The word 'Core' in the left margin signals that it is a Core Function (CF) : not a
    degree of freedom in the valence set, but only used to ensure orthogonalization of
    the other valence basis functions on the frozen Core Orbitals.


 (power of) X  Y  Z  R     Alpha  on Atom
            ==========     =====     ==========

 Cl                                   1
                                  ---------------------------------------------------------------------------
            0  0  0  0    20.300      1
            0  0  0  0    15.250      2
            0  0  0  1     6.250      3
            0  0  0  1     4.450      4
            1  0  0  0     8.850      5
            0  1  0  0     8.850      6
            0  0  1  0     8.850      7
            1  0  0  0     5.050      8
            0  1  0  0     5.050      9
            0  0  1  0     5.050     10
            0  0  0  2     3.450     11
            0  0  0  2     2.300     12
            0  0  0  2     1.600     13
            1  0  0  1     3.350     14
            0  1  0  1     3.350     15
            0  0  1  1     3.350     16
            1  0  0  1     2.050     17
            0  1  0  1     2.050     18
            0  0  1  1     2.050     19
            1  0  0  1     1.200     20
            0  1  0  1     1.200     21
            0  0  1  1     1.200     22
            2  0  0  0     2.000     23
            1  1  0  0     2.000     24
            1  0  1  0     2.000     25
            0  2  0  0     2.000     26
            0  1  1  0     2.000     27
            0  0  2  0     2.000     28
            3  0  0  0     2.000     29
            2  1  0  0     2.000     30
            2  0  1  0     2.000     31
            1  2  0  0     2.000     32
            1  1  1  0     2.000     33
            1  0  2  0     2.000     34
            0  3  0  0     2.000     35
            0  2  1  0     2.000     36
            0  1  2  0     2.000     37
            0  0  3  0     2.000     38

 F                                    2
                                  ---------------------------------------------------------------------------
            0  0  0  0    10.880     39
            0  0  0  0     7.700     40
            0  0  0  1     3.240     41
            0  0  0  1     1.940     42
            0  0  0  1     0.740     43
            1  0  0  0     4.540     44
            0  1  0  0     4.540     45
            0  0  1  0     4.540     46
            1  0  0  0     2.300     47
            0  1  0  0     2.300     48
            0  0  1  0     2.300     49
            1  0  0  0     1.240     50
            0  1  0  0     1.240     51
            0  0  1  0     1.240     52
            2  0  0  0     2.000     53
            1  1  0  0     2.000     54
            1  0  1  0     2.000     55
            0  2  0  0     2.000     56
            0  1  1  0     2.000     57
            0  0  2  0     2.000     58
            3  0  0  0     3.000     59
            2  1  0  0     3.000     60
            2  0  1  0     3.000     61
            1  2  0  0     3.000     62
            1  1  1  0     3.000     63
            1  0  2  0     3.000     64
            0  3  0  0     3.000     65
            0  2  1  0     3.000     66
            0  1  2  0     3.000     67
            0  0  3  0     3.000     68

 Cl                                   3
                                  ---------------------------------------------------------------------------
            0  0  0  0    20.300     69
            0  0  0  0    15.250     70
            0  0  0  1     6.250     71
            0  0  0  1     4.450     72
            1  0  0  0     8.850     73
            0  1  0  0     8.850     74
            0  0  1  0     8.850     75
            1  0  0  0     5.050     76
            0  1  0  0     5.050     77
            0  0  1  0     5.050     78
            0  0  0  2     3.450     79
            0  0  0  2     2.300     80
            0  0  0  2     1.600     81
            1  0  0  1     3.350     82
            0  1  0  1     3.350     83
            0  0  1  1     3.350     84
            1  0  0  1     2.050     85
            0  1  0  1     2.050     86
            0  0  1  1     2.050     87
            1  0  0  1     1.200     88
            0  1  0  1     1.200     89
            0  0  1  1     1.200     90
            2  0  0  0     2.000     91
            1  1  0  0     2.000     92
            1  0  1  0     2.000     93
            0  2  0  0     2.000     94
            0  1  1  0     2.000     95
            0  0  2  0     2.000     96
            3  0  0  0     2.000     97
            2  1  0  0     2.000     98
            2  0  1  0     2.000     99
            1  2  0  0     2.000    100
            1  1  1  0     2.000    101
            1  0  2  0     2.000    102
            0  3  0  0     2.000    103
            0  2  1  0     2.000    104
            0  1  2  0     2.000    105
            0  0  3  0     2.000    106

 Total number of charge fitting functions (nprimf)       297
 Total number of Cartesian basis functions (naos)        106
 Total number of Cartesian core functions  (ncos)          0

1
 ***************************************************************************************************



                                              ***********************
                                              *  T E C H N I C A L  *
                                              ***********************
  



 =============================================================
 P A R A L L E L I Z A T I O N  and  V E C T O R I Z A T I O N
 =============================================================
  
 Nr of parallel processes:                               12
 Maximum vector length in NumInt loops:                 128

 IO buffersize (Mb):                                     64.000000



 =====================
 S C F   U P D A T E S
 =====================
  
 Max. nr. of cycles:                               250
 Convergence criterion:                              0.0000010000
   secondary criterion:                              0.0010000000

 Mix parameter (when DIIS does not apply):           0.2000000000
 Mixed ADIIS+DIIS will be used
    Max number of expansion vectors:                10
    Pure ADIIS when Max([F,P]) is above              0.1000000000
    Pure DIIS when Max([F,P]) is below               0.0010000000
 Automatic ElectronSmearing (in case of problematic SCF convergence) disabled



 =================
 P R E C I S I O N  ***  (General: NumInt, NeglectFunctionTails, ...)  ***
 =================
  

 NumInt:           Target precision:                 6.0000000000
 -------           Initial precision:                6.0000000000
                   Min. precision (optimization):    6.0000000000

 Neglect Functions:          Basis functions:        0.1000000000E-07
 ------------------          Fit functions:          0.1000000000E-07



 ===========================
 L I N E A R   S C A L I N G
 ===========================
  

 Cut-off radii density fit:                        0.1000000000E-09
 Overlap cut-off criterion AO matrix elements:     0.1000000000E-07
 Cut-offs for Coulomb potential and fitted density:0.1000000000E-09
 Cut-off criterion for Coulomb multipole terms:    0.1000000000E-09
 Progressive Convergence parameter:                 0.000000000    
1
 ***************************************************************************************************



                                            ***************************
                                            *  C O M P U T A T I O N  *
                                            ***************************
  

 Number of elements of the density matrix on this node (used, total):       741      5671



 ===========================================
 Numerical Integration : Fuzzy Cells (Becke)
 ===========================================
  
 Becke grid quality: GOOD           
  
 Lebedev angular grid order:             min:  11 max:  31
 Nr. of radial points:                   min:  65 max:  80

 Total nr. of points:      48617
 Nr. of blocks:              380
 Block length:               128
 Nr. of dummy points:         23


 Test of Precision of the Numerical Integration Grid
 ===================================================

 Integral of the Total Core Density:                   0.00000000000000



 ========================
 Density Fitting (zlmFit)
 ========================
  
 ZlmFit Fit Quality: NORMAL         
  
 Max L-expansion:                        min:   7 max:   7
 Nr. of radial interpolation points:     min:  51 max:  60



 =====
 S C F  ***  ScaSCF  ***
 =====
  
 Initial density matrix is calculated as sum of fragments

 CYCLE    1
 SCF Error: norm([F,P])=      1.180695605044, max([F,P])=      0.724989455470
 orbitals (Q,E):
 ---------------
 A :13...32          ( 2.00    -0.5955)  ( 2.00    -0.4409)  ( 2.00    -0.3107)  ( 2.00    -0.2592)
                     ( 2.00    -0.2592)  ( 2.00    -0.1325)  ( 2.00    -0.1325)  ( 2.00    -0.1131)
                     ( 2.00    -0.0070)  ( 2.00    -0.0070)  ( 0.00     0.0539)  ( 0.00     0.1611)
                     ( 0.00     0.3985)  ( 0.00     0.3985)  ( 0.00     0.4088)  ( 0.00     0.4173)
                     ( 0.00     0.4599)  ( 0.00     0.4599)  ( 0.00     0.5197)  ( 0.00     0.5197)

 CYCLE    2
  SDIIS (wt  0.000):  0.4822  0.5178
 A-DIIS (wt  1.000):  0.9239  0.0761
  DIIS coefficients:  0.9239  0.0761
 SCF Error: norm([F,P])=      1.137281474783, max([F,P])=      0.491888969415
 orbitals (Q,E):
 ---------------
 A :13...23          ( 2.00    -0.5784)  ( 2.00    -0.4664)  ( 2.00    -0.2763)  ( 2.00    -0.2159)
                     ( 2.00    -0.2159)  ( 2.00    -0.1171)  ( 2.00    -0.1171)  ( 2.00    -0.1064)
                     ( 2.00    -0.0312)  ( 2.00    -0.0312)  ( 0.00     0.0446)

 CYCLE    3
  SDIIS (wt  0.000):  0.0906 -1.5523  2.4617
 A-DIIS (wt  1.000):  0.8833  0.0000  0.1167
  DIIS coefficients:  0.8833  0.0000  0.1167
 SCF Error: norm([F,P])=      0.767720895934, max([F,P])=      0.353996206483
 orbitals (Q,E):
 ---------------
 A :13...23          ( 2.00    -0.5785)  ( 2.00    -0.4696)  ( 2.00    -0.2707)  ( 2.00    -0.2081)
                     ( 2.00    -0.2081)  ( 2.00    -0.1166)  ( 2.00    -0.1166)  ( 2.00    -0.1059)
                     ( 2.00    -0.0344)  ( 2.00    -0.0344)  ( 0.00     0.0431)

 CYCLE    4
  SDIIS (wt  0.000): -1.3351 -0.6649  3.0000
 A-DIIS (wt  1.000):  0.0000  0.0000  1.0000
  DIIS coefficients:  0.0000  0.0000  1.0000
 SCF Error: norm([F,P])=      0.714751405273, max([F,P])=      0.334946147648
 orbitals (Q,E):
 ---------------
 A :13...23          ( 2.00    -0.5117)  ( 2.00    -0.4523)  ( 2.00    -0.2822)  ( 2.00    -0.2692)
                     ( 2.00    -0.2692)  ( 2.00    -0.0281)  ( 2.00    -0.0281)  ( 2.00    -0.0072)
                     ( 2.00     0.1797)  ( 2.00     0.1797)  ( 0.00     0.2178)

 CYCLE    5
  SDIIS (wt  0.000): -0.8978 -1.1830  3.0000  0.0808
 A-DIIS (wt  1.000):  0.0000  0.0000  0.8274  0.1726
  DIIS coefficients:  0.0000  0.0000  0.8274  0.1726
 SCF Error: norm([F,P])=      2.499264789534, max([F,P])=      0.896086145003
 orbitals (Q,E):
 ---------------
 A :13...23          ( 2.00    -0.6144)  ( 2.00    -0.4609)  ( 2.00    -0.2059)  ( 2.00    -0.1641)
                     ( 2.00    -0.1641)  ( 2.00    -0.0889)  ( 2.00    -0.0646)  ( 2.00    -0.0646)
                     ( 2.00    -0.0044)  ( 2.00    -0.0044)  ( 0.00     0.0992)

 CYCLE    6
  SDIIS (wt  0.000): -0.2546 -2.0000  2.9100  0.0152  0.3294
 A-DIIS (wt  1.000):  0.0000  0.0000  0.4938  0.0000  0.5062
  DIIS coefficients:  0.0000  0.0000  0.4938  0.0000  0.5062
 SCF Error: norm([F,P])=      0.712789880982, max([F,P])=      0.195037526073
 orbitals (Q,E):
 ---------------
 A :13...23          ( 2.00    -0.5819)  ( 2.00    -0.5033)  ( 2.00    -0.2142)  ( 2.00    -0.1431)
                     ( 2.00    -0.1431)  ( 2.00    -0.0827)  ( 2.00    -0.0827)  ( 2.00    -0.0827)
                     ( 2.00    -0.0504)  ( 2.00    -0.0504)  ( 0.00     0.0497)

 CYCLE    7
  SDIIS (wt  0.000): -0.1859 -1.3873  2.0094 -0.0527  0.2785  0.3381
 A-DIIS (wt  1.000):  0.0000  0.0000  0.2746  0.0000  0.1270  0.5985
  DIIS coefficients:  0.0000  0.0000  0.2746  0.0000  0.1270  0.5985
 SCF Error: norm([F,P])=      0.466278743500, max([F,P])=      0.215101495094
 orbitals (Q,E):
 ---------------
 A :13...23          ( 2.00    -0.5523)  ( 2.00    -0.4864)  ( 2.00    -0.2259)  ( 2.00    -0.1604)
                     ( 2.00    -0.1604)  ( 2.00    -0.1129)  ( 2.00    -0.1040)  ( 2.00    -0.1040)
                     ( 2.00    -0.0444)  ( 2.00    -0.0444)  ( 0.00     0.0588)

 CYCLE    8
  SDIIS (wt  0.000): -0.0372 -1.8757  2.1732 -0.0153  0.0755  0.4074  0.2720
 A-DIIS (wt  1.000):  0.0000  0.0000  0.0243  0.0000  0.0000  0.5438  0.4320
  DIIS coefficients:  0.0000  0.0000  0.0243  0.0000  0.0000  0.5438  0.4320
 SCF Error: norm([F,P])=      0.537994198958, max([F,P])=      0.192614668414
 orbitals (Q,E):
 ---------------
 A :13...23          ( 2.00    -0.5687)  ( 2.00    -0.4902)  ( 2.00    -0.2284)  ( 2.00    -0.1530)
                     ( 2.00    -0.1530)  ( 2.00    -0.0998)  ( 2.00    -0.0998)  ( 2.00    -0.0966)
                     ( 2.00    -0.0546)  ( 2.00    -0.0546)  ( 0.00     0.0446)

 CYCLE    9
  SDIIS (wt  0.000): -0.0816 -0.5188  0.6842 -0.0132  0.0878  0.3262  0.1764  0.3388
 A-DIIS (wt  1.000):  0.0000  0.0000  0.0000  0.0000  0.0000  0.3568  0.1614  0.4818
  DIIS coefficients:  0.0000  0.0000  0.0000  0.0000  0.0000  0.3568  0.1614  0.4818
 SCF Error: norm([F,P])=      0.243187781561, max([F,P])=      0.106051213501
 orbitals (Q,E):
 ---------------
 A :13...23          ( 2.00    -0.5666)  ( 2.00    -0.5020)  ( 2.00    -0.2111)  ( 2.00    -0.1300)
                     ( 2.00    -0.1300)  ( 2.00    -0.1021)  ( 2.00    -0.1021)  ( 2.00    -0.1009)
                     ( 2.00    -0.0520)  ( 2.00    -0.0520)  ( 0.00     0.0554)

 CYCLE   10
  SDIIS (wt  0.185):  0.0093 -0.0938  0.0300 -0.0026 -0.0219  0.1130  0.0128  0.5204  0.4329
 A-DIIS (wt  0.815):  0.0000  0.0000 -0.0000  0.0000  0.0000  0.0245  0.0000  0.4435  0.5320
  DIIS coefficients:  0.0017 -0.0174  0.0056 -0.0005 -0.0041  0.0409  0.0024  0.4578  0.5136
 SCF Error: norm([F,P])=      0.205109374461, max([F,P])=      0.081659817584
 orbitals (Q,E):
 ---------------
 A :13...23          ( 2.00    -0.5712)  ( 2.00    -0.5007)  ( 2.00    -0.2175)  ( 2.00    -0.1394)
                     ( 2.00    -0.1394)  ( 2.00    -0.0933)  ( 2.00    -0.0931)  ( 2.00    -0.0931)
                     ( 2.00    -0.0581)  ( 2.00    -0.0581)  ( 0.00     0.0473)

 CYCLE   11
  SDIIS (wt  0.566): -0.0134  0.2015 -0.2076  0.0004 -0.0132 -0.1044  0.0542  0.1081  0.1327  0.8417
 A-DIIS (wt  0.434):  0.0000  0.0000  0.0000  0.0000  0.0000  0.0000  0.0000  0.1505  0.1160  0.7335
  DIIS coefficients: -0.0076  0.1142 -0.1176  0.0003 -0.0075 -0.0591  0.0307  0.1265  0.1254  0.7948
 SCF Error: norm([F,P])=      0.103792455430, max([F,P])=      0.043918878276
 orbitals (Q,E):
 ---------------
 A :13...23          ( 2.00    -0.5641)  ( 2.00    -0.4990)  ( 2.00    -0.2188)  ( 2.00    -0.1402)
                     ( 2.00    -0.1402)  ( 2.00    -0.0991)  ( 2.00    -0.0985)  ( 2.00    -0.0985)
                     ( 2.00    -0.0575)  ( 2.00    -0.0574)  ( 0.00     0.0488)

 CYCLE   12
  SDIIS (wt  0.692):  0.0198 -0.0309 -0.0000 -0.0075 -0.0111 -0.0181  0.0901  0.1103  0.3820  0.4654
 A-DIIS (wt  0.308):  0.0000  0.0000  0.0000  0.0000  0.0000  0.0000  0.0000  0.0000  0.4038  0.5962
  DIIS coefficients:  0.0137 -0.0214 -0.0000 -0.0052 -0.0077 -0.0125  0.0623  0.0763  0.3887  0.5057
 SCF Error: norm([F,P])=      0.078651544124, max([F,P])=      0.031519495092
 orbitals (Q,E):
 ---------------
 A :13...23          ( 2.00    -0.5670)  ( 2.00    -0.4999)  ( 2.00    -0.2179)  ( 2.00    -0.1390)
                     ( 2.00    -0.1390)  ( 2.00    -0.0965)  ( 2.00    -0.0963)  ( 2.00    -0.0963)
                     ( 2.00    -0.0579)  ( 2.00    -0.0579)  ( 0.00     0.0482)

 CYCLE   13
  SDIIS (wt  0.990): -0.0020  0.0000 -0.0019 -0.0089 -0.0050  0.0220  0.0270  0.1889  0.2414  0.5383
 A-DIIS (wt  0.010):  0.0000  0.0000  0.0000  0.0000  0.0000  0.0000  0.0000  0.0000  0.0000  1.0000
  DIIS coefficients: -0.0019  0.0000 -0.0019 -0.0088 -0.0050  0.0218  0.0267  0.1870  0.2390  0.5430
 SCF Error: norm([F,P])=      0.005695698557, max([F,P])=      0.002009402529
 orbitals (Q,E):
 ---------------
 A :13...23          ( 2.00    -0.5669)  ( 2.00    -0.4999)  ( 2.00    -0.2181)  ( 2.00    -0.1392)
                     ( 2.00    -0.1392)  ( 2.00    -0.0966)  ( 2.00    -0.0964)  ( 2.00    -0.0964)
                     ( 2.00    -0.0579)  ( 2.00    -0.0579)  ( 0.00     0.0481)

 CYCLE   14
  SDIIS (wt  1.000):  0.0000 -0.0001 -0.0015 -0.0013  0.0005  0.0014  0.0304  0.0497  0.1805  0.7404
  DIIS coefficients:  0.0000 -0.0001 -0.0015 -0.0013  0.0005  0.0014  0.0304  0.0497  0.1805  0.7404
 SCF Error: norm([F,P])=      0.000284966775, max([F,P])=      0.000102713655
 orbitals (Q,E):
 ---------------
 A :13...23          ( 2.00    -0.5669)  ( 2.00    -0.4999)  ( 2.00    -0.2180)  ( 2.00    -0.1391)
                     ( 2.00    -0.1391)  ( 2.00    -0.0966)  ( 2.00    -0.0964)  ( 2.00    -0.0964)
                     ( 2.00    -0.0579)  ( 2.00    -0.0579)  ( 0.00     0.0482)

 CYCLE   15
  SDIIS (wt  1.000): -0.0000 -0.0002 -0.0002  0.0000  0.0001  0.0045  0.0077  0.0315  0.1372  0.8194
  DIIS coefficients: -0.0000 -0.0002 -0.0002  0.0000  0.0001  0.0045  0.0077  0.0315  0.1372  0.8194
 SCF Error: norm([F,P])=      0.000011415659, max([F,P])=      0.000004742465
 orbitals (Q,E):
 ---------------
 A :13...23          ( 2.00    -0.5669)  ( 2.00    -0.4999)  ( 2.00    -0.2180)  ( 2.00    -0.1392)
                     ( 2.00    -0.1391)  ( 2.00    -0.0966)  ( 2.00    -0.0964)  ( 2.00    -0.0964)
                     ( 2.00    -0.0579)  ( 2.00    -0.0579)  ( 0.00     0.0482)

 CYCLE   16
  SDIIS (wt  1.000): -0.0001 -0.0000  0.0000  0.0000  0.0013  0.0020  0.0091  0.0378  0.3390  0.6109
  DIIS coefficients: -0.0001 -0.0000  0.0000  0.0000  0.0013  0.0020  0.0091  0.0378  0.3390  0.6109
 SCF Error: norm([F,P])=      0.000002383213, max([F,P])=      0.000000892269
 orbitals (Q,E):
 ---------------
 A :13...23          ( 2.00    -0.5669)  ( 2.00    -0.4999)  ( 2.00    -0.2180)  ( 2.00    -0.1392)
                     ( 2.00    -0.1391)  ( 2.00    -0.0966)  ( 2.00    -0.0964)  ( 2.00    -0.0964)
                     ( 2.00    -0.0579)  ( 2.00    -0.0579)  ( 0.00     0.0482)

 SCF CONVERGED

 CYCLE   17
1
 ***************************************************************************************************



                                                *******************
                                                *  R E S U L T S  *
                                                *******************
  
 *** Setting up for NEW gradients in Focky
 *** Using FIT density in Focky

 Orbital Energies, per Irrep and Spin:
 ======================================
                        Occup              E (au)              E (eV)       Diff (eV) with prev. cycle
                        -----      --------------------        ------       --------------------------
 A
              13        2.000     -0.56693232991981E+00       -15.427               3.08E-06
              14        2.000     -0.49989378678798E+00       -13.603               2.87E-06
              15        2.000     -0.21804852660351E+00        -5.933               1.03E-06
              16        2.000     -0.13915040439338E+00        -3.786               4.85E-07
              17        2.000     -0.13914846432006E+00        -3.786               4.85E-07
              18        2.000     -0.96634663842295E-01        -2.630               1.55E-06
              19        2.000     -0.96423515968596E-01        -2.624               1.34E-06
              20        2.000     -0.96420162485558E-01        -2.624               1.34E-06
              21        2.000     -0.57916239001679E-01        -1.576               1.75E-06
              22        2.000     -0.57914740293870E-01        -1.576               1.75E-06
              23        0.000      0.48152709557243E-01         1.310
              24        0.000      0.21066012193060E+00         5.732
              25        0.000      0.36524943010107E+00         9.939
              26        0.000      0.39672321203810E+00        10.795
              27        0.000      0.39672642503781E+00        10.795
              28        0.000      0.40918058813978E+00        11.134
              29        0.000      0.46288593615788E+00        12.596
              30        0.000      0.46288840338289E+00        12.596
              31        0.000      0.50959194637590E+00        13.867
              32        0.000      0.50959401726419E+00        13.867
  
 HOMO :       22 A                -0.57914740293870E-01
 LUMO :       23 A                 0.48152709557243E-01
  


 All Electron Calculation, thus no Orbital Energies of the Core Orbitals are calculated


 Fit test: (difference of exact and fit density, squared integrated, result summed over spins)
         Sum-of-Fragments:                             0.00016127400190
         Orthogonalized Fragments:                     0.00016235425197
         SCF:                                          0.00016351427139



 ==========================
 Electron Density at Nuclei
 ==========================
  
 The electron density is calculated at points on a small sphere around the center of a nucleus.
 The printed electron density is the average electron density on these points.
 The radius of the sphere is the printed approximate finite nuclear radius.

         Atom        Nuclear Radius (Angstrom)             Electron Density (a.u.)
         ----        -------------------------             -----------------------
     1)   Cl                0.0000426624                             3212.01070
     2)   F                 0.0000361580                              447.53926
     3)   Cl                0.0000426624                             3210.57936



 =======================================
 M U L L I K E N   P O P U L A T I O N S
 =======================================
  
 The survey below gives for each atom:
 a) the total charge (Z minus electrons)
 b) the net spin polarization (nr of electrons spin-A minus spin-B)
 c) for each spin the atomic electron valence density (integrated) per L-value.

 Atom              Charge    Spin density          S         P         D         F
 ----              ------    ------------       ------    ------    ------    ------
 1 Cl             -0.0012                       5.9877   10.8954    0.1020    0.0161
 2 F              -0.5082                       3.9915    5.5042    0.0114    0.0010
 3 Cl             -0.4906                       5.9800   11.4822    0.0230    0.0055

 Populations of individual BAS functions
 ----------------------------------------
 1 Cl           0.5054  1.4528  1.7143  0.2454  0.7266  0.7190  0.7311  1.2726  1.2824  1.2666
                0.6473  1.0752  0.3472  0.2639  0.1775  0.3161  1.0325  0.8172  1.1624  0.4009
                0.2113  0.5153  0.0059  0.0429  0.0050  0.0333  0.0132  0.0017 -0.0019  0.0007
                0.0011  0.0113  0.0024 -0.0043  0.0128  0.0093 -0.0071 -0.0080
 2 F            0.5758  1.4010  1.0896  0.9086  0.0165  0.3847  0.3388  0.4122  0.9244  0.8541
                0.9665  0.5524  0.4682  0.6029  0.0000  0.0042  0.0007  0.0094  0.0019 -0.0048
               -0.0006 -0.0014  0.0005  0.0030  0.0001 -0.0020  0.0047  0.0036 -0.0030 -0.0040
 3 Cl           0.5055  1.4530  1.7130  0.2537  0.7268  0.7237  0.7287  1.2714  1.2757  1.2688
                0.6073  1.0270  0.4206  0.2841  0.2428  0.3092  1.0220  0.9378  1.0732  0.5523
                0.4538  0.6120  0.0011  0.0076  0.0017  0.0145  0.0045 -0.0063 -0.0018 -0.0010
                0.0009  0.0073  0.0008 -0.0038  0.0096  0.0068 -0.0064 -0.0068

 Gross Charges per Atom (Z minus electrons)
 ==========================================
            -0.0012   -0.5082   -0.4906
 Net Total: -1.00000000


 Atom-Atom Population Matrix (off-diagonal elements not doubled)
 ===============================================================

     1 :    17.0143
     2 :     0.0150    9.4862
     3 :    -0.0281    0.0070   17.5117


 Frag-Frag Population Matrix (off-diagonal elements not doubled)
 ===============================================================

     1 :    26.5304
     2 :    -0.0211   17.5117



 =================================================
 H I R S H F E L D   C H A R G E   A N A L Y S I S
 =================================================
  
 For each fragment: the (numerical) integral of rho(scf) * rho(fragment)/rho(sum-of-fragments)
 (nuclear charges are included, electrons are counted negative)

 The fragments and their ordering are defined in the early G E O M E T R Y output section.
 If you use single-atom fragments, this usually implies that all atoms of the same
 chemical type are grouped together. This may not be the order in which you listed them
 in the input file!

    1  ClF                      -0.3817
    2  Cl                       -0.6183

 Sum of these charges (accuracy NumInt/Tails) =          -0.99999920



 =============================
 V O R O N O I   C H A R G E S
 =============================
  
 For each atom: the (numerical) integral of the total electronic charge density in its Voronoi cell,
 i.e. the region of space that is closer to that atom than to any other atom.
 (cf. Wigner-Seitz cells in crystals)

 Within the Voronoi cell the subintegrals over the atomic sphere and the remaining part are evaluated
 separately to give the numbers of electrons (negative charge) in these regions.
 The net total charge in the cell (including the nuclear charge) is also given.

 Values are provided for
    a) the Initial (sum-of-fragments) density
    b) the Orthogonalized-Fragments density
    c) the SCF density
    d) the Voronoi Deformation Density (VDD): the difference SCF-Initial for the complete atomic cell
 ---------------------------------------------------------------------------------------------------
 Total NetCharge:              -1.000                     -1.000                     -1.000   -0.000
 (accuracy NumInt/Tails)

 Remark: the 'NetTotal' Voronoi charges often do not match the Mulliken and/or Hirshfeld charges very
 well. This is caused by the fact that chemically different atoms are not treated in accordance with
 their relative sizes. (Voronoi cells are defined by boundary planes halfway between the atoms.)
 However, the CHANGES in charge, comparing 'Initial' to 'SCF' for instance, do give a fair indication
 of the flow of charge caused by the relaxation from sum-of-fragments to self-consistency.

 Warning: the absolute accuracy of the VDD charges obtained using the Fuzzy Cells (Becke) integration
 scheme is much poorer than the one obtained with an 'equivalent' Voronoi integration grid. 



 =================================================================
 M U L T I P O L E   D E R I V E D   C H A R G E   A N A L Y S I S
 =================================================================

 This charge analysis uses the atomic multipoles (obtained from the fitted density) up to some level X,
 and reconstructs these multipoles exactly (up to level X) by distributing charges over all atoms.
 This is achieved by using Lagrange multipliers and a weight function to keep the multipoles local.

 Dummy atoms can be included (by setting INCDUM in MDC-block to 1) to obtain a fractional charge.
 This is generally useful and necessary only for small symmetrical molecules, when there are not
 enough degrees of freedom to reconstruct the multipoles.

 Since the atomic multipoles are reconstructed up to level X,
 the molecular multipoles are represented also up to level X.
 The recommended level is to reconstruct up to quadrupole : -> MDC-q charges.

 See: M. Swart, P.Th. van Duijnen, J.G. Snijders, J.Comput.Chem., (2001), p. 79-88.

 ------------------------------------------------------------- 
 Atomic electronic multipole moments from SCF equations (a.u.)
 ------------------------------------------------------------- 

   atom        charge        dip-x     dip-y     dip-z      quad-xx   quad-xy   quad-xz   quad-yy   quad-yz   quad-zz
 --------------------------------------------------------------------------------------------------------------------
    1 Cl     0.162357     0.316523 -0.516469  0.015625    -0.217963 -1.082251  0.033674  1.429875 -0.054825 -1.211912
    2 F     -0.713164     0.153184 -0.249909  0.007596    -0.011009 -0.054924  0.001674  0.072459 -0.002750 -0.061451
    3 Cl    -0.449193     0.138045 -0.224644  0.007086    -0.113533 -0.571051  0.018314  0.752434 -0.029785 -0.638901

 --------------------------------------- 
 Multipole derived atomic charges (a.u.)
 --------------------------------------- 

 The MDC-m charges are just the Monopole terms in the multipole expansion, while for the MDC-d charges
 also the Dipoles are reconstructed. The usually preferred charges are the MDC-q charges.
 These reconstruct the Monopoles, Dipoles and Quadrupoles (both atomic AND molecular).

        Atom    Level:     MDC-m        MDC-d        MDC-q
 ---------------------------------------------------------
     1     Cl           0.162357    -0.169175     0.000587
     2     F           -0.713164    -0.389179    -0.482434
     3     Cl          -0.449193    -0.441647    -0.518153

 ------------------------------------------------ 
 Average absolute deviations in atomic multipoles
 ------------------------------------------------ 

 Stated here are the average differences between the atomic multipoles
 and the reconstructed atomic multipoles (from the distributed charges).
 If these values are not zero, this means there are not enough degrees of freedom,
 to be able to reconstruct the atomic multipoles. (This usually happens only
 for small and/or highly symmetric molecules). If this is the case, one could add
 dummy atoms as extra point charges (and setting INCDUM in MDC-block to 1).

 Level:                                 MDC-d        MDC-q
 ---------------------------------------------------------
 Charge   (a.u.)                       0.0000       0.0000
 Dipole   (Debye)                      0.0000       0.0038
 Quad.    (a.u.)                       0.3463       0.1510

 --------------------------------------- 
 Represented molecular multipole moments
 --------------------------------------- 

 Given here are the Molecular multipole moments from the atomic charges, and from the Fit Density.
 Note that the atomic charges represent the latter, NOT the ones from the Exact density.

            Q (a.u.)             Dipole moment (Debye)                                          Quadrupole moment (a.u.)
                                 x         y         z              xx        xy        xz        yy        yz        zz
------------------------------------------------------------------------------------------------------------------------
MDC-m        -1.0000       22.4842  -12.9744    0.1625        -63.5746   80.0254   -1.2337    2.2486    1.1169   61.3260
MDC-d        -1.0000       24.0290  -15.4933    0.2396        -69.5460   95.7338   -1.6277   -0.6478    1.3360   70.1938
MDC-q        -1.0000       24.0282  -15.4903    0.2404        -69.2948   97.5944   -1.6913   -2.2924    1.4347   71.5873
 
Fit.Dens.    -1.0000       24.0290  -15.4934    0.2396        -69.4609   97.2163   -1.6739   -1.2023    1.4111   70.6632



 =============
 Dipole Moment  ***  (Debye)  ***
 =============
  
 Vector   :        24.03250215    -15.49882282      0.23983434
 Magnitude:        28.59776545

 This molecular dipole moment is calculated with analytic integration
 ************************************************************************************
 Since the molecule is NOT NEUTRAL, the dipole moment depends on the choice of origin
 ************************************************************************************



 =========================================
 Quadrupole Moment (Buckingham convention)  ***  (a.u.)  ***
 =========================================
  
      quad-xx        quad-xy        quad-xz        quad-yy        quad-yz        quad-zz
    -69.47437731    96.40230423    -1.64858714    -1.21264438     1.36852580    70.68702170

 This molecular quadrupole moment is calculated with analytic integration
1



                                             *************************
                                             *  SFO MO coefficients  *
                                             *************************
  


                                       === A ===
 MOs expanded in CFs+SFOs
 ========================

 The SFOs have been characterized in an earlier part of output.
 To deduce the bonding / antibonding nature of SFO combinations in an MO, consider the products
 of the coefficients AND THE OVERLAP between the SFOs (may be NEGATIVE). The SFO overlap matrix
 is printed later, in the SFO Populations section.

 (The CF coefficients are not printed)

 MOs :      1        2        3        4        5        6        7        8        9       10
 occup:   2.00     2.00     2.00     2.00     2.00     2.00     2.00     2.00     2.00     2.00
 CF+SFO
     1  -1.0000  -0.0000  -0.0000   0.0001   0.0000   0.0000   0.0000   0.0000  -0.0000  -0.0000
     2  -0.0000  -0.0000   1.0000  -0.0000   0.0000  -0.0000  -0.0000  -0.0000  -0.0000  -0.0000
     3  -0.0001   0.0000   0.0000  -0.9999  -0.0004  -0.0047  -0.0000  -0.0000   0.0000  -0.0000
     4  -0.0000  -0.0000  -0.0000   0.0047   0.0001  -1.0000  -0.0000  -0.0006   0.0001   0.0000
     5  -0.0000   0.0000   0.0000   0.0000  -0.0000   0.0001  -0.9925  -0.1225  -0.0000  -0.0000
     6   0.0000  -0.0000  -0.0000  -0.0000   0.0000  -0.0006  -0.1225   0.9925   0.0000  -0.0000
     7  -0.0000  -0.0000  -0.0001  -0.0001   0.0002  -0.0000  -0.0000  -0.0000  -0.0000  -0.0000
     8   0.0000   0.0001   0.0001   0.0009  -0.0012   0.0002  -0.0000   0.0000  -0.0002  -0.0000
     9   0.0000   0.0000   0.0000   0.0003  -0.0007  -0.0000  -0.0000  -0.0000  -0.0002  -0.0000
    10   0.0000   0.0000   0.0000   0.0000  -0.0000   0.0000  -0.0001   0.0000  -0.0000   0.0000
    11  -0.0000  -0.0000  -0.0000  -0.0000   0.0000  -0.0000  -0.0000  -0.0001   0.0000  -0.0000
    12   0.0000   0.0000   0.0000   0.0000  -0.0000   0.0000  -0.0001   0.0001  -0.0000   0.0000
    13   0.0000   0.0000   0.0000   0.0000  -0.0000   0.0000   0.0001   0.0001  -0.0000   0.0000
    14   0.0000   0.0000   0.0001   0.0001  -0.0008   0.0000  -0.0000  -0.0000  -0.0004  -0.0000
    15  -0.0000  -0.0000  -0.0001  -0.0002   0.0008  -0.0001  -0.0000  -0.0000   0.0001  -0.0000
    16   0.0000   0.0001   0.0001   0.0005  -0.0016   0.0004   0.0000   0.0000  -0.0003  -0.0000
    17  -0.0000  -0.0000  -0.0000  -0.0000   0.0000  -0.0000   0.0000   0.0001   0.0000  -0.0000
    18  -0.0000  -0.0000  -0.0000  -0.0000   0.0000  -0.0000  -0.0001   0.0000   0.0000  -0.0001
    19   0.0000  -0.0000   0.0000   0.0002   0.0002   0.0003  -0.0000   0.0000  -0.0002  -0.0000
    20   0.0000   0.0000   0.0000  -0.0000  -0.0000   0.0000   0.0002  -0.0002  -0.0000  -0.0001
    21   0.0000   0.0000   0.0000  -0.0000  -0.0000   0.0000  -0.0002  -0.0002  -0.0000   0.0000
    22   0.0000   0.0000   0.0000   0.0000  -0.0000   0.0000  -0.0000  -0.0000   0.0000  -0.0000
    23  -0.0000  -0.0000   0.0000  -0.0000   0.0000   0.0000   0.0000  -0.0000   0.0000   0.0000
    24  -0.0000  -0.0000  -0.0000  -0.0001   0.0002   0.0003  -0.0000  -0.0000  -0.0002   0.0000
    25  -0.0000  -0.0000  -0.0000  -0.0000   0.0000  -0.0000   0.0001  -0.0001  -0.0000  -0.0000
    26   0.0000   0.0000   0.0000   0.0000  -0.0000   0.0000   0.0001   0.0001   0.0000  -0.0000
    27   0.0000   0.0000  -0.0000   0.0001  -0.0000  -0.0001   0.0000   0.0000   0.0000   0.0000
    28   0.0000   0.0000  -0.0000   0.0000  -0.0000  -0.0000  -0.0000  -0.0000   0.0000  -0.0000
    29  -0.0000  -0.0000  -0.0000  -0.0000   0.0000  -0.0000  -0.0000   0.0000   0.0000   0.0000
    30  -0.0000  -0.0000   0.0000  -0.0000   0.0000   0.0000   0.0001  -0.0000  -0.0000  -0.0001
    31  -0.0000  -0.0000   0.0000  -0.0000   0.0000   0.0000  -0.0000  -0.0001  -0.0000  -0.0000
    32  -0.0000   0.0000  -0.0000  -0.0000  -0.0000   0.0000  -0.0000   0.0000   0.0000   0.0000
    33   0.0000  -0.0000   0.0000   0.0000   0.0000   0.0000  -0.0000   0.0000  -0.0000   0.0000
    34   0.0000  -0.0000   0.0001  -0.0000   0.0002   0.0001  -0.0000   0.0000  -0.0002   0.0000
    35  -0.0000  -0.0000   0.0000   0.0000  -0.0000  -0.0000   0.0000  -0.0000  -0.0000  -0.0000
    36   0.0000   0.0000  -0.0000   0.0000  -0.0000   0.0000  -0.0000  -0.0000   0.0000  -0.0000
    37   0.0000   0.0000  -0.0000   0.0002  -0.0001   0.0002   0.0000   0.0000  -0.0000  -0.0000
    38  -0.0000   0.0000  -0.0000  -0.0000  -0.0000  -0.0000   0.0000  -0.0001   0.0000   0.0001
    39  -0.0000   0.0000  -0.0000  -0.0000  -0.0000  -0.0000  -0.0001  -0.0000   0.0000  -0.0000
    40   0.0000  -0.0000   0.0001  -0.0000   0.0002   0.0004  -0.0000   0.0000  -0.0000  -0.0000
    41  -0.0000  -0.0000  -0.0000  -0.0000   0.0000   0.0000   0.0004  -0.0000  -0.0000  -0.0000
    42   0.0000   0.0000   0.0000   0.0000  -0.0000  -0.0000  -0.0000  -0.0004   0.0000  -0.0000
    43   0.0000   0.0000   0.0000   0.0008  -0.0001  -0.0002   0.0000   0.0000   0.0001   0.0000
    44  -0.0000   0.0000   0.0000  -0.0002  -0.0001  -0.0004  -0.0000  -0.0000   0.0001  -0.0000
    45   0.0000  -0.0000   0.0000   0.0000   0.0000   0.0000   0.0000   0.0000   0.0000  -0.0000
    46   0.0000  -0.0000   0.0000   0.0000   0.0000   0.0000   0.0000   0.0000   0.0000  -0.0000
    47   0.0000  -0.0000  -0.0000   0.0000   0.0000   0.0000   0.0000   0.0000  -0.0000   0.0000
    48  -0.0000   0.0000  -0.0000  -0.0000  -0.0000   0.0000   0.0000  -0.0000  -0.0000  -0.0000
    49   0.0000   0.0000  -0.0000   0.0000  -0.0000  -0.0000  -0.0000   0.0000   0.0000   0.0000
    50  -0.0000  -0.0000   0.0000   0.0000   0.0000   0.0000  -0.0000  -0.0000  -0.0000  -0.0000
    51  -0.0000   0.0000   0.0000  -0.0000  -0.0000  -0.0001  -0.0000  -0.0000   0.0000  -0.0000
    52   0.0000   0.0000  -0.0000   0.0000  -0.0000   0.0000   0.0000   0.0000  -0.0000  -0.0000
    53   0.0000   0.0000  -0.0000   0.0000  -0.0000   0.0000  -0.0000   0.0000  -0.0000   0.0000
    54  -0.0000   0.0000   0.0001  -0.0001  -0.0001  -0.0000   0.0000  -0.0000   0.0000  -0.0000
    55  -0.0001   0.0000  -0.0000  -0.0003  -0.0000  -0.0000   0.0000   0.0000   0.0000   0.0000
    56  -0.0000   0.0000  -0.0000   0.0000  -0.0000  -0.0000   0.0004   0.0003   0.0000  -0.0000
    57   0.0000  -0.0000   0.0000   0.0000   0.0000   0.0000   0.0003  -0.0004  -0.0000  -0.0000
    58   0.0000   0.0000   0.0000   0.0001  -0.0000  -0.0005   0.0000  -0.0000   0.0000  -0.0000
    59   0.0000  -0.0000  -0.0002   0.0000   0.0000  -0.0000  -0.0000  -0.0000   0.0000  -0.0000
    60  -0.0001  -0.0000   0.0000   0.0000   0.0000   0.0000  -0.0000   0.0000  -0.0000  -0.0000
    61  -0.0000  -1.0000  -0.0000  -0.0000  -0.0000  -0.0000  -0.0000  -0.0000  -0.0000   0.0000
    62   0.0000  -0.0000   0.0000   0.0000   0.9998   0.0000   0.0000   0.0000   0.0023  -0.0000
    63   0.0000   0.0000   0.0000   0.0000   0.0004  -0.0000  -0.0000   0.0000  -0.1593   0.9633
    64   0.0000   0.0000   0.0000   0.0000   0.0022  -0.0000   0.0000   0.0000  -0.9578  -0.2039
    65   0.0000   0.0000   0.0000   0.0000   0.0005  -0.0000  -0.0000  -0.0000  -0.2395   0.1746
    66   0.0000   0.0001   0.0001   0.0005  -0.0019   0.0002   0.0000   0.0000  -0.0003  -0.0000
    67   0.0000   0.0000   0.0000   0.0002  -0.0005   0.0002   0.0000   0.0000  -0.0001  -0.0000
    68  -0.0000  -0.0000  -0.0001  -0.0003   0.0010  -0.0004   0.0000   0.0000   0.0001  -0.0000
    69   0.0000   0.0000   0.0000   0.0000  -0.0000   0.0000   0.0000  -0.0000  -0.0000  -0.0003
    70   0.0000   0.0000   0.0001   0.0005  -0.0009   0.0001   0.0000   0.0000  -0.0002  -0.0000
    71  -0.0000  -0.0000  -0.0000  -0.0003   0.0007  -0.0000   0.0000   0.0000   0.0001   0.0000
    72  -0.0000  -0.0000  -0.0000  -0.0000   0.0001  -0.0000  -0.0000   0.0001   0.0000  -0.0002
    73  -0.0000  -0.0000  -0.0000  -0.0003   0.0008  -0.0000  -0.0000  -0.0000   0.0002  -0.0000
    74  -0.0000   0.0000   0.0000  -0.0000   0.0000   0.0001   0.0000   0.0000  -0.0001   0.0000
    75  -0.0000   0.0000   0.0000  -0.0000   0.0000   0.0001  -0.0001  -0.0000  -0.0001   0.0000
    76   0.0000  -0.0000  -0.0000   0.0000  -0.0000  -0.0000   0.0000  -0.0001   0.0000  -0.0001
    77   0.0000  -0.0000  -0.0000   0.0000  -0.0000  -0.0001   0.0000  -0.0000   0.0001  -0.0001
    78  -0.0000   0.0000   0.0000  -0.0001   0.0000   0.0003   0.0000  -0.0000  -0.0003  -0.0000
    79  -0.0000  -0.0000   0.0000  -0.0003   0.0000   0.0001   0.0000  -0.0000  -0.0002  -0.0000
    80  -0.0000  -0.0000   0.0000  -0.0001   0.0000   0.0001  -0.0000   0.0000  -0.0001   0.0000
    81   0.0000   0.0000  -0.0000   0.0000  -0.0000  -0.0000  -0.0001  -0.0001   0.0000   0.0000
    82  -0.0000  -0.0000   0.0000  -0.0000   0.0000   0.0000  -0.0000   0.0000  -0.0000   0.0001
    83  -0.0000  -0.0000   0.0000  -0.0000   0.0000   0.0000  -0.0000   0.0000  -0.0000   0.0000
    84  -0.0000  -0.0000   0.0000  -0.0001   0.0000   0.0001  -0.0000  -0.0000  -0.0001   0.0000
    85   0.0000   0.0000  -0.0000   0.0000  -0.0000  -0.0000   0.0001  -0.0001   0.0000  -0.0001
    86   0.0000   0.0000  -0.0000   0.0001  -0.0009  -0.0001   0.0000   0.0000   0.0000  -0.0000
    87   0.0000  -0.0000  -0.0000   0.0001   0.0000  -0.0001   0.0000   0.0000   0.0004  -0.0001
    88  -0.0000   0.0000   0.0000  -0.0001  -0.0000   0.0001   0.0000   0.0000  -0.0003  -0.0001
    89   0.0000  -0.0000  -0.0000   0.0000   0.0000  -0.0000   0.0000  -0.0000   0.0000  -0.0006
    90  -0.0000   0.0001  -0.0000  -0.0000  -0.0003   0.0000  -0.0000  -0.0000  -0.0000  -0.0000
    91  -0.0000  -0.0000   0.0000  -0.0000   0.0001   0.0000  -0.0000  -0.0000  -0.0005   0.0000
    92  -0.0000  -0.0000   0.0000  -0.0000   0.0000   0.0000   0.0000   0.0000  -0.0002  -0.0001
    93  -0.0000  -0.0000   0.0000  -0.0000   0.0000   0.0000  -0.0000   0.0000  -0.0000   0.0004
    94   0.0000   0.0001  -0.0000   0.0000   0.0000  -0.0000   0.0000   0.0000   0.0000   0.0000

 MOs :     11       12       13       14       15       16       17       18       19       20
 occup:   2.00     2.00     2.00     2.00     2.00     2.00     2.00     2.00     2.00     2.00
 CF+SFO
     1   0.0000   0.0000   0.0004   0.0005  -0.0009   0.0000   0.0000   0.0026   0.0000   0.0003
     2  -0.0000  -0.0001   0.0000   0.0000  -0.0001   0.0000   0.0000   0.0002   0.0000   0.0000
     3  -0.0000   0.0000  -0.0035  -0.0055   0.0076  -0.0000  -0.0000  -0.0227  -0.0001  -0.0025
     4   0.0000   0.0001   0.0024   0.0029  -0.0030   0.0000   0.0000   0.0090   0.0000   0.0010
     5   0.0000  -0.0000  -0.0000  -0.0000   0.0000   0.0005  -0.0002  -0.0001   0.0020   0.0004
     6  -0.0000   0.0000   0.0000   0.0000  -0.0000   0.0002   0.0005   0.0002   0.0004  -0.0020
     7  -0.0000  -0.9997   0.0156   0.0026  -0.0140  -0.0000  -0.0000   0.0056   0.0000   0.0006
     8  -0.0000   0.0101   0.7853  -0.6106   0.1013  -0.0000  -0.0002  -0.1908  -0.0008  -0.0213
     9  -0.0000   0.0116   0.0574   0.0439  -0.8665  -0.0001  -0.0009  -0.5085  -0.0023  -0.0569
    10  -0.0000  -0.0000   0.0000   0.0000  -0.0001   0.8842   0.2250  -0.0137  -0.3859   0.1345
    11  -0.0000   0.0000  -0.0000  -0.0001   0.0002   0.2250  -0.8842   0.0447  -0.1351  -0.3833
    12  -0.0000   0.0000   0.0000   0.0000  -0.0001   0.2500   0.1159   0.0277   0.4556  -0.2604
    13   0.0000   0.0000   0.0000   0.0001  -0.0002  -0.1159   0.2500   0.0528  -0.2619  -0.4525
    14  -0.0000  -0.0108   0.0379   0.0321  -0.1252   0.0000   0.0002   0.4064   0.0018   0.0457
    15   0.0000  -0.0077  -0.0033   0.0043   0.0007   0.0000   0.0001   0.0445   0.0002   0.0050
    16  -0.0000  -0.0034   0.0033  -0.0106   0.0182  -0.0000  -0.0000  -0.0462  -0.0002  -0.0051
    17  -0.0001  -0.0000  -0.0000   0.0000  -0.0000   0.0012  -0.0260   0.0005  -0.0006  -0.0041
    18   0.0000  -0.0000  -0.0000   0.0000  -0.0000  -0.0260  -0.0012   0.0000   0.0041  -0.0005
    19   0.0000  -0.0017  -0.0011   0.0153  -0.0215   0.0000   0.0000   0.0321   0.0001   0.0036
    20  -0.0000   0.0000   0.0000   0.0000  -0.0000  -0.0009  -0.0008   0.0025   0.0221  -0.0230
    21  -0.0001   0.0000   0.0000   0.0000  -0.0000   0.0008  -0.0009   0.0026  -0.0231  -0.0219
    22   0.0000  -0.0000   0.0000  -0.0000   0.0000  -0.0000   0.0000  -0.0000   0.0000   0.0000
    23   0.0000   0.0000   0.0000  -0.0000   0.0000   0.0000   0.0000  -0.0000  -0.0000   0.0000
    24   0.0000   0.0034   0.0090   0.0078   0.0002   0.0000   0.0000   0.0386   0.0002   0.0044
    25  -0.0000   0.0000   0.0000   0.0000  -0.0000   0.0107   0.0138  -0.0010  -0.0058   0.0090
    26   0.0000  -0.0000  -0.0000  -0.0000   0.0000   0.0138  -0.0107   0.0007  -0.0091  -0.0058
    27   0.0000  -0.0019  -0.0009  -0.0021   0.0121   0.0000   0.0000   0.0097   0.0000   0.0011
    28  -0.0000  -0.0000   0.0000   0.0000   0.0000  -0.0000   0.0000   0.0000  -0.0000  -0.0000
    29  -0.0000  -0.0000   0.0000   0.0000  -0.0000  -0.0000  -0.0000   0.0000  -0.0000   0.0000
    30   0.0000  -0.0000   0.0000   0.0000  -0.0000  -0.0001  -0.0000   0.0001   0.0038  -0.0014
    31  -0.0001  -0.0000   0.0000   0.0000  -0.0000   0.0000  -0.0001   0.0004  -0.0014  -0.0038
    32   0.0000  -0.0000  -0.0000   0.0000  -0.0000   0.0000  -0.0000   0.0000   0.0000  -0.0000
    33  -0.0000   0.0000  -0.0000  -0.0000   0.0000   0.0000   0.0000  -0.0000   0.0000  -0.0000
    34   0.0000  -0.0007   0.0034   0.0010  -0.0018  -0.0000  -0.0000  -0.0005  -0.0000  -0.0000
    35   0.0000  -0.0000  -0.0000  -0.0000   0.0000   0.0000   0.0000  -0.0000   0.0000  -0.0000
    36  -0.0000   0.0000  -0.0000  -0.0000   0.0000   0.0000   0.0000   0.0000  -0.0000  -0.0000
    37  -0.0000   0.0059  -0.0019   0.0011  -0.0011  -0.0000  -0.0000  -0.0005  -0.0000  -0.0001
    38   0.0000  -0.0000  -0.0000  -0.0000   0.0000  -0.0001  -0.0002   0.0000   0.0001  -0.0003
    39   0.0001  -0.0000  -0.0000  -0.0000   0.0000   0.0002  -0.0001   0.0000  -0.0003  -0.0001
    40  -0.0000  -0.0040   0.0005   0.0001  -0.0014   0.0000  -0.0000  -0.0007  -0.0000  -0.0001
    41   0.0000   0.0000   0.0000  -0.0000   0.0000   0.0032  -0.0003  -0.0000   0.0009   0.0000
    42  -0.0000  -0.0000  -0.0000   0.0000  -0.0000   0.0003   0.0032   0.0001   0.0000  -0.0009
    43   0.0000  -0.0010  -0.0022   0.0017  -0.0006   0.0000  -0.0000   0.0037   0.0000   0.0004
    44  -0.0000  -0.0005   0.0008  -0.0005   0.0011  -0.0000   0.0000   0.0015   0.0000   0.0002
    45   0.0000  -0.0000  -0.0000   0.0000  -0.0000   0.0000  -0.0000   0.0000  -0.0000  -0.0000
    46   0.0000  -0.0000  -0.0000   0.0000  -0.0000   0.0000  -0.0000  -0.0000  -0.0000  -0.0000
    47   0.0000  -0.0000  -0.0000   0.0000  -0.0000  -0.0000   0.0000  -0.0000   0.0000   0.0000
    48   0.0000  -0.0000  -0.0000   0.0000   0.0000  -0.0000  -0.0000   0.0000   0.0000  -0.0000
    49  -0.0000   0.0000  -0.0000  -0.0000   0.0000  -0.0012  -0.0001   0.0000   0.0008  -0.0001
    50  -0.0000   0.0000   0.0000   0.0000   0.0000  -0.0001   0.0012  -0.0001   0.0001   0.0008
    51  -0.0000   0.0002   0.0003  -0.0004   0.0015  -0.0000   0.0000   0.0015   0.0000   0.0002
    52   0.0000  -0.0000  -0.0000  -0.0000  -0.0000  -0.0016   0.0013  -0.0002   0.0019   0.0013
    53   0.0000  -0.0000  -0.0000  -0.0000  -0.0000   0.0013   0.0016  -0.0002  -0.0013   0.0018
    54  -0.0000   0.0003  -0.0001   0.0000  -0.0011  -0.0000  -0.0000  -0.0014  -0.0000  -0.0002
    55   0.0000   0.0000   0.0002  -0.0000  -0.0001  -0.0000   0.0000   0.0004   0.0000   0.0000
    56   0.0000   0.0000   0.0000  -0.0000  -0.0000  -0.0001   0.0001   0.0000  -0.0000  -0.0000
    57  -0.0000  -0.0000  -0.0000   0.0000   0.0000  -0.0001  -0.0001  -0.0000  -0.0000   0.0000
    58  -0.0000   0.0000   0.0000   0.0000  -0.0001  -0.0000   0.0000   0.0001   0.0000   0.0000
    59  -0.0000   0.0001  -0.0000   0.0000  -0.0000   0.0000   0.0000   0.0000   0.0000   0.0000
    60  -0.0000   0.0000  -0.0000  -0.0000   0.0000  -0.0000  -0.0000  -0.0001  -0.0000  -0.0000
    61   0.0000  -0.0000  -0.0007   0.0003   0.0013  -0.0000  -0.0000   0.0003   0.0000   0.0000
    62  -0.0000   0.0000   0.0063  -0.0038  -0.0113   0.0000   0.0000  -0.0028  -0.0000  -0.0003
    63   0.2161   0.0000   0.0006  -0.0003  -0.0008  -0.0011  -0.0011  -0.0002  -0.0004   0.0004
    64   0.2029   0.0001   0.0034  -0.0016  -0.0050   0.0005  -0.0001  -0.0009   0.0002  -0.0001
    65  -0.9551   0.0000   0.0009  -0.0004  -0.0013  -0.0011   0.0011  -0.0002  -0.0004  -0.0004
    66  -0.0000  -0.0060  -0.5289  -0.8334  -0.1735   0.0000   0.0001  -0.0101  -0.0000  -0.0012
    67   0.0003  -0.0013  -0.0238   0.0095   0.1525   0.1404  -0.1650  -0.3820   0.4571   0.4110
    68   0.0001   0.0027   0.0500  -0.0200  -0.3204   0.0750  -0.0705   0.6728   0.2434   0.2679
    69  -0.0000  -0.0001  -0.0022   0.0009   0.0144   0.1792   0.1588   0.0231   0.4889  -0.5175
    70  -0.0000   0.0001   0.0154   0.0084  -0.0074   0.0000   0.0000   0.0007   0.0000   0.0001
    71  -0.0002  -0.0005  -0.0107   0.0027   0.0254  -0.0105   0.0108  -0.0244  -0.0204  -0.0205
    72  -0.0000  -0.0000  -0.0011   0.0003   0.0025   0.0148   0.0128   0.0000   0.0243  -0.0252
    73   0.0001  -0.0006  -0.0128   0.0032   0.0305   0.0075  -0.0102  -0.0337   0.0147   0.0131
    74   0.0000  -0.0005  -0.0071  -0.0010   0.0107   0.0001   0.0025  -0.0032  -0.0002  -0.0027
    75  -0.0002  -0.0004  -0.0062  -0.0008   0.0093   0.0097  -0.0104  -0.0040   0.0099   0.0085
    76  -0.0000   0.0000   0.0005   0.0001  -0.0008  -0.0092  -0.0096  -0.0008  -0.0078   0.0096
    77  -0.0000   0.0004   0.0060   0.0008  -0.0091  -0.0038  -0.0046   0.0025  -0.0032   0.0049
    78   0.0000  -0.0010  -0.0148  -0.0020   0.0223  -0.0060   0.0009  -0.0072  -0.0057  -0.0011
    79   0.0000  -0.0005  -0.0036   0.0005   0.0057  -0.0003  -0.0001  -0.0064  -0.0005  -0.0006
    80   0.0000  -0.0002  -0.0014   0.0002   0.0022   0.0000   0.0001  -0.0024   0.0000  -0.0004
    81  -0.0001   0.0000   0.0003  -0.0000  -0.0004   0.0027  -0.0028  -0.0001   0.0053   0.0047
    82   0.0000  -0.0000  -0.0000   0.0000   0.0000   0.0012   0.0011   0.0002   0.0020  -0.0022
    83  -0.0000  -0.0000  -0.0001   0.0000   0.0002   0.0005   0.0003  -0.0002   0.0009  -0.0006
    84  -0.0000  -0.0002  -0.0016   0.0002   0.0025   0.0008  -0.0007  -0.0029   0.0016   0.0008
    85  -0.0000   0.0000   0.0001  -0.0000  -0.0002  -0.0025  -0.0025  -0.0003  -0.0042   0.0051
    86  -0.0000   0.0003   0.0007   0.0015   0.0007  -0.0000  -0.0000   0.0020   0.0000   0.0002
    87   0.0004   0.0003  -0.0007   0.0003   0.0002  -0.0001   0.0001   0.0033  -0.0008  -0.0004
    88   0.0005  -0.0002   0.0006  -0.0003  -0.0002  -0.0001   0.0001  -0.0028  -0.0009  -0.0011
    89  -0.0001   0.0000  -0.0000   0.0000   0.0000  -0.0001  -0.0001  -0.0000  -0.0011   0.0012
    90   0.0000  -0.0000   0.0002   0.0001  -0.0001   0.0000   0.0000  -0.0002  -0.0000  -0.0000
    91  -0.0002  -0.0000   0.0001  -0.0000  -0.0001  -0.0000   0.0000   0.0001  -0.0000  -0.0000
    92   0.0004  -0.0000   0.0000  -0.0000  -0.0001   0.0000  -0.0000   0.0000   0.0001   0.0001
    93   0.0001  -0.0000   0.0000  -0.0000  -0.0000  -0.0000  -0.0000  -0.0000  -0.0001   0.0001
    94  -0.0000   0.0000  -0.0000   0.0000   0.0001  -0.0000  -0.0000   0.0000   0.0000   0.0000

 MOs :     21       22       23       24       25       26       27       28       29       30
 occup:   2.00     2.00     0.00     0.00     0.00     0.00     0.00     0.00     0.00     0.00
 CF+SFO
     1   0.0000   0.0000   0.0030  -0.0038   0.0095   0.0000  -0.0000  -0.0086   0.0000   0.0000
     2   0.0000   0.0000   0.0003  -0.0004   0.0013   0.0000  -0.0000  -0.0009  -0.0000   0.0000
     3  -0.0000  -0.0000  -0.0248   0.0310  -0.0761  -0.0000   0.0001   0.0697  -0.0000  -0.0000
     4   0.0000   0.0000   0.0091  -0.0106   0.0185   0.0000  -0.0000  -0.0178   0.0000   0.0000
     5   0.0015  -0.0012  -0.0000   0.0000  -0.0000  -0.0054  -0.0015   0.0000  -0.0067   0.0018
     6   0.0012   0.0015   0.0000  -0.0000   0.0000  -0.0015   0.0054  -0.0000  -0.0018  -0.0067
     7   0.0000   0.0000   0.0257  -0.0126   0.0507   0.0000  -0.0001  -0.0411  -0.0000   0.0000
     8  -0.0002  -0.0004  -0.1681   0.1653  -0.3144  -0.0000   0.0006   0.2840  -0.0000  -0.0001
     9  -0.0003  -0.0007  -0.1668   0.1100  -0.1580  -0.0000   0.0003   0.1189  -0.0000  -0.0001
    10   0.0403  -0.0054  -0.0001   0.0000  -0.0000   0.0598  -0.0163   0.0001   0.0388   0.0106
    11  -0.0054  -0.0403   0.0002  -0.0001   0.0001   0.0163   0.0598  -0.0003   0.0106  -0.0388
    12  -0.8062  -0.0417  -0.0003   0.0001  -0.0001   0.1041  -0.0504   0.0002   0.0990   0.0481
    13   0.0417  -0.8062  -0.0005   0.0002  -0.0002  -0.0504  -0.1041   0.0004  -0.0481   0.0990
    14   0.0005   0.0010  -0.9364   0.2223  -0.1382  -0.0000   0.0003   0.0837  -0.0000  -0.0001
[...]
   86   -2.10614954093019E-16 -2.47176919503014E-17  1.19782740719493E-16  2.72680022753657E-16
   87    8.13245861779510E-17 -1.85214977103704E-16 -3.35605126317289E-15 -7.51091669370953E-15
   88    1.12098193124206E-16 -4.85541731739267E-16 -1.01044442808691E-14  4.81514730643739E-15
   89   -4.45941745351963E-16 -5.50549770053026E-16 -6.67494586439748E-17 -1.55756631999161E-16
   90    3.73244909388930E-16 -4.06565862044934E-16 -5.49809086062766E-18  6.53004539394856E-16
   91    5.09266383438031E-17 -1.81378976643826E-16  3.53265678564247E-18  2.54221904283564E-16
   92   -1.81750082953842E-16  1.22876105042866E-16  5.67096499120635E-17  1.48292744758440E-16
   93    8.32105549967217E-16  5.75769163588453E-16  3.27914604492746E-16 -5.01909376204258E-16
   94   -9.76324056323197E-17 -2.67797936603920E-17  3.65267711910366E-16 -8.14235831536614E-17

 column          81                    82                    83                    84
 row
   81    9.99999999999999E-01
   82    1.17816801521497E-16  1.00000000000000E+00
   83    9.48307994915230E-17  2.06034764445648E-16  9.99999999999999E-01
   84   -2.83485354055261E-16  4.72254288775959E-16  2.95167901297492E-16  9.99999999999998E-01
   85   -5.73635107504828E-17 -5.33544875195475E-16  2.15240716719863E-16 -8.01086207513307E-17
   86    1.32903559005148E-16  3.02898592336069E-16 -2.41326568815447E-17 -4.19906525085071E-16
   87    1.68458177247731E-17 -5.77310649401531E-17  2.84566733887497E-16 -3.68732500181110E-17
   88   -3.05168884652992E-16 -1.26225199697235E-16  7.60199119821064E-16 -4.88620696502537E-16
   89    3.43013901078056E-16 -5.78481928075769E-16  2.71516021019912E-16  3.33918651955570E-16
   90    2.54187334751405E-16 -4.06971654105986E-16 -3.74501906282655E-16 -1.06895928520407E-16
   91   -6.57774896604894E-16  1.79953592247164E-16  2.43958756786264E-17  2.40639148639191E-16
   92    4.17472734729813E-16 -5.50348177452350E-16  1.08723225087457E-16 -8.53635569078148E-17
   93   -1.71896975090038E-16  4.55886056392348E-17  5.09958086341909E-17  7.72460431275828E-17
   94    6.24500451351651E-17  2.03639002497669E-16 -3.17061372816230E-17  8.44593492366208E-17

 column          85                    86                    87                    88
 row
   85    9.99999999999999E-01
   86   -7.23810756460587E-16  9.99999999999996E-01
   87    3.29554361016957E-16  6.21679831637294E-16  9.99999999999999E-01
   88    2.26006310368238E-16 -1.74912303608013E-16  7.22561455655281E-18  9.99999999999999E-01
   89    4.31258706110020E-16  3.98584032354940E-16 -7.74930207296454E-16 -7.67082486744812E-16
   90    1.24756326279868E-16 -1.31947798261806E-14  7.81492502411078E-16  7.78888299614745E-16
   91    7.12219051020408E-18 -1.15786058109521E-15 -6.08131116129488E-16  2.05471134762580E-17
   92   -9.36442717685422E-17  1.60572459327471E-16  4.50279326628597E-16  8.51258900507270E-16
   93   -9.34299083263894E-17  2.41676975757814E-16 -7.54925419899565E-16 -6.95089265500068E-16
   94    7.94652429796094E-17  9.20704484874690E-15 -1.04083408558608E-17 -1.71303943252710E-17

 column          89                    90                    91                    92
 row
   89    1.00000000000000E+00
   90   -3.03648248754433E-16  1.00000000000003E+00
   91   -4.98343231838697E-16 -1.59688368688775E-16  1.00000000000000E+00
   92    5.95577538603252E-16 -1.09783940293630E-16 -1.43839852850055E-16  9.99999999999999E-01
   93   -2.27085463058033E-15 -3.58313994929882E-16 -6.14775202863081E-16  1.50459101665959E-15
   94    6.46048969529800E-17 -2.34866379816845E-14  3.17671236538253E-16  1.25550611573821E-16

 column          93                    94
 row
   93    1.00000000000000E+00
   94   -1.37314205145289E-16  1.00000000000004E+00


 SFO contributions (%) per orbital
 (multiplication by the orbital occupation yields the SFO Gross Populations)

 Orb.:       13     14     15     16     17     18     19     20     21     22     23     24     25     26
 occup:     2.00   2.00   2.00   2.00   2.00   2.00   2.00   2.00   2.00   2.00   0.00   0.00   0.00   0.00
 CF+SFO     ----   ----   ----   ----   ----   ----   ----   ----   ----   ----   ----   ----   ----   ----
 ------
      8:   65.58  33.26   0.56   0.00   0.00   0.88   0.00   0.01   0.00   0.00   0.25  -0.03  -0.17  -0.00
      9:    0.67   0.54  78.20   0.00   0.00  19.75   0.00   0.25   0.00   0.00   0.71  -0.15  -0.14  -0.00
     10:    0.00   0.00   0.00  79.05   5.12   0.02  13.77   1.67   0.27   0.00   0.00   0.00  -0.00   0.06
     11:    0.00   0.00   0.00   5.12  79.05   0.18   1.69  13.59   0.00   0.27   0.00   0.00  -0.00   0.00
     12:    0.00   0.00   0.00   6.74   1.45   0.09  23.31   7.62  60.35   0.16   0.00   0.00  -0.00   0.15
     13:    0.00   0.00   0.00   1.45   6.74   0.31   7.70  22.99   0.16  60.35   0.00   0.00  -0.00   0.04
     14:    0.51   0.53   2.09   0.00   0.00  22.90   0.00   0.29   0.00   0.00  72.07   1.42  -0.49   0.00
     15:    0.03  -0.06   0.00  -0.00   0.00  -0.22  -0.00  -0.00  -0.00  -0.00   0.84 104.44  -0.47   0.00
     16:    0.08  -0.39  -0.00  -0.00  -0.00  -0.88  -0.00  -0.01  -0.00  -0.00  -1.17  -2.27  23.82   0.00
     18:    0.00  -0.00   0.00   0.20   0.00  -0.00  -0.06  -0.00  -0.21  -0.03   0.00   0.00   0.00  43.43
     66:   32.22  65.62   1.41   0.00   0.00  -0.02  -0.00  -0.00   0.00   0.00   0.73  -0.05  -0.41   0.00
     67:    0.24   0.06   3.24   2.57   3.55  13.79  21.91  17.89   3.19  28.48   4.65  -0.03   0.02  -0.12
     68:    1.06   0.25  14.29   0.73   0.65  41.89   6.20   7.27   1.26   5.92  20.54  -0.15   0.09  -0.03
     69:    0.00   0.00   0.03   4.19   3.29   0.06  25.06  28.06  34.33   4.38   0.04  -0.00   0.00  -0.17
     70:   -0.26   0.11  -0.09  -0.00  -0.00   0.01   0.00   0.00   0.00  -0.00  -0.04  -2.47  26.83   0.00
     71:   -0.18  -0.03  -0.09  -0.06  -0.06   0.25  -0.02   0.01   0.04   0.22  -0.20  -0.45  20.66  16.13
     72:   -0.00  -0.00  -0.00  -0.11  -0.09  -0.00  -0.03  -0.03   0.38   0.05  -0.00  -0.00   0.20  30.33
     73:   -0.26  -0.05  -0.14  -0.03  -0.05   0.40  -0.01  -0.03   0.01   0.17  -0.28  -0.65  29.83   8.35


 Summation over all MOs, multiplied by occupation: Total SFO Gross Populations in this Irrep
 ===========================================================================================

     2.00    2.00    2.00    2.00    2.00    2.00    2.00    2.01    1.99    2.00    2.00    1.99
     1.99    0.53   -0.00   -0.02   -0.00   -0.00    0.01    0.01    0.01    0.00    0.00    0.01
     0.00    0.00    0.00    0.00    0.00    0.00    0.00   -0.00   -0.00    0.00    0.00    0.00
     0.00    0.00    0.00    0.00    0.00    0.00   -0.00   -0.00    0.00    0.00    0.00    0.00
     0.00    0.00   -0.00    0.00    0.00    0.00    0.00   -0.00   -0.00   -0.00   -0.00    0.00
     2.00    2.00    2.00    2.00    2.00    1.98    1.90    1.59    1.99   -0.00    0.00    0.00
     0.00    0.00    0.01    0.00    0.00    0.01    0.00    0.00    0.00    0.00    0.00    0.00
     0.00    0.00    0.00    0.00    0.00    0.00   -0.00   -0.00   -0.00    0.00



 List of all MOs, ordered by energy, with the most significant SFO gross populations
 ===================================================================================

 Each percentage contribution in the table below corresponds to the indicated SFO.
 In general, a SFO may be a linear combination of several Fragment Orbitals on the same,
 or on symmetry-related Fragments. Only the first 'member' of such a combination is
 specified here. A full definition of all SFOs is given in an earlier part of the output.
 The numbering of the SFOs in this table does NOT include the Core Orbitals, and starts
 from one for each symmetry representation, as in the SFO definition list earlier.

       E(eV)  Occ       MO           %     SFO (first member)   E(eV)  Occ   Fragment
 -------------------------------------------------------------------------------------

     -15.427  2.00    13 A         65.58%     8 A             -21.229  2.00     1 ClF
                                   32.22%     6 A             -10.473  2.00     2 Cl
                                    1.06%     8 A               0.909  2.00     2 Cl
     -13.603  2.00    14 A         65.62%     6 A             -10.473  2.00     2 Cl
                                   33.26%     8 A             -21.229  2.00     1 ClF
      -5.933  2.00    15 A         78.20%     9 A             -12.412  2.00     1 ClF
                                   14.29%     8 A               0.909  2.00     2 Cl
                                    3.24%     7 A               0.909  2.00     2 Cl
                                    2.09%    14 A              -7.031  0.00     1 ClF
                                    1.41%     6 A             -10.473  2.00     2 Cl
      -3.786  2.00    16 A         79.05%    10 A             -10.404  2.00     1 ClF
                                    6.74%    12 A              -8.531  2.00     1 ClF
                                    5.12%    11 A             -10.404  2.00     1 ClF
                                    4.19%     9 A               0.909  2.00     2 Cl
                                    2.57%     7 A               0.909  2.00     2 Cl
                                    1.45%    13 A              -8.531  2.00     1 ClF
      -3.786  2.00    17 A         79.05%    11 A             -10.404  2.00     1 ClF
                                    6.74%    13 A              -8.531  2.00     1 ClF
                                    5.12%    10 A             -10.404  2.00     1 ClF
                                    3.55%     7 A               0.909  2.00     2 Cl
                                    3.29%     9 A               0.909  2.00     2 Cl
                                    1.45%    12 A              -8.531  2.00     1 ClF
      -2.630  2.00    18 A         41.89%     8 A               0.909  2.00     2 Cl
                                   22.90%    14 A              -7.031  0.00     1 ClF
                                   19.75%     9 A             -12.412  2.00     1 ClF
                                   13.79%     7 A               0.909  2.00     2 Cl
      -2.624  2.00    19 A         25.06%     9 A               0.909  2.00     2 Cl
                                   23.31%    12 A              -8.531  2.00     1 ClF
                                   21.91%     7 A               0.909  2.00     2 Cl
                                   13.77%    10 A             -10.404  2.00     1 ClF
                                    7.70%    13 A              -8.531  2.00     1 ClF
                                    6.20%     8 A               0.909  2.00     2 Cl
                                    1.69%    11 A             -10.404  2.00     1 ClF
      -2.624  2.00    20 A         28.06%     9 A               0.909  2.00     2 Cl
                                   22.99%    13 A              -8.531  2.00     1 ClF
                                   17.89%     7 A               0.909  2.00     2 Cl
                                   13.59%    11 A             -10.404  2.00     1 ClF
                                    7.62%    12 A              -8.531  2.00     1 ClF
                                    7.27%     8 A               0.909  2.00     2 Cl
                                    1.67%    10 A             -10.404  2.00     1 ClF
      -1.576  2.00    21 A         60.35%    12 A              -8.531  2.00     1 ClF
                                   34.33%     9 A               0.909  2.00     2 Cl
                                    3.19%     7 A               0.909  2.00     2 Cl
                                    1.26%     8 A               0.909  2.00     2 Cl
      -1.576  2.00    22 A         60.35%    13 A              -8.531  2.00     1 ClF
                                   28.48%     7 A               0.909  2.00     2 Cl
                                    5.92%     8 A               0.909  2.00     2 Cl
                                    4.38%     9 A               0.909  2.00     2 Cl
       1.310  0.00    23 A         72.07%    14 A              -7.031  0.00     1 ClF
                                   20.54%     8 A               0.909  2.00     2 Cl
                                    4.65%     7 A               0.909  2.00     2 Cl
                                   -1.17%    16 A               5.098  0.00     1 ClF
       5.732  0.00    24 A        104.44%    15 A               0.986  0.00     1 ClF
                                   -2.47%    10 A              12.914  0.00     2 Cl
                                   -2.27%    16 A               5.098  0.00     1 ClF
                                    1.42%    14 A              -7.031  0.00     1 ClF



 =======================================================================
 Electrostatic potential at the Nuclei due to electrons and other nuclei
 =======================================================================
  
         Atom                  Potential
         ----                  ---------
     1)   Cl                 64.58695596
     2)   F                  26.84602971
     3)   Cl                 64.63649802
 
 
 ========================
 No memory problems found
 ========================
 
 Maximum number of active allocate calls:         592
 
 *******************************************************************************

                             A D F   E X I T
 NORMAL TERMINATION



 =================
 Timing Statistics
 =================
  
 Total Used :                     CPU=        5.77      System=        0.19     Elapsed=        6.28

 Calls  Section                     ( Mean, Percentage )
 ---------------------------------------------------------------------------------------------------
     3  ><      ................      0.00    0.03             0.00    0.00             0.00    0.02
     1  INIT    ................      0.45    7.86             0.02   13.30             0.48    7.66
     1  GEOMET  ................      0.03    0.54             0.01    3.19             0.28    4.42
     1  FRAGM   ................      0.01    0.16             0.01    4.26             0.03    0.43
     1  INPUTA  ................      0.00    0.00             0.00    0.00             0.00    0.01
     1  ATDEN   ................      0.00    0.05             0.00    0.53             0.01    0.08
     1  MAINSY  ................      0.01    0.14             0.00    1.60             0.01    0.20
     1  SYMFIT  ................      0.00    0.02             0.00    0.53             0.00    0.04
     1  CORORT  ................      0.00    0.02             0.00    0.00             0.00    0.01
     1  SYMORB  ................      0.00    0.05             0.00    0.00             0.00    0.05
     1  CLSMAT  ................      0.01    0.12             0.00    0.00             0.01    0.11
     1  ORTHON  ................      0.00    0.09             0.00    2.13             0.01    0.14
     1  GENPT   ................      0.12    2.03             0.00    2.13             0.12    1.94
     1  PTBAS   ................      0.03    0.54             0.00    0.53             0.03    0.52
    17  FOCKY   ................      0.11   32.05             0.00   11.17             0.11   29.96
    17  FOCKTR  ................      0.00    0.52             0.00    0.53             0.00    0.51
    17  SDIIS   ................      0.00    1.07             0.00    1.60             0.00    1.09
     1  COREPS  ................      0.09    1.59             0.00    0.00             0.09    1.48
     1  TOTEN   ................      0.29    5.06             0.00    1.60             0.30    4.72
     1  POPAN   ................      0.00    0.07             0.00    0.00             0.01    0.17
     1  DEBYE   ................      0.00    0.03             0.00    0.00             0.00    0.02
     1  INPUTE  ................      0.00    0.00             0.00    0.00             0.00    0.03
     1  SYMORE  ................      0.00    0.00             0.00    0.00             0.00    0.02
     1  METS    ................      0.00    0.03             0.00    0.00             0.00    0.01
     1  CETS    ................      0.01    0.10             0.00    1.60             0.02    0.37
     1  POPUL   ................      2.73   47.34             0.10   54.26             2.86   45.50
     1  EXIT PROCEDURE .........      0.03    0.48             0.00    1.06             0.03    0.48


 Currently Open Files (EXIT00)
 ====================

 Unit    Access Format  Status   Type       Ident (file)
 -------------------------------------------------------
   3      SEQ    FORM   TRANSP  NORMAL      LOGFILE
                                          ( logfile )


 Buffered I/O statistics
 =======================
 Memory available:                     67108864
 Number of records fitting in memory:     16131
 Input :   1.3% of                        52914  *4k bytes
 Output:  11.9% of                         3953  *4k bytes
 Records from serial files evicted:           0
                    others evicted:           0
 Hash table lookups:     150369 with          0 conflicts (  0.00%)

 ***************************************************************************************************
 (LOGFILE)
 <May09-2019> <17:12:12>  ADF 2017  RunTime: May09-2019 17:12:12  Nodes: 1  Procs: 12
 <May09-2019> <17:12:13>  *** (NO TITLE) ***
 <May09-2019> <17:12:13>  RunType   : SINGLE POINT
 <May09-2019> <17:12:13>  Net Charge: -1 (Nuclei minus Electrons)
 <May09-2019> <17:12:13>  Symmetry  : NOSYM
 <May09-2019> <17:12:13>  >>>> FRAGM
  Coordinates
    Atom         X           Y           Z   (Angstrom)
    1.Cl       -4.851346    2.980883   -0.041226
    2.F        -3.829714    1.315120    0.009761
    3.Cl       -6.094322    5.002916   -0.105735
 <May09-2019> <17:12:13>  >>>> CORORT
 <May09-2019> <17:12:13>  >>>> CLSMAT
 <May09-2019> <17:12:13>  >>>> ORTHON
 <May09-2019> <17:12:13>  >>>> GENPT
 <May09-2019> <17:12:13>  Block Length= 128
 <May09-2019> <17:12:13>  >>>> PTBAS
 <May09-2019> <17:12:13>  >>>> CYCLE
 <May09-2019> <17:12:13>              |Error|         MaxErr       Wt(A-DIIS)
 <May09-2019> <17:12:13>      1      1.18069561      0.72498946
 <May09-2019> <17:12:13>      2      1.13728147      0.49188897    100.0
 <May09-2019> <17:12:13>      3      0.76772090      0.35399621    100.0
 <May09-2019> <17:12:14>      4      0.71475141      0.33494615    100.0
 <May09-2019> <17:12:14>      5      2.49926479      0.89608615    100.0
 <May09-2019> <17:12:14>      6      0.71278988      0.19503753    100.0
 <May09-2019> <17:12:14>      7      0.46627874      0.21510150    100.0
 <May09-2019> <17:12:14>      8      0.53799420      0.19261467    100.0
 <May09-2019> <17:12:14>      9      0.24318778      0.10605121    100.0
 <May09-2019> <17:12:14>     10      0.20510937      0.08165982     81.5
 <May09-2019> <17:12:14>     11      0.10379246      0.04391888     43.4
 <May09-2019> <17:12:14>     12      0.07865154      0.03151950     30.8
 <May09-2019> <17:12:15>     13      0.00569570      0.00200940      1.0
 <May09-2019> <17:12:15>     14      0.00028497      0.00010271      0.0
 <May09-2019> <17:12:15>     15      0.00001142      0.00000474      0.0
 <May09-2019> <17:12:15>     16      0.00000238      0.00000089      0.0
 <May09-2019> <17:12:15>  SCF converged
 <May09-2019> <17:12:15>     17      0.00000137      0.00000049      0.0
 <May09-2019> <17:12:15>  >>>> TOTEN
 <May09-2019> <17:12:15>  >>>> POPAN
 <May09-2019> <17:12:15>  >>>> DEBYE
 <May09-2019> <17:12:15>  >>>> AMETS
 <May09-2019> <17:12:18>   Bond Energy          -0.09494244 a.u.
 <May09-2019> <17:12:18>   Bond Energy          -2.58351523 eV
 <May09-2019> <17:12:18>   Bond Energy         -59.58       kcal/mol
 <May09-2019> <17:12:18>  >>>> POPUL
 <May09-2019> <17:12:18>  NORMAL TERMINATION
 <May09-2019> <17:12:18>  END
