
Create Cl   file=TZ2P-Cl
XC
  GGA blyp
  DISPERSION Grimme3 BJDAMP
End
End Input

 *******************************************************************************
 *                                                                             *
 *  -------------------------------------                                      *
 *   Amsterdam Density Functional  (ADF)         2017                          *
 *  -------------------------------------                                      *
 *                                               r58813 2017-04-12             *
 *                                                                             *
 *                                                                             *
 *                              =================                              *
 *                              |               |                              *
 *                              |     A D F     |                              *
 *                              |               |                              *
 *                              =================                              *
 *                                                                             *
 *                                                                             *
 *   Online information and documentation:  https://www.scm.com/support/       *
 *   E-mail:  support@scm.com   info@scm.com                                   *
 *                                                                             *
 *   Scientific publications using ADF results must be properly referenced     *
 *   See the User Manuals (or the web site) for recommended citations          *
 *   The terms and conditions of the End User License Agreement apply to       *
 *   the use of ADF, https://www.scm.com/license-terms/                        *
 *                                                                             *
 **********************  x86_64_linux_intel / intelmpi  ************************
 
 Licensed to: VU/FEW (+ SARA) / ALGEMEEN / Amsterdam / THE NETHERLANDS
 SCM User ID: u7668
  
 ADF 2017  RunTime: May09-2019 16:32:30  Nodes: 1  Procs: 1

 Temporary files are created in /local/datastore0/tcst25/189701/kid_0.y0uc6i

 Chlorine (TZ2P)



 ===========================
 A T T A C H E D   F I L E S
 ===========================
  
 CREATE - Data File:    TZ2P-Cl
                        Chlorine (TZ2P)



 ===============================
 M O D E L   P A R A M E T E R S
 ===============================
  
 DENSITY FUNCTIONAL POTENTIAL (scf)
    LDA:                               Exchange only                           == Not Default ==
    Gradient Corrections:              Becke88 LYP                             == Not Default ==

 SPIN  (restricted / unrestr.)
    Molecule:                          Restricted                               

 OTHER ASPECTS
    Relativistic Corrections:          ---                                      

    Nuclear Charge Density Model:      Point Charge Nuclei                      
    Core Treatment:                    Frozen Orbital(s)                        

    Hyperfine or Zeeman Interaction:   ---                                      

 Settings for Grimme 3 dispersion correction

      damping                        BJ
      s6                          1.000
      a1                          0.430
      s8                          2.700
      a2                          4.236

 Other (technical) parameters

      alpha                      14.000
      version                         4
 



 =====================================
 S Y M M E T R Y ,   E L E C T R O N S
 =====================================
  
 Symmetry: ATOM

 Irreducible Representations, including subspecies
 -------------------------------------------------
 S
 P:x  P:y  P:z
 D:z2  D:x2-y2  D:xy  D:xz  D:yz
 F:z3  F:z  F:xyz  F:z2x  F:z2y  F:x  F:y


 Configuration of Valence Electrons
 ==================================

          Occupation Numbers
          -------------------------------------------------
 S        3*2
 P        6 5
 D        0
 F        0
          -------------------------------------------------

 Total:   17

 Net Charge: 0 (Nuclei minus Electrons)

 Preset values for MO occupations will be applied through SCF cycle no. 1000000
 Thereafter, the program will assign electrons to MOs that are spatially
 similar to the occupied MOs in a "reference" cycle ("KeepOrbitals").
 The reference cycle is always the PREVIOUS cycle: it will evolve with
 the SCF procedure.



 ================================
 (Slater-type)  F U N C T I O N S  ***  (Basis and Fit)  ***
 ================================
  

 Atom Type    1  (Cl)
 ==============

 Valence Basis Sets:  14
 -----------------------
   1 S   20.300000
   1 S   15.250000
   2 S    6.250000
   2 S    4.450000
   2 P    8.850000
   2 P    5.050000
   3 S    3.450000
   3 S    2.300000
   3 S    1.600000
   3 P    3.350000
   3 P    2.050000
   3 P    1.200000
   3 D    2.000000
   4 F    2.000000


 BAS: List of all Elementary Cartesian Basis Functions
 =====================================================

 The numbering in the list below (to the right of the function characteristics) is referred
 to in print-outs of MO eigenvectors and Mulliken populations in the BAS representation
 (as contrasted to the SFO representation).

 Notes:
 1. The functions are characterized by a polynomial prefactor (powers of x,y,z and r) and
    an exponential decay factor alpha.
 2. Since the basis sets are specific for an atom TYPE, the individual functions occur on
    all atoms of that type.
 3. The word 'Core' in the left margin signals that it is a Core Function (CF) : not a
    degree of freedom in the valence set, but only used to ensure orthogonalization of
    the other valence basis functions on the frozen Core Orbitals.


 (power of) X  Y  Z  R     Alpha  on Atom
            ==========     =====     ==========

 Cl                                   1
                                  ---------------------------------------------------------------------------
            0  0  0  0    20.300      1
            0  0  0  0    15.250      2
            0  0  0  1     6.250      3
            0  0  0  1     4.450      4
            1  0  0  0     8.850      5
            0  1  0  0     8.850      6
            0  0  1  0     8.850      7
            1  0  0  0     5.050      8
            0  1  0  0     5.050      9
            0  0  1  0     5.050     10
            0  0  0  2     3.450     11
            0  0  0  2     2.300     12
            0  0  0  2     1.600     13
            1  0  0  1     3.350     14
            0  1  0  1     3.350     15
            0  0  1  1     3.350     16
            1  0  0  1     2.050     17
            0  1  0  1     2.050     18
            0  0  1  1     2.050     19
            1  0  0  1     1.200     20
            0  1  0  1     1.200     21
            0  0  1  1     1.200     22
            2  0  0  0     2.000     23
            1  1  0  0     2.000     24
            1  0  1  0     2.000     25
            0  2  0  0     2.000     26
            0  1  1  0     2.000     27
            0  0  2  0     2.000     28
            3  0  0  0     2.000     29
            2  1  0  0     2.000     30
            2  0  1  0     2.000     31
            1  2  0  0     2.000     32
            1  1  1  0     2.000     33
            1  0  2  0     2.000     34
            0  3  0  0     2.000     35
            0  2  1  0     2.000     36
            0  1  2  0     2.000     37
            0  0  3  0     2.000     38

 Total number of charge fitting functions (nprimf)       106
 Total number of Cartesian basis functions (naos)         38
 Total number of Cartesian core functions  (ncos)          0



 BAS: List of all Elementary Cartesian Basis Functions
 =====================================================

 The numbering in the list below (to the right of the function characteristics) is referred
 to in print-outs of MO eigenvectors and Mulliken populations in the BAS representation
 (as contrasted to the SFO representation).

 Notes:
 1. The functions are characterized by a polynomial prefactor (powers of x,y,z and r) and
    an exponential decay factor alpha.
 2. Since the basis sets are specific for an atom TYPE, the individual functions occur on
    all atoms of that type.
 3. The word 'Core' in the left margin signals that it is a Core Function (CF) : not a
    degree of freedom in the valence set, but only used to ensure orthogonalization of
    the other valence basis functions on the frozen Core Orbitals.


 (power of) X  Y  Z  R     Alpha  on Atom
            ==========     =====     ==========

 Cl                                   1
                                  ---------------------------------------------------------------------------
            0  0  0  0    20.300      1
            0  0  0  0    15.250      2
            0  0  0  1     6.250      3
            0  0  0  1     4.450      4
            1  0  0  0     8.850      5
            0  1  0  0     8.850      6
            0  0  1  0     8.850      7
            1  0  0  0     5.050      8
            0  1  0  0     5.050      9
            0  0  1  0     5.050     10
            0  0  0  2     3.450     11
            0  0  0  2     2.300     12
            0  0  0  2     1.600     13
            1  0  0  1     3.350     14
            0  1  0  1     3.350     15
            0  0  1  1     3.350     16
            1  0  0  1     2.050     17
            0  1  0  1     2.050     18
            0  0  1  1     2.050     19
            1  0  0  1     1.200     20
            0  1  0  1     1.200     21
            0  0  1  1     1.200     22
            2  0  0  0     2.000     23
            1  1  0  0     2.000     24
            1  0  1  0     2.000     25
            0  2  0  0     2.000     26
            0  1  1  0     2.000     27
            0  0  2  0     2.000     28
            3  0  0  0     2.000     29
            2  1  0  0     2.000     30
            2  0  1  0     2.000     31
            1  2  0  0     2.000     32
            1  1  1  0     2.000     33
            1  0  2  0     2.000     34
            0  3  0  0     2.000     35
            0  2  1  0     2.000     36
            0  1  2  0     2.000     37
            0  0  3  0     2.000     38
1
 ***************************************************************************************************



                                              ***********************
                                              *  T E C H N I C A L  *
                                              ***********************
  



 =============================================================
 P A R A L L E L I Z A T I O N  and  V E C T O R I Z A T I O N
 =============================================================
  
 Nr of parallel processes:                                1
 Maximum vector length in NumInt loops:                 128

 IO buffersize (Mb):                                     64.000000



 =====================
 S C F   U P D A T E S
 =====================
  
 Max. nr. of cycles:                               300
 Convergence criterion:                              0.0000000100
   secondary criterion:                              0.0000000100

 Mix parameter (when DIIS does not apply):           0.2000000000
 Special mix parameter for the first cycle:          1.0000000000
 Mixed ADIIS+DIIS will be used
    Max number of expansion vectors:                10
    Pure ADIIS when Max([F,P]) is above              0.1000000000
    Pure DIIS when Max([F,P]) is below               0.0010000000
 Automatic ElectronSmearing (in case of problematic SCF convergence) disabled



 =================
 P R E C I S I O N  ***  (General: NumInt, NeglectFunctionTails, ...)  ***
 =================
  

 NumInt:           Target precision:                12.0000000000
 -------           Initial precision:               10.0000000000
                   Min. precision (optimization):   10.0000000000

 Neglect Functions:          Basis functions:        0.1000000000E-13
 ------------------          Fit functions:          0.1000000000E-13



 ===========================
 L I N E A R   S C A L I N G
 ===========================
  

 Cut-off radii density fit:                        0.1000000000E-97
 Overlap cut-off criterion AO matrix elements:     0.1000000000E-97
 Cut-offs for Coulomb potential and fitted density:0.1000000000E-97
 Cut-off criterion for Coulomb multipole terms:    0.1000000000E-97
 Progressive Convergence parameter:                 0.000000000    
1
 ***************************************************************************************************



                                            ***************************
                                            *  C O M P U T A T I O N  *
                                            ***************************
  

 Number of elements of the density matrix on this node (used, total):       741       741



 ===========================================
 Numerical Integration : Fuzzy Cells (Becke)
 ===========================================
  
 Becke grid quality: VERYGOOD       
  
 Lebedev angular grid order:             min:  13 max:  41
 Nr. of radial points:                   min:  93 max:  93

 Total nr. of points:         93
 Nr. of blocks:                1
 Block length:                93
 Nr. of dummy points:          0


 Test of Precision of the Numerical Integration Grid
 ===================================================

 Integral of the Total Core Density:                   0.00000000000000



 ========================
 Density Fitting (zlmFit)
 ========================
  
 ZlmFit Fit Quality: VERYGOOD       
  
 Max L-expansion:                        min:   0 max:   0
 Nr. of radial interpolation points:     min: 200 max: 200



 =====
 S C F  ***  ScaSCF  ***
 =====
  

 CYCLE    1
 SCF Error: norm([F,P])=      0.000000000000, max([F,P])=      0.000000000000
 orbitals (Q,E):
 ---------------
 S :1...7            ( 2.00  -144.4893)  ( 2.00   -36.0966)  ( 2.00   -16.0338)  ( 0.00    -8.9253)
                     ( 0.00    -5.5262)  ( 0.00    -3.6296)  ( 0.00   175.9783)
 P :1...5            ( 6.00   -36.1179)  ( 5.00   -15.7666)  ( 0.00    -8.4199)  ( 0.00    -4.8064)
                     ( 0.00    -2.9092)
 D :1...1            ( 0.00    -9.3333)
 F :1...1            ( 0.00    -6.5000)

 CYCLE    2
  SDIIS (wt  0.000):  1.0000  0.0000
 A-DIIS (wt  1.000):  0.0000  1.0000
  DIIS coefficients:  0.0000  1.0000
 SCF Error: norm([F,P])=     37.918093115371, max([F,P])=     10.754162001971
 orbitals (Q,E):
 ---------------
 S :1...4            ( 2.00   -86.3665)  ( 2.00    -3.0042)  ( 2.00     0.0879)  ( 0.00     0.9074)
 P :1...3            ( 6.00    -0.5941)  ( 5.00     0.2005)  ( 0.00     1.0624)
 D :1...1            ( 0.00     1.3908)
 F :1...1            ( 0.00     1.7118)

 CYCLE    3
  SDIIS (wt  0.000):  0.2468  0.7532
 A-DIIS (wt  1.000):  0.2184  0.7816
  DIIS coefficients:  0.2184  0.7816
 SCF Error: norm([F,P])=     20.757708249348, max([F,P])=      6.871796656039
 orbitals (Q,E):
 ---------------
 S :1...4            ( 2.00  -105.5772)  ( 2.00   -12.2185)  ( 2.00    -1.9200)  ( 0.00    -0.1982)
 P :1...3            ( 6.00   -10.2793)  ( 5.00    -1.3974)  ( 0.00    -0.0873)
 D :1...1            ( 0.00    -0.4679)
 F :1...1            ( 0.00     0.6062)

 CYCLE    4
  SDIIS (wt  0.000): -0.0788  0.1328  0.9460
 A-DIIS (wt  1.000):  0.0000  0.0000  1.0000
  DIIS coefficients:  0.0000  0.0000  1.0000
 SCF Error: norm([F,P])=      6.021405452047, max([F,P])=      2.061487593708
 orbitals (Q,E):
 ---------------
 S :1...4            ( 2.00   -97.6728)  ( 2.00    -7.4155)  ( 2.00    -0.2425)  ( 0.00     0.4293)
 P :1...3            ( 6.00    -5.1248)  ( 5.00     0.0322)  ( 0.00     0.5151)
 D :1...1            ( 0.00     0.8498)
 F :1...1            ( 0.00     1.4674)

 CYCLE    5
  SDIIS (wt  0.000): -0.0198 -0.0624  0.3895  0.6927
 A-DIIS (wt  1.000):  0.0000  0.0000  0.4691  0.5309
  DIIS coefficients:  0.0000  0.0000  0.4691  0.5309
 SCF Error: norm([F,P])=      4.122826282833, max([F,P])=      1.762338952725
 orbitals (Q,E):
 ---------------
 S :1...4            ( 2.00  -100.7640)  ( 2.00    -9.3467)  ( 2.00    -0.9097)  ( 0.00     0.1217)
 P :1...3            ( 6.00    -7.1584)  ( 5.00    -0.4570)  ( 0.00     0.1672)
 D :1...1            ( 0.00     0.2335)
 F :1...1            ( 0.00     1.0657)

 CYCLE    6
  SDIIS (wt  0.000): -0.0001 -0.0138  0.0424  0.0981  0.8734
 A-DIIS (wt  1.000):  0.0000  0.0000  0.0000  0.0000  1.0000
  DIIS coefficients:  0.0000  0.0000  0.0000  0.0000  1.0000
 SCF Error: norm([F,P])=      0.297134459880, max([F,P])=      0.111907135573
 orbitals (Q,E):
 ---------------
 S :1...4            ( 2.00  -100.6199)  ( 2.00    -9.0705)  ( 2.00    -0.6673)  ( 0.00     0.2275)
 P :1...3            ( 6.00    -6.8928)  ( 5.00    -0.2439)  ( 0.00     0.2570)
 D :1...1            ( 0.00     0.4575)
 F :1...1            ( 0.00     1.2382)

 CYCLE    7
  SDIIS (wt  0.000): -0.0002  0.0003  0.0119 -0.0199  0.3831  0.6249
 A-DIIS (wt  1.000):  0.0000  0.0000  0.0000  0.0000  0.4431  0.5569
  DIIS coefficients:  0.0000  0.0000  0.0000  0.0000  0.4431  0.5569
 SCF Error: norm([F,P])=      0.268270877863, max([F,P])=      0.112251171075
 orbitals (Q,E):
 ---------------
 S :1...4            ( 2.00  -100.8158)  ( 2.00    -9.2442)  ( 2.00    -0.7560)  ( 0.00     0.1940)
 P :1...3            ( 6.00    -7.0691)  ( 5.00    -0.3171)  ( 0.00     0.2236)
 D :1...1            ( 0.00     0.3804)
 F :1...1            ( 0.00     1.1860)

 CYCLE    8
  SDIIS (wt  0.746):  0.0001 -0.0001 -0.0028  0.0035  0.0906  0.1300  0.7787
 A-DIIS (wt  0.254):  0.0000  0.0000  0.0000  0.0000  0.0000  0.0000  1.0000
  DIIS coefficients:  0.0000 -0.0001 -0.0021  0.0026  0.0676  0.0969  0.8350
 SCF Error: norm([F,P])=      0.071559445742, max([F,P])=      0.026187079052
 orbitals (Q,E):
 ---------------
 S :1...4            ( 2.00  -100.7523)  ( 2.00    -9.2108)  ( 2.00    -0.7461)  ( 0.00     0.1973)
 P :1...3            ( 6.00    -7.0328)  ( 5.00    -0.3089)  ( 0.00     0.2267)
 D :1...1            ( 0.00     0.3881)
 F :1...1            ( 0.00     1.1908)

 CYCLE    9
  SDIIS (wt  0.957):  0.0000 -0.0000 -0.0001  0.0003  0.0037 -0.0063  0.1578  0.8445
 A-DIIS (wt  0.043):  0.0000  0.0000  0.0000  0.0000  0.0000  0.0000  0.0000  1.0000
  DIIS coefficients:  0.0000 -0.0000 -0.0001  0.0003  0.0036 -0.0060  0.1511  0.8511
 SCF Error: norm([F,P])=      0.013066268530, max([F,P])=      0.005220141314
 orbitals (Q,E):
 ---------------
 S :1...4            ( 2.00  -100.7623)  ( 2.00    -9.2169)  ( 2.00    -0.7484)  ( 0.00     0.1965)
 P :1...3            ( 6.00    -7.0393)  ( 5.00    -0.3108)  ( 0.00     0.2259)
 D :1...1            ( 0.00     0.3862)
 F :1...1            ( 0.00     1.1896)

 CYCLE   10
  SDIIS (wt  1.000):  0.0000  0.0000 -0.0000 -0.0000  0.0002  0.0011 -0.0030  0.0039  0.9977
  DIIS coefficients:  0.0000  0.0000 -0.0000 -0.0000  0.0002  0.0011 -0.0030  0.0039  0.9977
 SCF Error: norm([F,P])=      0.000485727204, max([F,P])=      0.000202934401
 orbitals (Q,E):
 ---------------
 S :1...4            ( 2.00  -100.7620)  ( 2.00    -9.2166)  ( 2.00    -0.7483)  ( 0.00     0.1965)
 P :1...3            ( 6.00    -7.0390)  ( 5.00    -0.3107)  ( 0.00     0.2259)
 D :1...1            ( 0.00     0.3863)
 F :1...1            ( 0.00     1.1896)

 CYCLE   11
  SDIIS (wt  1.000):  0.0000  0.0000  0.0000  0.0000 -0.0002 -0.0009  0.0045  0.9965
  DIIS coefficients:  0.0000  0.0000  0.0000  0.0000 -0.0002 -0.0009  0.0045  0.9965
 SCF Error: norm([F,P])=      0.000002451023, max([F,P])=      0.000000874872
 orbitals (Q,E):
 ---------------
 S :1...4            ( 2.00  -100.7620)  ( 2.00    -9.2166)  ( 2.00    -0.7483)  ( 0.00     0.1965)
 P :1...3            ( 6.00    -7.0390)  ( 5.00    -0.3107)  ( 0.00     0.2259)
 D :1...1            ( 0.00     0.3863)
 F :1...1            ( 0.00     1.1896)

 CYCLE   12
  SDIIS (wt  1.000):  0.0000  0.0000 -0.0000 -0.0000  0.0001  0.0049  0.9950
  DIIS coefficients:  0.0000  0.0000 -0.0000 -0.0000  0.0001  0.0049  0.9950
 SCF Error: norm([F,P])=      0.000000029116, max([F,P])=      0.000000011194
 orbitals (Q,E):
 ---------------
 S :1...4            ( 2.00  -100.7620)  ( 2.00    -9.2166)  ( 2.00    -0.7483)  ( 0.00     0.1965)
 P :1...3            ( 6.00    -7.0390)  ( 5.00    -0.3107)  ( 0.00     0.2259)
 D :1...1            ( 0.00     0.3863)
 F :1...1            ( 0.00     1.1896)

 CYCLE   13
  SDIIS (wt  1.000):  0.0000 -0.0004  0.0111  0.9893
  DIIS coefficients:  0.0000 -0.0004  0.0111  0.9893
 SCF Error: norm([F,P])=      0.000000001289, max([F,P])=      0.000000000494
 orbitals (Q,E):
 ---------------
 S :1...4            ( 2.00  -100.7620)  ( 2.00    -9.2166)  ( 2.00    -0.7483)  ( 0.00     0.1965)
 P :1...3            ( 6.00    -7.0390)  ( 5.00    -0.3107)  ( 0.00     0.2259)
 D :1...1            ( 0.00     0.3863)
 F :1...1            ( 0.00     1.1896)

 SCF CONVERGED

 CYCLE   14
1
 ***************************************************************************************************



                                                *******************
                                                *  R E S U L T S  *
                                                *******************
  
 *** Setting up for NEW gradients in Focky
 *** Using FIT density in Focky

 Orbital Energies, per Irrep and Spin:
 ======================================
                        Occup              E (au)              E (eV)       Diff (eV) with prev. cycle
                        -----      --------------------        ------       --------------------------
 S
               1        2.000     -0.10076196025470E+03     -2741.872               4.81E-10
               2        2.000     -0.92166234791376E+01      -250.797               4.97E-10
               3        2.000     -0.74829309878317E+00       -20.362               4.14E-10
               4        0.000      0.19650378945434E+00         5.347
               5        0.000      0.20105214794378E+01        54.709
               6        0.000      0.12737820956868E+02       346.614
               7        0.000      0.21467502602049E+03      5841.605
 P
               1        6.000     -0.70390087591571E+01      -191.541               4.91E-10
               2        5.000     -0.31074821072058E+00        -8.456               3.59E-10
               3        0.000      0.22590803353600E+00         6.147
               4        0.000      0.21023976914888E+01        57.209
               5        0.000      0.18828233069566E+02       512.342
 D
               1        0.000      0.38627333037826E+00        10.511
 F
               1        0.000      0.11896264283968E+01        32.371


 Partially Occupied:
               2 P                -0.31074821072058E+00
  
 HOMO :        3 S                -0.74829309878317E+00
 LUMO :        4 S                 0.19650378945434E+00
  


 Orbital Energies, all Irreps
 ========================================

 Irrep        no.  (spin)   Occup              E (au)                E (eV)
 ---------------------------------------------------------------------------
 S             1             2.00       -0.10076196025470E+03     -2741.8724
 S             2             2.00       -0.92166234791376E+01      -250.7971
 P             1             6.00       -0.70390087591571E+01      -191.5412
 S             3             2.00       -0.74829309878317E+00       -20.3621
 P             2             5.00       -0.31074821072058E+00        -8.4559
 S             4             0.00        0.19650378945434E+00         5.3471
 P             3             0.00        0.22590803353600E+00         6.1473
 D             1             0.00        0.38627333037826E+00        10.5110
 F             1             0.00        0.11896264283968E+01        32.3714
 S             5             0.00        0.20105214794378E+01        54.7091
 P             4             0.00        0.21023976914888E+01        57.2092
 S             6             0.00        0.12737820956868E+02       346.6137
 P             5             0.00        0.18828233069566E+02       512.3423
 S             7             0.00        0.21467502602049E+03      5841.6047


 All Electron Calculation, thus no Orbital Energies of the Core Orbitals are calculated



 =======================================
 M U L L I K E N   P O P U L A T I O N S
 =======================================
  
 The survey below gives for each atom:
 a) the total charge (Z minus electrons)
 b) the net spin polarization (nr of electrons spin-A minus spin-B)
 c) for each spin the atomic electron valence density (integrated) per L-value.

 Atom              Charge    Spin density          S         P         D         F
 ----              ------    ------------       ------    ------    ------    ------
 1 Cl              0.0000                       6.0000   11.0000    0.0000    0.0000

 Populations of individual BAS functions
 ----------------------------------------
 1 Cl           0.5041  1.4544  1.7124  0.2493  0.7286  0.7286  0.7286  1.2681  1.2681  1.2681
                0.6256  1.0927  0.3615  0.2681  0.2681  0.2681  1.0016  1.0016  1.0016  0.4002
                0.4002  0.4002  0.0000  0.0000  0.0000  0.0000  0.0000  0.0000  0.0000  0.0000
                0.0000  0.0000  0.0000  0.0000  0.0000  0.0000  0.0000  0.0000

 Gross Charges per Atom (Z minus electrons)
 ==========================================
             0.0000
 Net Total:  0.00000000



 =======================================================================
 Electrostatic potential at the Nuclei due to electrons and other nuclei
 =======================================================================
  
         Atom                  Potential
         ----                  ---------
     1)   Cl                 64.38336388
 
 
 ========================
 No memory problems found
 ========================
 
 Maximum number of active allocate calls:         447
 
 *******************************************************************************

                             A D F   E X I T
 NORMAL TERMINATION



 =================
 Timing Statistics
 =================
  
 Total Used :                     CPU=        0.95      System=        0.04     Elapsed=        0.99

 Calls  Section                     ( Mean, Percentage )
 ---------------------------------------------------------------------------------------------------
     3  ><      ................      0.00    0.00             0.00    0.00             0.00    0.08
     1  INIT    ................      0.01    1.26             0.02   50.00             0.03    3.49
     1  GEOMET  ................      0.01    0.74             0.01   17.50             0.01    1.35
     1  INPUTA  ................      0.00    0.42             0.00    0.00             0.00    0.32
     1  MAINSY  ................      0.01    0.74             0.00    2.50             0.01    0.80
     1  SYMFIT  ................      0.00    0.11             0.00    0.00             0.00    0.12
     1  CORORT  ................      0.00    0.00             0.00    0.00             0.00    0.04
     1  SYMORB  ................      0.00    0.21             0.00    0.00             0.00    0.16
     1  CLSMAT  ................      0.01    0.95             0.00    0.00             0.01    0.92
     1  ORTHON  ................      0.00    0.21             0.00    2.50             0.00    0.30
     1  GENPT   ................      0.02    2.63             0.00    5.00             0.03    2.67
     1  PTBAS   ................      0.01    0.63             0.00    0.00             0.01    0.64
    14  FOCKY   ................      0.05   77.68             0.00   12.50             0.05   74.92
    14  FOCKTR  ................      0.00    2.11             0.00    0.00             0.00    2.01
    14  SDIIS   ................      0.00    3.89             0.00    5.00             0.00    3.88
     1  COREPS  ................      0.04    4.42             0.00    0.00             0.04    4.25
     1  POPAN   ................      0.01    0.84             0.00    2.50             0.01    0.93
     1  DEBYE   ................      0.00    0.11             0.00    0.00             0.00    0.10
     1  EXIT PROCEDURE .........      0.03    3.05             0.00    2.50             0.03    3.00


 Currently Open Files (EXIT00)
 ====================

 Unit    Access Format  Status   Type       Ident (file)
 -------------------------------------------------------
   3      SEQ    FORM   TRANSP  NORMAL      LOGFILE
                                          ( logfile )


 Buffered I/O statistics
 =======================
 Memory available:                     67108864
 Number of records fitting in memory:     16131
 Input :   0.1% of                        29179  *4k bytes
 Output:  12.9% of                         1455  *4k bytes
 Records from serial files evicted:           0
                    others evicted:           0
 Hash table lookups:      75511 with          0 conflicts (  0.00%)

 ***************************************************************************************************
 (LOGFILE)
 <May09-2019> <16:32:30>  ADF 2017  RunTime: May09-2019 16:32:30  Nodes: 1  Procs: 1
 <May09-2019> <16:32:30>  Chlorine (TZ2P)
 <May09-2019> <16:32:30>  RunType   : CREATE
 <May09-2019> <16:32:30>  Net Charge: 0 (Nuclei minus Electrons)
 <May09-2019> <16:32:30>  Symmetry  : ATOM
  Coordinates
    Atom         X           Y           Z   (Angstrom)
    1.Cl        0.000000    0.000000    0.000000
 <May09-2019> <16:32:30>  >>>> CORORT
 <May09-2019> <16:32:30>  >>>> CLSMAT
 <May09-2019> <16:32:30>  >>>> ORTHON
 <May09-2019> <16:32:30>  >>>> GENPT
 <May09-2019> <16:32:30>  Block Length=  93
 <May09-2019> <16:32:30>  >>>> PTBAS
 <May09-2019> <16:32:30>  >>>> CYCLE
 <May09-2019> <16:32:31>              |Error|         MaxErr       Wt(A-DIIS)
 <May09-2019> <16:32:31>      1      0.00000000      0.00000000
 <May09-2019> <16:32:31>      2     37.91809312     10.75416200    100.0
 <May09-2019> <16:32:31>      3     20.75770825      6.87179666    100.0
 <May09-2019> <16:32:31>      4      6.02140545      2.06148759    100.0
 <May09-2019> <16:32:31>      5      4.12282628      1.76233895    100.0
 <May09-2019> <16:32:31>      6      0.29713446      0.11190714    100.0
 <May09-2019> <16:32:31>      7      0.26827088      0.11225117    100.0
 <May09-2019> <16:32:31>      8      0.07155945      0.02618708     25.4
 <May09-2019> <16:32:31>      9      0.01306627      0.00522014      4.3
 <May09-2019> <16:32:31>     10      0.00048573      0.00020293      0.0
 <May09-2019> <16:32:31>     11      0.00000245      0.00000087      0.0
 <May09-2019> <16:32:31>     12      0.00000003      0.00000001      0.0
 <May09-2019> <16:32:31>     13      0.00000000      0.00000000      0.0
 <May09-2019> <16:32:31>  SCF converged
 <May09-2019> <16:32:31>     14      0.00000000      0.00000000      0.0
 <May09-2019> <16:32:31>  >>>> POPAN
 <May09-2019> <16:32:31>  >>>> DEBYE
 <May09-2019> <16:32:31>  NORMAL TERMINATION
 <May09-2019> <16:32:31>  END


 Parallel Execution: Process Information
 ==============================================================================
 Rank   Node Name                              NodeID   MyNodeRank  NodeMaster
    0   BAZIS-cn021                               0          0          0
    1   BAZIS-cn021                               0          1         -1
    2   BAZIS-cn021                               0          2         -1
    3   BAZIS-cn021                               0          3         -1
    4   BAZIS-cn021                               0          4         -1
    5   BAZIS-cn021                               0          5         -1
    6   BAZIS-cn021                               0          6         -1
    7   BAZIS-cn021                               0          7         -1
    8   BAZIS-cn021                               0          8         -1
    9   BAZIS-cn021                               0          9         -1
   10   BAZIS-cn021                               0         10         -1
   11   BAZIS-cn021                               0         11         -1
 ==============================================================================


May use up to 30771MB of RAM as shared memory on node 0


XC
  GGA blyp
  DISPERSION Grimme3 BJDAMP
END

SCF
  iterations 250
END

SYMMETRY nosym
CHARGE -1

ZLMFIT
  Quality normal
END

BECKEGRID
  Quality good
End

ATOMS
    3.Cl       -6.094322    5.002916   -0.105735
END

Fragments
Cl t21.Cl
End
end input

 *******************************************************************************
 *                                                                             *
 *  -------------------------------------                                      *
 *   Amsterdam Density Functional  (ADF)         2017                          *
 *  -------------------------------------                                      *
 *                                               r58813 2017-04-12             *
 *                                                                             *
 *                                                                             *
 *                              =================                              *
 *                              |               |                              *
 *                              |     A D F     |                              *
 *                              |               |                              *
 *                              =================                              *
 *                                                                             *
 *                                                                             *
 *   Online information and documentation:  https://www.scm.com/support/       *
 *   E-mail:  support@scm.com   info@scm.com                                   *
 *                                                                             *
 *   Scientific publications using ADF results must be properly referenced     *
 *   See the User Manuals (or the web site) for recommended citations          *
 *   The terms and conditions of the End User License Agreement apply to       *
 *   the use of ADF, https://www.scm.com/license-terms/                        *
 *                                                                             *
 **********************  x86_64_linux_intel / intelmpi  ************************
 
 Licensed to: VU/FEW (+ SARA) / ALGEMEEN / Amsterdam / THE NETHERLANDS
 SCM User ID: u7668
  
 ADF 2017  RunTime: May09-2019 16:32:32  Nodes: 1  Procs: 12

 Temporary files are created in /local/datastore0/tcst25/189701/kid_0.FKpsDT


Communication costs MPI_COMM_WORLD:      3.925 usec per message,   0.0178 usec per 8-byte item
Communication costs for intra-node:      3.930 usec per message,   0.0181 usec per 8-byte item

 *** (NO TITLE) ***



 ===========================
 A T T A C H E D   F I L E S
 ===========================
  



 ===============================
 M O D E L   P A R A M E T E R S
 ===============================
  
 DENSITY FUNCTIONAL POTENTIAL (scf)
    LDA:                               Exchange only                           == Not Default ==
    Gradient Corrections:              Becke88 LYP                             == Not Default ==

 SPIN  (restricted / unrestr.)
    Molecule:                          Restricted                               
    Fragments:                         Restricted                               

 OTHER ASPECTS
    Relativistic Corrections:          ---                                      

    Nuclear Charge Density Model:      Point Charge Nuclei                      
    Core Treatment:                    Frozen Orbital(s)                        

    Hyperfine or Zeeman Interaction:   ---                                      

 Settings for Grimme 3 dispersion correction

      damping                        BJ
      s6                          1.000
      a1                          0.430
      s8                          2.700
      a2                          4.236

 Other (technical) parameters

      alpha                      14.000
      version                         4
 


 Fragment File(s)
 ----------------
 Cl:
         file : t21.Cl
         jobid: ADF 2017  RunTime: May09-2019 16:32:30  Nodes: 1  Procs: 1
         title: Chlorine (TZ2P)



                                        ************************************
                                        *  R U N   T Y P E : SINGLE POINT  *
                                        ************************************
  



 ===============
 G E O M E T R Y  ***  Single Atom  ***
 ===============
  

 ATOMS
 =====                            X Y Z                    CHARGE
                                (Angstrom)             Nucl     +Core       At.Mass
                       --------------------------    ----------------       -------
    1  Cl             -6.0943    5.0029   -0.1057     17.00     17.00       34.9689


 FRAGMENTS
 =========                                     Atoms in this Fragment     Cart. coord.s (Angstrom)
                                               -------------------------------------------------------
    1  Cl                                                1  Cl          -6.0943    5.0029   -0.1057



 =====================================
 S Y M M E T R Y ,   E L E C T R O N S
 =====================================
  
 Symmetry: NOSYM

 Irreducible Representations, including subspecies
 -------------------------------------------------
 A


 Configuration of Valence Electrons
 ==================================
 ( determined in the SCF procedure )

 Total:   18

 Net Charge: -1 (Nuclei minus Electrons)

 Aufbau principle for MO occupations will be applied through SCF cycle no.     125
 Thereafter, the program will assign electrons to MOs that are spatially
 similar to the occupied MOs in a "reference" cycle ("KeepOrbitals").
 The reference cycle is always the PREVIOUS cycle: it will evolve with
 the SCF procedure.
1
 ***************************************************************************************************



                                      ****************************************
                                      *  B U I L D : (Fragments, Functions)  *
                                      ****************************************
  



 =======
 S F O s  ***  (Symmetrized Fragment Orbitals)  ***
 =======
  
 SFOs are linear combinations of (valence) Fragment Orbitals (FOs), such that the SFOs transform as the
 irreducible representations of the (molecular) symmetry group. Each SFO is therefore characterized by
 an irrep of the molecule and by a few (or only one) generating FOs.
 The SFOs constitute a symmetry-adapted basis for the Fock matrix. The MO eigenvector coefficients in
 this basis provide a direct interpretation of the MOs in terms of Frontier Orbital Theory.

 The SFOs are combined with auxiliary Core Functions (CFs) to ensure orthogonalization on the (frozen)
 Core Orbitals (COs). The Core-orthogonalized SFOs (CSFOs) constitute the true Fock basis.

 The FOs, and hence also the (C)SFOs are combinations of the elementary basis functions (BAS). The basis
 functions that participate in the description of the SFOs depend on the irrep. The indices of the
 involved functions are printed below for each irrep.
 (The complete list of primitive basis functions is printed in another section)

 Total nr. of (C)SFOs (summation over all irreps) :    34

 NOTE: a (C)SFO that is defined as a combination of more than one FO is usually NOT normalized.



                                       === A ===
 Nr. of SFOs :   34
 Cartesian basis functions that participate in this irrep (total number =    38) :
      1     2     3     4    11    12    13     5     8    14
     17    20     6     9    15    18    21     7    10    16
     19    22    23    24    25    26    27    28    29    30
     31    32    33    34    35    36    37    38

    SFO  (index         Fragment          Generating    Expansion in Fragment Orbitals
  indx  incl.CFs)   Occup   Orb.Energy   FragmentType  Coeff.   Orbital     on Fragment
 --------------------------------------------------------------------------------------
     1       1      2.000    -100.762 au  Cl            1.00      1 S               1
                        (   -2741.872 eV)
     2       2      2.000      -9.217 au  Cl            1.00      2 S               1
                        (    -250.797 eV)
     3       3      2.000      -0.748 au  Cl            1.00      3 S               1
                        (     -20.362 eV)
     4       4       --         0.197 au  Cl            1.00      4 S               1
                        (       5.347 eV)
     5       5       --         2.011 au  Cl            1.00      5 S               1
                        (      54.709 eV)
     6       6       --        12.738 au  Cl            1.00      6 S               1
                        (     346.614 eV)
     7       7       --       214.675 au  Cl            1.00      7 S               1
                        (    5841.605 eV)
     8       8      2.000      -7.039 au  Cl            1.00      1 P:x             1
                        (    -191.541 eV)
     9       9      1.667      -0.311 au  Cl            1.00      2 P:x             1
                        (      -8.456 eV)
    10      10       --         0.226 au  Cl            1.00      3 P:x             1
                        (       6.147 eV)
    11      11       --         2.102 au  Cl            1.00      4 P:x             1
                        (      57.209 eV)
    12      12       --        18.828 au  Cl            1.00      5 P:x             1
                        (     512.342 eV)
    13      13      2.000      -7.039 au  Cl            1.00      1 P:y             1
                        (    -191.541 eV)
    14      14      1.667      -0.311 au  Cl            1.00      2 P:y             1
                        (      -8.456 eV)
    15      15       --         0.226 au  Cl            1.00      3 P:y             1
                        (       6.147 eV)
    16      16       --         2.102 au  Cl            1.00      4 P:y             1
                        (      57.209 eV)
    17      17       --        18.828 au  Cl            1.00      5 P:y             1
                        (     512.342 eV)
    18      18      2.000      -7.039 au  Cl            1.00      1 P:z             1
                        (    -191.541 eV)
    19      19      1.667      -0.311 au  Cl            1.00      2 P:z             1
                        (      -8.456 eV)
    20      20       --         0.226 au  Cl            1.00      3 P:z             1
                        (       6.147 eV)
    21      21       --         2.102 au  Cl            1.00      4 P:z             1
                        (      57.209 eV)
    22      22       --        18.828 au  Cl            1.00      5 P:z             1
                        (     512.342 eV)
    23      23       --         0.386 au  Cl            1.00      1 D:z2            1
                        (      10.511 eV)
    24      24       --         0.386 au  Cl            1.00      1 D:x2-y2         1
                        (      10.511 eV)
    25      25       --         0.386 au  Cl            1.00      1 D:xy            1
                        (      10.511 eV)
    26      26       --         0.386 au  Cl            1.00      1 D:xz            1
                        (      10.511 eV)
    27      27       --         0.386 au  Cl            1.00      1 D:yz            1
                        (      10.511 eV)
    28      28       --         1.190 au  Cl            1.00      1 F:z3            1
                        (      32.371 eV)
    29      29       --         1.190 au  Cl            1.00      1 F:z             1
                        (      32.371 eV)
    30      30       --         1.190 au  Cl            1.00      1 F:xyz           1
                        (      32.371 eV)
    31      31       --         1.190 au  Cl            1.00      1 F:z2x           1
                        (      32.371 eV)
    32      32       --         1.190 au  Cl            1.00      1 F:z2y           1
                        (      32.371 eV)
    33      33       --         1.190 au  Cl            1.00      1 F:x             1
                        (      32.371 eV)
    34      34       --         1.190 au  Cl            1.00      1 F:y             1
                        (      32.371 eV)



 ================================
 (Slater-type)  F U N C T I O N S  ***  (Basis and Fit)  ***
 ================================
  

 Atom Type    1  (Cl)
 ==============

 Valence Basis Sets:  14
 -----------------------
   1 S   20.300000
   1 S   15.250000
   2 S    6.250000
   2 S    4.450000
   2 P    8.850000
   2 P    5.050000
   3 S    3.450000
   3 S    2.300000
   3 S    1.600000
   3 P    3.350000
   3 P    2.050000
   3 P    1.200000
   3 D    2.000000
   4 F    2.000000


 BAS: List of all Elementary Cartesian Basis Functions
 =====================================================

 The numbering in the list below (to the right of the function characteristics) is referred
 to in print-outs of MO eigenvectors and Mulliken populations in the BAS representation
 (as contrasted to the SFO representation).

 Notes:
 1. The functions are characterized by a polynomial prefactor (powers of x,y,z and r) and
    an exponential decay factor alpha.
 2. Since the basis sets are specific for an atom TYPE, the individual functions occur on
    all atoms of that type.
 3. The word 'Core' in the left margin signals that it is a Core Function (CF) : not a
    degree of freedom in the valence set, but only used to ensure orthogonalization of
    the other valence basis functions on the frozen Core Orbitals.


 (power of) X  Y  Z  R     Alpha  on Atom
            ==========     =====     ==========

 Cl                                   1
                                  ---------------------------------------------------------------------------
            0  0  0  0    20.300      1
            0  0  0  0    15.250      2
            0  0  0  1     6.250      3
            0  0  0  1     4.450      4
            1  0  0  0     8.850      5
            0  1  0  0     8.850      6
            0  0  1  0     8.850      7
            1  0  0  0     5.050      8
            0  1  0  0     5.050      9
            0  0  1  0     5.050     10
            0  0  0  2     3.450     11
            0  0  0  2     2.300     12
            0  0  0  2     1.600     13
            1  0  0  1     3.350     14
            0  1  0  1     3.350     15
            0  0  1  1     3.350     16
            1  0  0  1     2.050     17
            0  1  0  1     2.050     18
            0  0  1  1     2.050     19
            1  0  0  1     1.200     20
            0  1  0  1     1.200     21
            0  0  1  1     1.200     22
            2  0  0  0     2.000     23
            1  1  0  0     2.000     24
            1  0  1  0     2.000     25
            0  2  0  0     2.000     26
            0  1  1  0     2.000     27
            0  0  2  0     2.000     28
            3  0  0  0     2.000     29
            2  1  0  0     2.000     30
            2  0  1  0     2.000     31
            1  2  0  0     2.000     32
            1  1  1  0     2.000     33
            1  0  2  0     2.000     34
            0  3  0  0     2.000     35
            0  2  1  0     2.000     36
            0  1  2  0     2.000     37
            0  0  3  0     2.000     38

 Total number of charge fitting functions (nprimf)       106
 Total number of Cartesian basis functions (naos)         38
 Total number of Cartesian core functions  (ncos)          0

1
 ***************************************************************************************************



                                              ***********************
                                              *  T E C H N I C A L  *
                                              ***********************
  



 =============================================================
 P A R A L L E L I Z A T I O N  and  V E C T O R I Z A T I O N
 =============================================================
  
 Nr of parallel processes:                               12
 Maximum vector length in NumInt loops:                 128

 IO buffersize (Mb):                                     64.000000



 =====================
 S C F   U P D A T E S
 =====================
  
 Max. nr. of cycles:                               250
 Convergence criterion:                              0.0000010000
   secondary criterion:                              0.0010000000

 Mix parameter (when DIIS does not apply):           0.2000000000
 Mixed ADIIS+DIIS will be used
    Max number of expansion vectors:                10
    Pure ADIIS when Max([F,P]) is above              0.1000000000
    Pure DIIS when Max([F,P]) is below               0.0010000000
 Automatic ElectronSmearing (in case of problematic SCF convergence) disabled



 =================
 P R E C I S I O N  ***  (General: NumInt, NeglectFunctionTails, ...)  ***
 =================
  

 NumInt:           Target precision:                 6.0000000000
 -------           Initial precision:                6.0000000000
                   Min. precision (optimization):    6.0000000000

 Neglect Functions:          Basis functions:        0.1000000000E-07
 ------------------          Fit functions:          0.1000000000E-07



 ===========================
 L I N E A R   S C A L I N G
 ===========================
  

 Cut-off radii density fit:                        0.1000000000E-09
 Overlap cut-off criterion AO matrix elements:     0.1000000000E-07
 Cut-offs for Coulomb potential and fitted density:0.1000000000E-09
 Cut-off criterion for Coulomb multipole terms:    0.1000000000E-09
 Progressive Convergence parameter:                 0.000000000    
1
 ***************************************************************************************************



                                            ***************************
                                            *  C O M P U T A T I O N  *
                                            ***************************
  

 Number of elements of the density matrix on this node (used, total):       741       741



 ===========================================
 Numerical Integration : Fuzzy Cells (Becke)
 ===========================================
  
 Becke grid quality: GOOD           
  
 Lebedev angular grid order:             min:  11 max:  31
 Nr. of radial points:                   min:  80 max:  80

 Total nr. of points:       7840
 Nr. of blocks:               80
 Block length:                98
 Nr. of dummy points:          0


 Test of Precision of the Numerical Integration Grid
 ===================================================

 Integral of the Total Core Density:                   0.00000000000000



 ========================
 Density Fitting (zlmFit)
 ========================
  
 ZlmFit Fit Quality: NORMAL         
  
 Max L-expansion:                        min:   7 max:   7
 Nr. of radial interpolation points:     min:  60 max:  60



 =====
 S C F  ***  ScaSCF  ***
 =====
  
 Initial density matrix is calculated as sum of fragments

 CYCLE    1
 SCF Error: norm([F,P])=      0.006876733273, max([F,P])=      0.003649132109
 orbitals (Q,E):
 ---------------
 A :1...19           ( 2.00  -100.7713)  ( 2.00    -9.2215)  ( 2.00    -7.0438)  ( 2.00    -7.0438)
                     ( 2.00    -7.0438)  ( 2.00    -0.7505)  ( 2.00    -0.3126)  ( 2.00    -0.3126)
                     ( 2.00    -0.3126)  ( 0.00     0.1953)  ( 0.00     0.2248)  ( 0.00     0.2248)
                     ( 0.00     0.2248)  ( 0.00     0.3845)  ( 0.00     0.3845)  ( 0.00     0.3845)
                     ( 0.00     0.3845)  ( 0.00     0.3845)  ( 0.00     1.1883)

 CYCLE    2
  SDIIS (wt  0.000):  0.9906  0.0094
 A-DIIS (wt  1.000):  0.3453  0.6547
  DIIS coefficients:  0.3453  0.6547
 SCF Error: norm([F,P])=      0.426668636028, max([F,P])=      0.186217219351
 orbitals (Q,E):
 ---------------
 A :1...10           ( 2.00  -100.2835)  ( 2.00    -8.7776)  ( 2.00    -6.5952)  ( 2.00    -6.5952)
                     ( 2.00    -6.5952)  ( 2.00    -0.4155)  ( 2.00    -0.0096)  ( 2.00    -0.0096)
                     ( 2.00    -0.0096)  ( 0.00     0.4163)

 CYCLE    3
  SDIIS (wt  0.000):  1.0373 -0.0095 -0.0279
 A-DIIS (wt  1.000):  0.0697  0.2474  0.6829
  DIIS coefficients:  0.0697  0.2474  0.6829
 SCF Error: norm([F,P])=      0.314456132136, max([F,P])=      0.099741123156
 orbitals (Q,E):
 ---------------
 A :1...10           ( 2.00  -100.4692)  ( 2.00    -8.8999)  ( 2.00    -6.7239)  ( 2.00    -6.7239)
                     ( 2.00    -6.7239)  ( 2.00    -0.4266)  ( 2.00    -0.0029)  ( 2.00    -0.0029)
                     ( 2.00    -0.0029)  ( 0.00     0.4497)

 CYCLE    4
  SDIIS (wt  0.506):  0.0095  0.3250  0.6654
 A-DIIS (wt  0.494):  0.0000  0.2101  0.7899
  DIIS coefficients:  0.0048  0.2683  0.7269
 SCF Error: norm([F,P])=      0.148197851260, max([F,P])=      0.049872739305
 orbitals (Q,E):
 ---------------
 A :1...10           ( 2.00  -100.3518)  ( 2.00    -8.8116)  ( 2.00    -6.6327)  ( 2.00    -6.6327)
                     ( 2.00    -6.6327)  ( 2.00    -0.3768)  ( 2.00     0.0398)  ( 2.00     0.0398)
                     ( 2.00     0.0398)  ( 0.00     0.4779)

 CYCLE    5
  SDIIS (wt  0.861):  0.0219 -0.0283  0.1226  0.8838
 A-DIIS (wt  0.139):  0.0000  0.0000  0.0361  0.9639
  DIIS coefficients:  0.0189 -0.0244  0.1105  0.8949
 SCF Error: norm([F,P])=      0.040645666546, max([F,P])=      0.014752607177
 orbitals (Q,E):
 ---------------
 A :1...10           ( 2.00  -100.3757)  ( 2.00    -8.8295)  ( 2.00    -6.6512)  ( 2.00    -6.6512)
                     ( 2.00    -6.6512)  ( 2.00    -0.3861)  ( 2.00     0.0325)  ( 2.00     0.0325)
                     ( 2.00     0.0325)  ( 0.00     0.4741)

 CYCLE    6
  SDIIS (wt  0.986): -0.0025  0.0068 -0.0159  0.0252  0.9864
 A-DIIS (wt  0.014):  0.0000  0.0000  0.0000  0.0000  1.0000
  DIIS coefficients: -0.0025  0.0067 -0.0157  0.0248  0.9866
 SCF Error: norm([F,P])=      0.006600757785, max([F,P])=      0.002343363060
 orbitals (Q,E):
 ---------------
 A :1...10           ( 2.00  -100.3723)  ( 2.00    -8.8269)  ( 2.00    -6.6485)  ( 2.00    -6.6485)
                     ( 2.00    -6.6485)  ( 2.00    -0.3849)  ( 2.00     0.0334)  ( 2.00     0.0334)
                     ( 2.00     0.0334)  ( 0.00     0.4746)

 CYCLE    7
  SDIIS (wt  1.000): -0.0000  0.0000  0.0003  0.0007  0.0142  0.9847
  DIIS coefficients: -0.0000  0.0000  0.0003  0.0007  0.0142  0.9847
 SCF Error: norm([F,P])=      0.000098482110, max([F,P])=      0.000033797784
 orbitals (Q,E):
 ---------------
 A :1...10           ( 2.00  -100.3723)  ( 2.00    -8.8269)  ( 2.00    -6.6485)  ( 2.00    -6.6485)
                     ( 2.00    -6.6485)  ( 2.00    -0.3849)  ( 2.00     0.0334)  ( 2.00     0.0334)
                     ( 2.00     0.0334)  ( 0.00     0.4746)

 CYCLE    8
  SDIIS (wt  1.000): -0.0000 -0.0000 -0.0000  0.0000  0.0003  0.0169  0.9827
  DIIS coefficients: -0.0000 -0.0000 -0.0000  0.0000  0.0003  0.0169  0.9827
 SCF Error: norm([F,P])=      0.000000154100, max([F,P])=      0.000000054948
 orbitals (Q,E):
 ---------------
 A :1...10           ( 2.00  -100.3723)  ( 2.00    -8.8269)  ( 2.00    -6.6485)  ( 2.00    -6.6485)
                     ( 2.00    -6.6485)  ( 2.00    -0.3849)  ( 2.00     0.0334)  ( 2.00     0.0334)
                     ( 2.00     0.0334)  ( 0.00     0.4746)

 SCF CONVERGED

 CYCLE    9
1
 ***************************************************************************************************



                                                *******************
                                                *  R E S U L T S  *
                                                *******************
  
 *** Setting up for NEW gradients in Focky
 *** Using FIT density in Focky

 Orbital Energies, per Irrep and Spin:
 ======================================
                        Occup              E (au)              E (eV)       Diff (eV) with prev. cycle
                        -----      --------------------        ------       --------------------------
 A
               1        2.000     -0.10037232947414E+03     -2731.270               2.97E-08
               2        2.000     -0.88269405767580E+01      -240.193               2.48E-08
               3        2.000     -0.66485319868783E+01      -180.916               2.54E-08
               4        2.000     -0.66485319868782E+01      -180.916               2.54E-08
               5        2.000     -0.66485319868778E+01      -180.916               2.54E-08
               6        2.000     -0.38487126002417E+00       -10.473               1.55E-08
               7        2.000      0.33417504750206E-01         0.909               1.33E-08
               8        2.000      0.33417504750540E-01         0.909               1.33E-08
               9        2.000      0.33417504750683E-01         0.909               1.33E-08
              10        0.000      0.47457678162138E+00        12.914
              11        0.000      0.48873694953124E+00        13.299
              12        0.000      0.48873694953167E+00        13.299
              13        0.000      0.48873694953181E+00        13.299
              14        0.000      0.74094846531681E+00        20.162
              15        0.000      0.74094846531683E+00        20.162
              16        0.000      0.74094846531687E+00        20.162
              17        0.000      0.74094846531720E+00        20.162
              18        0.000      0.74094846531725E+00        20.162
              19        0.000      0.15175205707567E+01        41.294
  
 HOMO :        9 A                 0.33417504750683E-01
 LUMO :       10 A                 0.47457678162138E+00
  


 All Electron Calculation, thus no Orbital Energies of the Core Orbitals are calculated


 Fit test: (difference of exact and fit density, squared integrated, result summed over spins)
         Sum-of-Fragments:                             0.00000000538486
         Orthogonalized Fragments:                     0.00007330811635
         SCF:                                          0.00007324901611



 ==========================
 Electron Density at Nuclei
 ==========================
  
 The electron density is calculated at points on a small sphere around the center of a nucleus.
 The printed electron density is the average electron density on these points.
 The radius of the sphere is the printed approximate finite nuclear radius.

         Atom        Nuclear Radius (Angstrom)             Electron Density (a.u.)
         ----        -------------------------             -----------------------
     1)   Cl                0.0000426624                             3208.38643



 =======================================
 M U L L I K E N   P O P U L A T I O N S
 =======================================
  
 The survey below gives for each atom:
 a) the total charge (Z minus electrons)
 b) the net spin polarization (nr of electrons spin-A minus spin-B)
 c) for each spin the atomic electron valence density (integrated) per L-value.

 Atom              Charge    Spin density          S         P         D         F
 ----              ------    ------------       ------    ------    ------    ------
 1 Cl             -1.0000                       6.0000   12.0000    0.0000    0.0000

 Populations of individual BAS functions
 ----------------------------------------
 1 Cl           0.5042  1.4545  1.7106  0.2468  0.7284  0.7284  0.7284  1.2655  1.2655  1.2655
                0.6588  0.8953  0.5299  0.3351  0.3351  0.3351  0.8783  0.8783  0.8783  0.7929
                0.7929  0.7929  0.0000  0.0000  0.0000 -0.0000  0.0000  0.0000  0.0000  0.0000
                0.0000 -0.0000  0.0000  0.0000  0.0000 -0.0000 -0.0000 -0.0000

 Gross Charges per Atom (Z minus electrons)
 ==========================================
            -1.0000
 Net Total: -1.00000000


 Atom-Atom Population Matrix (off-diagonal elements not doubled)
 ===============================================================

     1 :    18.0000



 =================================================
 H I R S H F E L D   C H A R G E   A N A L Y S I S
 =================================================
  
 For each fragment: the (numerical) integral of rho(scf) * rho(fragment)/rho(sum-of-fragments)
 (nuclear charges are included, electrons are counted negative)

 The fragments and their ordering are defined in the early G E O M E T R Y output section.
 If you use single-atom fragments, this usually implies that all atoms of the same
 chemical type are grouped together. This may not be the order in which you listed them
 in the input file!

    1  Cl                       -1.0000

 Sum of these charges (accuracy NumInt/Tails) =          -1.00000000



 =============================
 V O R O N O I   C H A R G E S
 =============================
  
 For each atom: the (numerical) integral of the total electronic charge density in its Voronoi cell,
 i.e. the region of space that is closer to that atom than to any other atom.
 (cf. Wigner-Seitz cells in crystals)

 Within the Voronoi cell the subintegrals over the atomic sphere and the remaining part are evaluated
 separately to give the numbers of electrons (negative charge) in these regions.
 The net total charge in the cell (including the nuclear charge) is also given.

 Values are provided for
    a) the Initial (sum-of-fragments) density
    b) the Orthogonalized-Fragments density
    c) the SCF density
    d) the Voronoi Deformation Density (VDD): the difference SCF-Initial for the complete atomic cell
 ---------------------------------------------------------------------------------------------------
 Total NetCharge:              -0.000                     -0.000                     -1.000   -1.000
 (accuracy NumInt/Tails)

 Remark: the 'NetTotal' Voronoi charges often do not match the Mulliken and/or Hirshfeld charges very
 well. This is caused by the fact that chemically different atoms are not treated in accordance with
 their relative sizes. (Voronoi cells are defined by boundary planes halfway between the atoms.)
 However, the CHANGES in charge, comparing 'Initial' to 'SCF' for instance, do give a fair indication
 of the flow of charge caused by the relaxation from sum-of-fragments to self-consistency.

 Warning: the absolute accuracy of the VDD charges obtained using the Fuzzy Cells (Becke) integration
 scheme is much poorer than the one obtained with an 'equivalent' Voronoi integration grid. 



 =================================================================
 M U L T I P O L E   D E R I V E D   C H A R G E   A N A L Y S I S
 =================================================================

 This charge analysis uses the atomic multipoles (obtained from the fitted density) up to some level X,
 and reconstructs these multipoles exactly (up to level X) by distributing charges over all atoms.
 This is achieved by using Lagrange multipliers and a weight function to keep the multipoles local.

 Dummy atoms can be included (by setting INCDUM in MDC-block to 1) to obtain a fractional charge.
 This is generally useful and necessary only for small symmetrical molecules, when there are not
 enough degrees of freedom to reconstruct the multipoles.

 Since the atomic multipoles are reconstructed up to level X,
 the molecular multipoles are represented also up to level X.
 The recommended level is to reconstruct up to quadrupole : -> MDC-q charges.

 See: M. Swart, P.Th. van Duijnen, J.G. Snijders, J.Comput.Chem., (2001), p. 79-88.

 ------------------------------------------------------------- 
 Atomic electronic multipole moments from SCF equations (a.u.)
 ------------------------------------------------------------- 

   atom        charge        dip-x     dip-y     dip-z      quad-xx   quad-xy   quad-xz   quad-yy   quad-yz   quad-zz
 --------------------------------------------------------------------------------------------------------------------
    1 Cl    -1.000000    -0.000000 -0.000000  0.000000     0.000000  0.000000  0.000000  0.000000  0.000000 -0.000000

 --------------------------------------- 
 Multipole derived atomic charges (a.u.)
 --------------------------------------- 

 The MDC-m charges are just the Monopole terms in the multipole expansion, while for the MDC-d charges
 also the Dipoles are reconstructed. The usually preferred charges are the MDC-q charges.
 These reconstruct the Monopoles, Dipoles and Quadrupoles (both atomic AND molecular).

        Atom    Level:     MDC-m        MDC-d        MDC-q
 ---------------------------------------------------------
     1     Cl          -1.000000    -1.000000    -1.000000

 ------------------------------------------------ 
 Average absolute deviations in atomic multipoles
 ------------------------------------------------ 

 Stated here are the average differences between the atomic multipoles
 and the reconstructed atomic multipoles (from the distributed charges).
 If these values are not zero, this means there are not enough degrees of freedom,
 to be able to reconstruct the atomic multipoles. (This usually happens only
 for small and/or highly symmetric molecules). If this is the case, one could add
 dummy atoms as extra point charges (and setting INCDUM in MDC-block to 1).

 Level:                                 MDC-d        MDC-q
 ---------------------------------------------------------
 Charge   (a.u.)                       0.0000       0.0000
 Dipole   (Debye)                      0.0000       0.0000
 Quad.    (a.u.)                       0.0000       0.0000

 --------------------------------------- 
 Represented molecular multipole moments
 --------------------------------------- 

 Given here are the Molecular multipole moments from the atomic charges, and from the Fit Density.
 Note that the atomic charges represent the latter, NOT the ones from the Exact density.

            Q (a.u.)             Dipole moment (Debye)                                          Quadrupole moment (a.u.)
                                 x         y         z              xx        xy        xz        yy        yz        zz
------------------------------------------------------------------------------------------------------------------------
MDC-m        -1.0000       29.2723  -24.0300    0.5079        -87.9217  163.3193   -3.4517  -23.0448    2.8336  110.9665
MDC-d        -1.0000       29.2723  -24.0300    0.5079        -87.9217  163.3193   -3.4517  -23.0448    2.8336  110.9665
MDC-q        -1.0000       29.2723  -24.0300    0.5079        -87.9217  163.3193   -3.4517  -23.0448    2.8336  110.9665
 
Fit.Dens.    -1.0000       29.2723  -24.0300    0.5079        -87.9217  163.3193   -3.4517  -23.0448    2.8336  110.9665



 =============
 Dipole Moment  ***  (Debye)  ***
 =============
  
 Vector   :        29.27227416    -24.03002808      0.50786682
 Magnitude:        37.87566782

 This molecular dipole moment is calculated with analytic integration
 ************************************************************************************
 Since the molecule is NOT NEUTRAL, the dipole moment depends on the choice of origin
 ************************************************************************************



 =========================================
 Quadrupole Moment (Buckingham convention)  ***  (a.u.)  ***
 =========================================
  
      quad-xx        quad-xy        quad-xz        quad-yy        quad-yz        quad-zz
    -87.92171028   163.31933438    -3.45170093   -23.04478925     2.83355061   110.96649953

 This molecular quadrupole moment is calculated with analytic integration
1



 ===========================
 B O N D I N G   E N E R G Y  ***  (decomposition)  ***
 ===========================
  
*** IMPORTANT NOTE ***

The bond energy is computed as an energy difference between molecule and
fragments. In particular when the fragments are single atoms, they are usually
computed as SPHERICALLY SYMMETRIC and SPIN-RESTRICTED. Obviously, this usually
does NOT represent the true atomic groundstate.

To obtain the 'real' bond energy, (atomic) correction terms must be applied
for the true (multiplet) fragment ground state. See ref: E.J.Baerends,
V.Branchadell, M.Sodupe, Chem.Phys.Lett.265 (1997) 481

General theoretical background on the bond energy decomposition scheme used
here (Morokuma-Ziegler) can be found in the review paper:
F.M. Bickelhaupt and E.J. Baerends,
"Kohn-Sham Density Functional Theory: Predicting and Understanding Chemistry"
In: Rev. Comput. Chem.; Lipkowitz, K. B. and Boyd, D. B., Eds.;
Wiley-VCH: New York, 2000, Vol. 15, 1-86.

Symbols used in the Bickelhaupt-Baerends (BB) paper are given below to make
the direct connection to that paper, where detailed explanations can be found
on the meaning of the various terms.


                                                   hartree              eV         kcal/mol           kJ/mol
                                      --------------------     -----------       ----------      -----------

Pauli Repulsion
  Kinetic (Delta T^0):                   0.000000000000000          0.0000             0.00             0.00
  Delta V^Pauli Coulomb:                -0.000008291801593         -0.0002            -0.01            -0.02
  Delta V^Pauli LDA-XC:                  0.000000000000003          0.0000             0.00             0.00
  Delta V^Pauli GGA-Exchange:           -0.000000000000000         -0.0000            -0.00            -0.00
  Delta V^Pauli GGA-Correlation:         0.000000000000000          0.0000             0.00             0.00
                                      --------------------     -----------       ----------      -----------
  Total Pauli Repulsion:                -0.000008291801591         -0.0002            -0.01            -0.02
 (Total Pauli Repulsion =
  Delta E^Pauli in BB paper)

Steric Interaction
  Pauli Repulsion (Delta E^Pauli):      -0.000008291801591         -0.0002            -0.01            -0.02
  Electrostatic Interaction:             0.000000000000000          0.0000             0.00             0.00
 (Electrostatic Interaction =
  Delta V_elstat in the BB paper)
                                      --------------------     -----------       ----------      -----------
  Total Steric Interaction:             -0.000008291801591         -0.0002            -0.01            -0.02
 (Total Steric Interaction =
  Delta E^0 in the BB paper)

Orbital Interactions
  A:                                    -0.134184236938536         -3.6513           -84.20          -352.30
                                      --------------------     -----------       ----------      -----------
  Total Orbital Interactions:           -0.134184236938536         -3.6513           -84.20          -352.30

Alternative Decomposition Orb.Int.
  Kinetic:                               0.215862728417234          5.8739           135.46           566.75
  Coulomb:                              -0.052456224385198         -1.4274           -32.92          -137.72
  XC:                                   -0.297590740970573         -8.0979          -186.74          -781.32
                                      --------------------     -----------       ----------      -----------
  Total Orbital Interactions:           -0.134184236938536         -3.6513           -84.20          -352.30

  Residu (E=Steric+OrbInt+Res):          0.000004624909384          0.0001             0.00             0.01
  Dispersion Energy:                     0.000000000000000          0.0000             0.00             0.00

Total Bonding Energy:                   -0.134187903830743         -3.6514           -84.20          -352.31


Summary of Bonding Energy (energy terms are taken from the energy decomposition above)
======================================================================================

  Electrostatic Energy:                  0.000000000000000          0.0000             0.00             0.00
  Kinetic Energy:                        0.215862728417234          5.8739           135.46           566.75
  Coulomb (Steric+OrbInt) Energy:       -0.052459891277406         -1.4275           -32.92          -137.73
  XC Energy:                            -0.297590740970570         -8.0979          -186.74          -781.32
  Dispersion Energy:                     0.000000000000000          0.0000             0.00             0.00
                                      --------------------     -----------       ----------      -----------
  Total Bonding Energy:                 -0.134187903830743         -3.6514           -84.20          -352.31


Correction terms (incorporated in energies above; only for test purposes):

1. Indication of fit-quality: 1st-order fit-correction used in the energy (hartree):   0.0005177703
2. Electrostatic (Fit correction):   0.0000000000



 =========================================
 F R A G M E N T   E N E R G Y   T E R M S  ***  (summed over all fragments)  ***
 =========================================
  

The energy terms below are (parts of) the Total Energy of the fragments from which the molecule
 is built.

Exchange and Correlation
  Exchange LDA:                        -25.334873434272900       -689.3970        -15897.87        -66516.70
  Exchange GGA:                         -2.128282864745181        -57.9135         -1335.52         -5587.81
  Correlation LDA:                       0.000000000000000          0.0000             0.00             0.00
  Correlation GGA:                      -0.697583339136313        -18.9822          -437.74         -1831.50
                                      --------------------     -----------       ----------      -----------
  Total XC:                            -28.160739638154393       -766.2927        -17671.13        -73936.01
1



 =======================================================
 S F O   P O P U L A T I O N S ,   M O   A N A L Y S I S
 =======================================================
  
 A Mulliken population analysis is performed on (input-)selected MOs. All populations refer to SFOs.
 BAS populations may have been printed directly after the SCF part.


                                       === A ===


 SFO contributions (%) per orbital
 (multiplication by the orbital occupation yields the SFO Gross Populations)

 Orb.:        1      2      3      4      5      6      7      8      9     10     11     12     13
 occup:     2.00   2.00   2.00   2.00   2.00   2.00   2.00   2.00   2.00   0.00   0.00   0.00   0.00
 CF+SFO     ----   ----   ----   ----   ----   ----   ----   ----   ----   ----   ----   ----   ----
 ------
      1:  100.00   0.00   0.00   0.00   0.00   0.00   0.00   0.00   0.00   0.00   0.00   0.00   0.00
      2:    0.00 100.00   0.00   0.00   0.00   0.00   0.00   0.00   0.00   0.00   0.00   0.00   0.00
      3:    0.00   0.00   0.00   0.00   0.00  99.89   0.00   0.00   0.00   0.11   0.00   0.00   0.00
      4:    0.00   0.00   0.00   0.00   0.00   0.11   0.00   0.00   0.00  99.85   0.00   0.00   0.00
      8:    0.00   0.00   1.20  49.57  49.23   0.00   0.00   0.00   0.00   0.00   0.00   0.00   0.00
      9:    0.00   0.00   0.00   0.00   0.00   0.00  29.18  69.88   0.05   0.00   0.87   0.00   0.02
     10:    0.00   0.00   0.00   0.00   0.00   0.00   0.26   0.63   0.00   0.00  97.08   0.04   1.94
     13:    0.00   0.00   0.77  48.48  50.75   0.00   0.00   0.00   0.00   0.00   0.00   0.00   0.00
     14:    0.00   0.00   0.00   0.00   0.00   0.00  69.79  29.23   0.09   0.00   0.02   0.00   0.87
     15:    0.00   0.00   0.00   0.00   0.00   0.00   0.63   0.26   0.00   0.00   1.96   0.30  96.79
     18:    0.00   0.00  98.03   1.95   0.02   0.00   0.00   0.00   0.00   0.00   0.00   0.00   0.00
     19:    0.00   0.00   0.00   0.00   0.00   0.00   0.13   0.00  98.97   0.00   0.00   0.89   0.00
     20:    0.00   0.00   0.00   0.00   0.00   0.00   0.00   0.00   0.89   0.00   0.02  98.71   0.33


 Summation over all MOs, multiplied by occupation: Total SFO Gross Populations in this Irrep
 ===========================================================================================

     2.00    2.00    2.00    0.00    0.00    0.00    0.00    2.00    1.98    0.02    0.00    0.00
     2.00    1.98    0.02    0.00    0.00    2.00    1.98    0.02    0.00    0.00    0.00    0.00
     0.00    0.00    0.00    0.00    0.00    0.00    0.00    0.00    0.00    0.00



 List of all MOs, ordered by energy, with the most significant SFO gross populations
 ===================================================================================

 Each percentage contribution in the table below corresponds to the indicated SFO.
 In general, a SFO may be a linear combination of several Fragment Orbitals on the same,
 or on symmetry-related Fragments. Only the first 'member' of such a combination is
 specified here. A full definition of all SFOs is given in an earlier part of the output.
 The numbering of the SFOs in this table does NOT include the Core Orbitals, and starts
 from one for each symmetry representation, as in the SFO definition list earlier.

       E(eV)  Occ       MO           %     SFO (first member)   E(eV)  Occ   Fragment
 -------------------------------------------------------------------------------------

     -10.473  2.00     6 A         99.89%     3 S             -20.362  2.00     1 Cl
                                    0.11%     4 S               5.347  0.00     1 Cl
       0.909  2.00     7 A         69.79%     2 P:y            -8.456  1.67     1 Cl
                                   29.18%     2 P:x            -8.456  1.67     1 Cl
       0.909  2.00     8 A         69.88%     2 P:x            -8.456  1.67     1 Cl
                                   29.23%     2 P:y            -8.456  1.67     1 Cl
       0.909  2.00     9 A         98.97%     2 P:z            -8.456  1.67     1 Cl
                                    0.89%     3 P:z             6.147  0.00     1 Cl
      12.914  0.00    10 A         99.85%     4 S               5.347  0.00     1 Cl
                                    0.11%     3 S             -20.362  2.00     1 Cl
      13.299  0.00    11 A         97.08%     3 P:x             6.147  0.00     1 Cl
                                    1.96%     3 P:y             6.147  0.00     1 Cl
      13.299  0.00    12 A         98.71%     3 P:z             6.147  0.00     1 Cl
                                    0.89%     2 P:z            -8.456  1.67     1 Cl
      13.299  0.00    13 A         96.79%     3 P:y             6.147  0.00     1 Cl
                                    1.94%     3 P:x             6.147  0.00     1 Cl



 =======================================================================
 Electrostatic potential at the Nuclei due to electrons and other nuclei
 =======================================================================
  
         Atom                  Potential
         ----                  ---------
     1)   Cl                 64.76756441
 
 
 ========================
 No memory problems found
 ========================
 
 Maximum number of active allocate calls:         724
 
 *******************************************************************************

                             A D F   E X I T
 NORMAL TERMINATION



 =================
 Timing Statistics
 =================
  
 Total Used :                     CPU=        0.84      System=        0.06     Elapsed=        0.94

 Calls  Section                     ( Mean, Percentage )
 ---------------------------------------------------------------------------------------------------
     3  ><      ................      0.00    0.00             0.00    1.54             0.00    0.16
     1  INIT    ................      0.47   55.46             0.02   38.46             0.50   52.64
     1  GEOMET  ................      0.03    3.56             0.00    4.61             0.03    3.65
     1  FRAGM   ................      0.01    1.54             0.01   13.85             0.03    3.15
     1  INPUTA  ................      0.00    0.00             0.00    0.00             0.00    0.05
     1  ATDEN   ................      0.01    0.59             0.00    1.54             0.01    0.68
     1  MAINSY  ................      0.01    1.31             0.00    1.54             0.01    1.47
     1  SYMFIT  ................      0.00    0.00             0.00    1.54             0.00    0.16
     1  CORORT  ................      0.00    0.12             0.00    0.00             0.00    0.05
     1  SYMORB  ................      0.00    0.36             0.00    0.00             0.00    0.39
     1  CLSMAT  ................      0.01    0.71             0.00    0.00             0.01    0.64
     1  ORTHON  ................      0.00    0.36             0.00    0.00             0.00    0.29
     1  GENPT   ................      0.03    3.09             0.00    1.54             0.03    2.95
     1  PTBAS   ................      0.01    0.95             0.00    1.54             0.01    0.95
     9  FOCKY   ................      0.02   17.46             0.00   13.85             0.02   16.93
     9  FOCKTR  ................      0.00    0.36             0.00    0.00             0.00    0.91
     9  SDIIS   ................      0.00    3.92             0.00    0.00             0.00    3.12
     1  COREPS  ................      0.01    1.31             0.00    3.08             0.01    1.41
     1  TOTEN   ................      0.03    3.92             0.01   10.77             0.04    4.35
     1  POPAN   ................      0.00    0.36             0.00    0.00             0.01    0.83
     1  DEBYE   ................      0.00    0.24             0.00    0.00             0.00    0.12
     1  INPUTE  ................      0.00    0.00             0.00    0.00             0.00    0.15
     1  SYMORE  ................      0.00    0.12             0.00    0.00             0.00    0.13
     1  METS    ................      0.00    0.00             0.00    1.54             0.00    0.07
     1  CETS    ................      0.00    0.36             0.00    0.00             0.00    0.26
     1  ELNRGY  ................      0.00    0.12             0.00    0.00             0.00    0.15
     1  POPUL   ................      0.01    0.95             0.00    1.54             0.01    1.48
     1  EXIT PROCEDURE .........      0.02    2.85             0.00    3.08             0.03    2.87


 Currently Open Files (EXIT00)
 ====================

 Unit    Access Format  Status   Type       Ident (file)
 -------------------------------------------------------
   3      SEQ    FORM   TRANSP  NORMAL      LOGFILE
                                          ( logfile )


 Buffered I/O statistics
 =======================
 Memory available:                     67108864
 Number of records fitting in memory:     16131
 Input :   1.8% of                        22244  *4k bytes
 Output:  12.8% of                         1658  *4k bytes
 Records from serial files evicted:           0
                    others evicted:           0
 Hash table lookups:      60058 with          0 conflicts (  0.00%)

 ***************************************************************************************************
 (LOGFILE)
 <May09-2019> <16:32:30>  ADF 2017  RunTime: May09-2019 16:32:30  Nodes: 1  Procs: 1
 <May09-2019> <16:32:30>  Chlorine (TZ2P)
 <May09-2019> <16:32:30>  RunType   : CREATE
 <May09-2019> <16:32:30>  Net Charge: 0 (Nuclei minus Electrons)
 <May09-2019> <16:32:30>  Symmetry  : ATOM
  Coordinates
    Atom         X           Y           Z   (Angstrom)
    1.Cl        0.000000    0.000000    0.000000
 <May09-2019> <16:32:30>  >>>> CORORT
 <May09-2019> <16:32:30>  >>>> CLSMAT
 <May09-2019> <16:32:30>  >>>> ORTHON
 <May09-2019> <16:32:30>  >>>> GENPT
 <May09-2019> <16:32:30>  Block Length=  93
 <May09-2019> <16:32:30>  >>>> PTBAS
 <May09-2019> <16:32:30>  >>>> CYCLE
 <May09-2019> <16:32:31>              |Error|         MaxErr       Wt(A-DIIS)
 <May09-2019> <16:32:31>      1      0.00000000      0.00000000
 <May09-2019> <16:32:31>      2     37.91809312     10.75416200    100.0
 <May09-2019> <16:32:31>      3     20.75770825      6.87179666    100.0
 <May09-2019> <16:32:31>      4      6.02140545      2.06148759    100.0
 <May09-2019> <16:32:31>      5      4.12282628      1.76233895    100.0
 <May09-2019> <16:32:31>      6      0.29713446      0.11190714    100.0
 <May09-2019> <16:32:31>      7      0.26827088      0.11225117    100.0
 <May09-2019> <16:32:31>      8      0.07155945      0.02618708     25.4
 <May09-2019> <16:32:31>      9      0.01306627      0.00522014      4.3
 <May09-2019> <16:32:31>     10      0.00048573      0.00020293      0.0
 <May09-2019> <16:32:31>     11      0.00000245      0.00000087      0.0
 <May09-2019> <16:32:31>     12      0.00000003      0.00000001      0.0
 <May09-2019> <16:32:31>     13      0.00000000      0.00000000      0.0
 <May09-2019> <16:32:31>  SCF converged
 <May09-2019> <16:32:31>     14      0.00000000      0.00000000      0.0
 <May09-2019> <16:32:31>  >>>> POPAN
 <May09-2019> <16:32:31>  >>>> DEBYE
 <May09-2019> <16:32:31>  NORMAL TERMINATION
 <May09-2019> <16:32:31>  END
 <May09-2019> <16:32:32>  ADF 2017  RunTime: May09-2019 16:32:32  Nodes: 1  Procs: 12
 <May09-2019> <16:32:32>  *** (NO TITLE) ***
 <May09-2019> <16:32:32>  RunType   : SINGLE POINT
 <May09-2019> <16:32:32>  Net Charge: -1 (Nuclei minus Electrons)
 <May09-2019> <16:32:32>  Symmetry  : NOSYM
 <May09-2019> <16:32:32>  >>>> FRAGM
  Coordinates
    Atom         X           Y           Z   (Angstrom)
    1.Cl       -6.094322    5.002916   -0.105735
 <May09-2019> <16:32:32>  >>>> CORORT
 <May09-2019> <16:32:32>  >>>> CLSMAT
 <May09-2019> <16:32:32>  >>>> ORTHON
 <May09-2019> <16:32:32>  >>>> GENPT
 <May09-2019> <16:32:32>  Block Length=  98
 <May09-2019> <16:32:32>  >>>> PTBAS
 <May09-2019> <16:32:32>  >>>> CYCLE
 <May09-2019> <16:32:32>              |Error|         MaxErr       Wt(A-DIIS)
 <May09-2019> <16:32:32>      1      0.00687673      0.00364913
 <May09-2019> <16:32:32>      2      0.42666864      0.18621722    100.0
 <May09-2019> <16:32:32>      3      0.31445613      0.09974112    100.0
 <May09-2019> <16:32:32>      4      0.14819785      0.04987274     49.4
 <May09-2019> <16:32:32>      5      0.04064567      0.01475261     13.9
 <May09-2019> <16:32:32>      6      0.00660076      0.00234336      1.4
 <May09-2019> <16:32:32>      7      0.00009848      0.00003380      0.0
 <May09-2019> <16:32:32>      8      0.00000015      0.00000005      0.0
 <May09-2019> <16:32:32>  SCF converged
 <May09-2019> <16:32:32>      9      0.00000000      0.00000000      0.0
 <May09-2019> <16:32:32>  >>>> TOTEN
 <May09-2019> <16:32:32>  >>>> POPAN
 <May09-2019> <16:32:32>  >>>> DEBYE
 <May09-2019> <16:32:32>  >>>> AMETS
 <May09-2019> <16:32:33>   Bond Energy          -0.13418790 a.u.
 <May09-2019> <16:32:33>   Bond Energy          -3.65143865 eV
 <May09-2019> <16:32:33>   Bond Energy         -84.20       kcal/mol
 <May09-2019> <16:32:33>  >>>> POPUL
 <May09-2019> <16:32:33>  NORMAL TERMINATION
 <May09-2019> <16:32:33>  END
