
Create O   file=TZ2P-O
XC
  GGA blyp
End
End Input

 *******************************************************************************
 *                                                                             *
 *  -------------------------------------                                      *
 *   Amsterdam Density Functional  (ADF)         development version           *
 *  -------------------------------------                                      *
 *                                               r61132 2017-09-08             *
 *                                                                             *
 *                                                                             *
 *                              =================                              *
 *                              |               |                              *
 *                              |     A D F     |                              *
 *                              |               |                              *
 *                              =================                              *
 *                                                                             *
 *                                                                             *
 *   Online information and documentation:  https://www.scm.com/support/       *
 *   E-mail:  support@scm.com   info@scm.com                                   *
 *                                                                             *
 *   Scientific publications using ADF results must be properly referenced     *
 *   See the User Manuals (or the web site) for recommended citations          *
 *   The terms and conditions of the End User License Agreement apply to       *
 *   the use of ADF, https://www.scm.com/license-terms/                        *
 *                                                                             *
 **********************  x86_64_linux_intel / intelmpi  ************************
 
 Licensed to: VU/FEW (+ SARA) / ALGEMEEN / Amsterdam / THE NETHERLANDS
 SCM User ID: u7668
  
 ADF development version  RunTime: May02-2019 17:04:34  Nodes: 1  Procs: 1

 Temporary files are created in /local/datastore0/tcst25/188740/kid_0.86mHnn

 Oxygen (TZ2P)



 ===========================
 A T T A C H E D   F I L E S
 ===========================
  
 CREATE - Data File:    TZ2P-O
                        Oxygen (TZ2P)



 ===============================
 M O D E L   P A R A M E T E R S
 ===============================
  
 DENSITY FUNCTIONAL POTENTIAL (scf)
    LDA:                               Exchange only                           == Not Default ==
    Gradient Corrections:              Becke88 LYP                             == Not Default ==

 SPIN  (restricted / unrestr.)
    Molecule:                          Restricted                               

 OTHER ASPECTS
    Relativistic Corrections:          ---                                      

    Nuclear Charge Density Model:      Point Charge Nuclei                      
    Core Treatment:                    Frozen Orbital(s)                        

    Hyperfine or Zeeman Interaction:   ---                                      



 =====================================
 S Y M M E T R Y ,   E L E C T R O N S
 =====================================
  
 Symmetry: ATOM

 Irreducible Representations, including subspecies
 -------------------------------------------------
 S
 P:x  P:y  P:z
 D:z2  D:x2-y2  D:xy  D:xz  D:yz
 F:z3  F:z  F:xyz  F:z2x  F:z2y  F:x  F:y


 Configuration of Valence Electrons
 ==================================

          Occupation Numbers
          -------------------------------------------------
 S        2*2
 P        4
 D        0
 F        0
          -------------------------------------------------

 Total:   8

 Net Charge: 0 (Nuclei minus Electrons)

 Preset values for MO occupations will be applied through SCF cycle no. 1000000
 Thereafter, the program will assign electrons to MOs that are spatially
 similar to the occupied MOs in a "reference" cycle ("KeepOrbitals").
 The reference cycle is always the PREVIOUS cycle: it will evolve with
 the SCF procedure.



 ================================
 (Slater-type)  F U N C T I O N S  ***  (Basis and Fit)  ***
 ================================
  

 Atom Type    1  (O)
 ==============

 Valence Basis Sets:  10
 -----------------------
   1 S    9.800000
   1 S    6.800000
   2 S    7.580000
   2 S    2.880000
   2 S    1.720000
   2 P    4.080000
   2 P    2.080000
   2 P    1.120000
   3 D    2.000000
   4 F    3.000000


 BAS: List of all Elementary Cartesian Basis Functions
 =====================================================

 The numbering in the list below (to the right of the function characteristics) is referred
 to in print-outs of MO eigenvectors and Mulliken populations in the BAS representation
 (as contrasted to the SFO representation).

 Notes:
 1. The functions are characterized by a polynomial prefactor (powers of x,y,z and r) and
    an exponential decay factor alpha.
 2. Since the basis sets are specific for an atom TYPE, the individual functions occur on
    all atoms of that type.
 3. The word 'Core' in the left margin signals that it is a Core Function (CF) : not a
    degree of freedom in the valence set, but only used to ensure orthogonalization of
    the other valence basis functions on the frozen Core Orbitals.


 (power of) X  Y  Z  R     Alpha  on Atom
            ==========     =====     ==========

 O                                    1
                                  ---------------------------------------------------------------------------
            0  0  0  0     9.800      1
            0  0  0  0     6.800      2
            0  0  0  1     7.580      3
            0  0  0  1     2.880      4
            0  0  0  1     1.720      5
            1  0  0  0     4.080      6
            0  1  0  0     4.080      7
            0  0  1  0     4.080      8
            1  0  0  0     2.080      9
            0  1  0  0     2.080     10
            0  0  1  0     2.080     11
            1  0  0  0     1.120     12
            0  1  0  0     1.120     13
            0  0  1  0     1.120     14
            2  0  0  0     2.000     15
            1  1  0  0     2.000     16
            1  0  1  0     2.000     17
            0  2  0  0     2.000     18
            0  1  1  0     2.000     19
            0  0  2  0     2.000     20
            3  0  0  0     3.000     21
            2  1  0  0     3.000     22
            2  0  1  0     3.000     23
            1  2  0  0     3.000     24
            1  1  1  0     3.000     25
            1  0  2  0     3.000     26
            0  3  0  0     3.000     27
            0  2  1  0     3.000     28
            0  1  2  0     3.000     29
            0  0  3  0     3.000     30

 Total number of charge fitting functions (nprimf)        84
 Total number of Cartesian basis functions (naos)         30
 Total number of Cartesian core functions  (ncos)          0



 BAS: List of all Elementary Cartesian Basis Functions
 =====================================================

 The numbering in the list below (to the right of the function characteristics) is referred
 to in print-outs of MO eigenvectors and Mulliken populations in the BAS representation
 (as contrasted to the SFO representation).

 Notes:
 1. The functions are characterized by a polynomial prefactor (powers of x,y,z and r) and
    an exponential decay factor alpha.
 2. Since the basis sets are specific for an atom TYPE, the individual functions occur on
    all atoms of that type.
 3. The word 'Core' in the left margin signals that it is a Core Function (CF) : not a
    degree of freedom in the valence set, but only used to ensure orthogonalization of
    the other valence basis functions on the frozen Core Orbitals.


 (power of) X  Y  Z  R     Alpha  on Atom
            ==========     =====     ==========

 O                                    1
                                  ---------------------------------------------------------------------------
            0  0  0  0     9.800      1
            0  0  0  0     6.800      2
            0  0  0  1     7.580      3
            0  0  0  1     2.880      4
            0  0  0  1     1.720      5
            1  0  0  0     4.080      6
            0  1  0  0     4.080      7
            0  0  1  0     4.080      8
            1  0  0  0     2.080      9
            0  1  0  0     2.080     10
            0  0  1  0     2.080     11
            1  0  0  0     1.120     12
            0  1  0  0     1.120     13
            0  0  1  0     1.120     14
            2  0  0  0     2.000     15
            1  1  0  0     2.000     16
            1  0  1  0     2.000     17
            0  2  0  0     2.000     18
            0  1  1  0     2.000     19
            0  0  2  0     2.000     20
            3  0  0  0     3.000     21
            2  1  0  0     3.000     22
            2  0  1  0     3.000     23
            1  2  0  0     3.000     24
            1  1  1  0     3.000     25
            1  0  2  0     3.000     26
            0  3  0  0     3.000     27
            0  2  1  0     3.000     28
            0  1  2  0     3.000     29
            0  0  3  0     3.000     30
1
 ***************************************************************************************************



                                              ***********************
                                              *  T E C H N I C A L  *
                                              ***********************
  



 =============================================================
 P A R A L L E L I Z A T I O N  and  V E C T O R I Z A T I O N
 =============================================================
  
 Nr of parallel processes:                                1
 Maximum vector length in NumInt loops:                 128

 IO buffersize (Mb):                                     64.000000



 =====================
 S C F   U P D A T E S
 =====================
  
 Max. nr. of cycles:                               300
 Convergence criterion:                              0.0000000100
   secondary criterion:                              0.0000000100

 Mix parameter (when DIIS does not apply):           0.2000000000
 Special mix parameter for the first cycle:          1.0000000000
 Mixed ADIIS+DIIS will be used
    Max number of expansion vectors:                10
    Pure ADIIS when Max([F,P]) is above              0.1000000000
    Pure DIIS when Max([F,P]) is below               0.0010000000
 Automatic ElectronSmearing (in case of problematic SCF convergence) disabled



 =================
 P R E C I S I O N  ***  (General: NumInt, NeglectFunctionTails, ...)  ***
 =================
  

 NumInt:           Target precision:                12.0000000000
 -------           Initial precision:               10.0000000000
                   Min. precision (optimization):   10.0000000000

 Neglect Functions:          Basis functions:        0.1000000000E-13
 ------------------          Fit functions:          0.1000000000E-13



 ===========================
 L I N E A R   S C A L I N G
 ===========================
  

 Cut-off radii density fit:                        0.1000000000E-97
 Overlap cut-off criterion AO matrix elements:     0.1000000000E-97
 Cut-offs for Coulomb potential and fitted density:0.1000000000E-97
 Cut-off criterion for Coulomb multipole terms:    0.1000000000E-97
 Progressive Convergence parameter:                 0.000000000    
1
 ***************************************************************************************************



                                            ***************************
                                            *  C O M P U T A T I O N  *
                                            ***************************
  

 Number of elements of the density matrix on this node (used, total):       465       465



 ===========================================
 Numerical Integration : Fuzzy Cells (Becke)
 ===========================================
  
 Becke grid quality: VERYGOOD       
  
 Lebedev angular grid order:             min:  13 max:  41
 Nr. of radial points:                   min:  68 max:  68

 Total nr. of points:         68
 Nr. of blocks:                1
 Block length:                68
 Nr. of dummy points:          0


 Test of Precision of the Numerical Integration Grid
 ===================================================

 Integral of the Total Core Density:                   0.00000000000000



 ========================
 Density Fitting (zlmFit)
 ========================
  
 ZlmFit Fit Quality: VERYGOOD       
  
 Max L-expansion:                        min:   0 max:   0
 Nr. of radial interpolation points:     min: 180 max: 180



 =====
 S C F  ***  ScaSCF  ***
 =====
  

 CYCLE    1
 SCF Error: norm([F,P])=      0.000000000000, max([F,P])=      0.000000000000
 orbitals (Q,E):
 ---------------
 S :1...5            ( 2.00   -31.9999)  ( 2.00    -7.9363)  ( 0.00    -3.4636)  ( 0.00     4.3191)
                     ( 0.00   110.5486)
 P :1...3            ( 4.00    -7.9991)  ( 0.00    -3.4855)  ( 0.00    -1.8903)
 D :1...1            ( 0.00    -3.3333)
 F :1...1            ( 0.00    -1.5000)

 CYCLE    2
  SDIIS (wt  0.000):  1.0000 -0.0000
 A-DIIS (wt  1.000):  0.0000  1.0000
  DIIS coefficients:  0.0000  1.0000
 SCF Error: norm([F,P])=      8.765745414074, max([F,P])=      5.518031311555
 orbitals (Q,E):
 ---------------
 S :1...3            ( 2.00   -14.5579)  ( 2.00    -0.0124)  ( 0.00     1.8192)
 P :1...2            ( 4.00     0.2183)  ( 0.00     1.2385)
 D :1...1            ( 0.00     1.5388)
 F :1...1            ( 0.00     3.9464)

 CYCLE    3
  SDIIS (wt  0.000):  0.2278  0.7722
 A-DIIS (wt  1.000):  0.3148  0.6852
  DIIS coefficients:  0.3148  0.6852
 SCF Error: norm([F,P])=      3.585499450444, max([F,P])=      2.499410108106
 orbitals (Q,E):
 ---------------
 S :1...3            ( 2.00   -19.8063)  ( 2.00    -1.5198)  ( 0.00     0.3996)
 P :1...2            ( 4.00    -0.9763)  ( 0.00     0.1325)
 D :1...1            ( 0.00     0.6540)
 F :1...1            ( 0.00     2.8642)

 CYCLE    4
  SDIIS (wt  0.000): -0.0456  0.1707  0.8749
 A-DIIS (wt  1.000):  0.0000  0.0000  1.0000
  DIIS coefficients:  0.0000  0.0000  1.0000
 SCF Error: norm([F,P])=      1.147919112368, max([F,P])=      0.583019620058
 orbitals (Q,E):
 ---------------
 S :1...3            ( 2.00   -18.0523)  ( 2.00    -0.5465)  ( 0.00     1.0349)
 P :1...2            ( 4.00    -0.0477)  ( 0.00     0.5307)
 D :1...1            ( 0.00     1.2443)
 F :1...1            ( 0.00     3.5731)

 CYCLE    5
  SDIIS (wt  0.000): -0.0195 -0.0760  0.5845  0.5110
 A-DIIS (wt  1.000):  0.0000  0.0000  0.6414  0.3586
  DIIS coefficients:  0.0000  0.0000  0.6414  0.3586
 SCF Error: norm([F,P])=      1.519585468023, max([F,P])=      0.840542006159
 orbitals (Q,E):
 ---------------
 S :1...3            ( 2.00   -18.8182)  ( 2.00    -0.8502)  ( 0.00     0.8091)
 P :1...2            ( 4.00    -0.3077)  ( 0.00     0.3582)
 D :1...1            ( 0.00     1.0753)
 F :1...1            ( 0.00     3.3669)

 CYCLE    6
  SDIIS (wt  0.000):  0.0038 -0.0006  0.0668 -0.0496  0.9795
 A-DIIS (wt  1.000):  0.0000  0.0000  0.0000  0.0000  1.0000
  DIIS coefficients:  0.0000  0.0000  0.0000  0.0000  1.0000
 SCF Error: norm([F,P])=      0.178828926625, max([F,P])=      0.104242033505
 orbitals (Q,E):
 ---------------
 S :1...3            ( 2.00   -19.0541)  ( 2.00    -0.9245)  ( 0.00     0.7610)
 P :1...2            ( 4.00    -0.3806)  ( 0.00     0.3267)
 D :1...1            ( 0.00     1.0451)
 F :1...1            ( 0.00     3.3284)

 CYCLE    7
  SDIIS (wt  0.000): -0.0003  0.0004 -0.0182  0.0130  0.4190  0.5861
 A-DIIS (wt  1.000):  0.0000  0.0000  0.0000  0.0000  0.5807  0.4193
  DIIS coefficients:  0.0000  0.0000  0.0000  0.0000  0.5807  0.4193
 SCF Error: norm([F,P])=      0.200125290981, max([F,P])=      0.113649127569
 orbitals (Q,E):
 ---------------
 S :1...3            ( 2.00   -18.9379)  ( 2.00    -0.8781)  ( 0.00     0.7909)
 P :1...2            ( 4.00    -0.3354)  ( 0.00     0.3452)
 D :1...1            ( 0.00     1.0687)
 F :1...1            ( 0.00     3.3572)

 CYCLE    8
  SDIIS (wt  0.910): -0.0000  0.0002  0.0044 -0.0011 -0.0192 -0.1454  1.1612
 A-DIIS (wt  0.090):  0.0000  0.0000  0.0000  0.0000  0.0000  0.0000  1.0000
  DIIS coefficients: -0.0000  0.0002  0.0040 -0.0010 -0.0175 -0.1323  1.1466
 SCF Error: norm([F,P])=      0.016951777154, max([F,P])=      0.009947196225
 orbitals (Q,E):
 ---------------
 S :1...3            ( 2.00   -18.9255)  ( 2.00    -0.8739)  ( 0.00     0.7936)
 P :1...2            ( 4.00    -0.3314)  ( 0.00     0.3469)
 D :1...1            ( 0.00     1.0707)
 F :1...1            ( 0.00     3.3597)

 CYCLE    9
  SDIIS (wt  1.000): -0.0000  0.0000  0.0000 -0.0001  0.0003  0.0067  0.0145  0.9786
  DIIS coefficients: -0.0000  0.0000  0.0000 -0.0001  0.0003  0.0067  0.0145  0.9786
 SCF Error: norm([F,P])=      0.001748429775, max([F,P])=      0.000984374868
 orbitals (Q,E):
 ---------------
 S :1...3            ( 2.00   -18.9266)  ( 2.00    -0.8743)  ( 0.00     0.7933)
 P :1...2            ( 4.00    -0.3318)  ( 0.00     0.3467)
 D :1...1            ( 0.00     1.0705)
 F :1...1            ( 0.00     3.3595)

 CYCLE   10
  SDIIS (wt  1.000): -0.0000 -0.0000 -0.0000 -0.0000  0.0000  0.0001 -0.0011 -0.0034  1.0043
  DIIS coefficients: -0.0000 -0.0000 -0.0000 -0.0000  0.0000  0.0001 -0.0011 -0.0034  1.0043
 SCF Error: norm([F,P])=      0.000001425750, max([F,P])=      0.000000713890
 orbitals (Q,E):
 ---------------
 S :1...3            ( 2.00   -18.9266)  ( 2.00    -0.8743)  ( 0.00     0.7933)
 P :1...2            ( 4.00    -0.3318)  ( 0.00     0.3467)
 D :1...1            ( 0.00     1.0705)
 F :1...1            ( 0.00     3.3595)

 CYCLE   11
  SDIIS (wt  1.000):  0.0000 -0.0000 -0.0000 -0.0001 -0.0046  1.0047
  DIIS coefficients:  0.0000 -0.0000 -0.0000 -0.0001 -0.0046  1.0047
 SCF Error: norm([F,P])=      0.000000048697, max([F,P])=      0.000000022967
 orbitals (Q,E):
 ---------------
 S :1...3            ( 2.00   -18.9266)  ( 2.00    -0.8743)  ( 0.00     0.7933)
 P :1...2            ( 4.00    -0.3318)  ( 0.00     0.3467)
 D :1...1            ( 0.00     1.0705)
 F :1...1            ( 0.00     3.3595)

 CYCLE   12
  SDIIS (wt  1.000):  0.0000  0.0003  0.0049  0.9948
  DIIS coefficients:  0.0000  0.0003  0.0049  0.9948
 SCF Error: norm([F,P])=      0.000000002390, max([F,P])=      0.000000001167
 orbitals (Q,E):
 ---------------
 S :1...3            ( 2.00   -18.9266)  ( 2.00    -0.8743)  ( 0.00     0.7933)
 P :1...2            ( 4.00    -0.3318)  ( 0.00     0.3467)
 D :1...1            ( 0.00     1.0705)
 F :1...1            ( 0.00     3.3595)

 SCF CONVERGED

 CYCLE   13
1
 ***************************************************************************************************



                                                *******************
                                                *  R E S U L T S  *
                                                *******************
  
 *** Setting up for NEW gradients in Focky
 *** Using FIT density in Focky

 Orbital Energies, per Irrep and Spin:
 ======================================
                        Occup              E (au)              E (eV)       Diff (eV) with prev. cycle
                        -----      --------------------        ------       --------------------------
 S
               1        2.000     -0.18926622910087E+02      -515.020               5.76E-10
               2        2.000     -0.87432318445324E+00       -23.792               3.91E-10
               3        0.000      0.79334608634550E+00        21.588
               4        0.000      0.13459763470982E+02       366.259
               5        0.000      0.12310776301335E+03      3349.933
 P
               1        4.000     -0.33177161342559E+00        -9.028               3.71E-10
               2        0.000      0.34673871865826E+00         9.435
               3        0.000      0.38246989192600E+01       104.075
 D
               1        0.000      0.10704889823391E+01        29.129
 F
               1        0.000      0.33594552407685E+01        91.415


 Partially Occupied:
               1 P                -0.33177161342559E+00
  
 HOMO :        2 S                -0.87432318445324E+00
 LUMO :        2 P                 0.34673871865826E+00
  


 Orbital Energies, all Irreps
 ========================================

 Irrep        no.  (spin)   Occup              E (au)                E (eV)
 ---------------------------------------------------------------------------
 S             1             2.00       -0.18926622910087E+02      -515.0196
 S             2             2.00       -0.87432318445324E+00       -23.7915
 P             1             4.00       -0.33177161342559E+00        -9.0280
 P             2             0.00        0.34673871865826E+00         9.4352
 S             3             0.00        0.79334608634550E+00        21.5880
 D             1             0.00        0.10704889823391E+01        29.1295
 F             1             0.00        0.33594552407685E+01        91.4154
 P             3             0.00        0.38246989192600E+01       104.0754
 S             4             0.00        0.13459763470982E+02       366.2588
 S             5             0.00        0.12310776301335E+03      3349.9327


 All Electron Calculation, thus no Orbital Energies of the Core Orbitals are calculated



 =======================================
 M U L L I K E N   P O P U L A T I O N S
 =======================================
  
 The survey below gives for each atom:
 a) the total charge (Z minus electrons)
 b) the net spin polarization (nr of electrons spin-A minus spin-B)
 c) for each spin the atomic electron valence density (integrated) per L-value.

 Atom              Charge    Spin density          S         P         D         F
 ----              ------    ------------       ------    ------    ------    ------
 1 O               0.0000                       4.0000    4.0000    0.0000    0.0000

 Populations of individual BAS functions
 ----------------------------------------
 1 O            0.6447  1.3214  0.0008  1.1425  0.8905  0.2537  0.2537  0.2537  0.7364  0.7364
                0.7364  0.3432  0.3432  0.3432  0.0000  0.0000  0.0000  0.0000  0.0000  0.0000
                0.0000  0.0000  0.0000  0.0000  0.0000  0.0000  0.0000  0.0000  0.0000  0.0000

 Gross Charges per Atom (Z minus electrons)
 ==========================================
             0.0000
 Net Total:  0.00000000



 =======================================================================
 Electrostatic potential at the Nuclei due to electrons and other nuclei
 =======================================================================
  
         Atom                  Potential
         ----                  ---------
     1)   O                  22.23872615
 
 
 ========================
 No memory problems found
 ========================
 
 Maximum number of active allocate calls:         447
 
 *******************************************************************************

                             A D F   E X I T
 NORMAL TERMINATION



 =================
 Timing Statistics
 =================
  
 Total Used :                     CPU=        0.82      System=        0.04     Elapsed=        0.87

 Calls  Section                     ( Mean, Percentage )
 ---------------------------------------------------------------------------------------------------
     3  ><      ................      0.00    0.24             0.00    0.00             0.00    0.16
     1  INIT    ................      0.01    1.46             0.02   55.26             0.04    4.81
     1  GEOMET  ................      0.01    1.10             0.00    7.89             0.01    1.44
     1  INPUTA  ................      0.00    0.24             0.00    0.00             0.00    0.29
     1  MAINSY  ................      0.00    0.49             0.00   13.16             0.01    1.07
     1  SYMFIT  ................      0.00    0.24             0.00    0.00             0.00    0.14
     1  CORORT  ................      0.00    0.00             0.00    0.00             0.00    0.05
     1  SYMORB  ................      0.00    0.12             0.00    0.00             0.00    0.12
     1  CLSMAT  ................      0.01    1.10             0.00    0.00             0.01    1.03
     1  ORTHON  ................      0.00    0.24             0.00    0.00             0.00    0.28
     1  GENPT   ................      0.02    2.56             0.00    0.00             0.02    2.41
     1  PTBAS   ................      0.01    0.85             0.00    0.00             0.01    0.71
    13  FOCKY   ................      0.05   76.10             0.00   13.16             0.05   72.39
    13  FOCKTR  ................      0.00    2.07             0.00    2.63             0.00    2.13
    13  SDIIS   ................      0.00    4.02             0.00    2.63             0.00    4.08
     1  COREPS  ................      0.04    4.63             0.00    0.00             0.04    4.40
     1  POPAN   ................      0.01    0.98             0.00    2.63             0.01    1.04
     1  DEBYE   ................      0.00    0.12             0.00    0.00             0.00    0.11
     1  EXIT PROCEDURE .........      0.03    3.41             0.00    2.63             0.03    3.34


 Currently Open Files (EXIT00)
 ====================

 Unit    Access Format  Status   Type       Ident (file)
 -------------------------------------------------------
   3      SEQ    FORM   TRANSP  NORMAL      LOGFILE
                                          ( logfile )


 Buffered I/O statistics
 =======================
 Memory available:                     67108864
 Number of records fitting in memory:     16131
 Input :   0.1% of                        27846  *4k bytes
 Output:  13.4% of                         1391  *4k bytes
 Records from serial files evicted:           0
                    others evicted:           0
 Hash table lookups:      71928 with          0 conflicts (  0.00%)

 ***************************************************************************************************
 (LOGFILE)
 <May02-2019> <17:04:34>  ADF development version  RunTime: May02-2019 17:04:34  Nodes: 1  Procs: 1
 <May02-2019> <17:04:34>  Oxygen (TZ2P)
 <May02-2019> <17:04:34>  RunType   : CREATE
 <May02-2019> <17:04:34>  Net Charge: 0 (Nuclei minus Electrons)
 <May02-2019> <17:04:34>  Symmetry  : ATOM
  Coordinates
    Atom         X           Y           Z   (Angstrom)
    1.O         0.000000    0.000000    0.000000
 <May02-2019> <17:04:34>  >>>> CORORT
 <May02-2019> <17:04:34>  >>>> CLSMAT
 <May02-2019> <17:04:34>  >>>> ORTHON
 <May02-2019> <17:04:34>  >>>> GENPT
 <May02-2019> <17:04:34>  Block Length=  68
 <May02-2019> <17:04:34>  >>>> PTBAS
 <May02-2019> <17:04:34>  >>>> CYCLE
 <May02-2019> <17:04:34>              |Error|         MaxErr       Wt(A-DIIS)
 <May02-2019> <17:04:34>      1      0.00000000      0.00000000
 <May02-2019> <17:04:34>      2      8.76574541      5.51803131    100.0
 <May02-2019> <17:04:34>      3      3.58549945      2.49941011    100.0
 <May02-2019> <17:04:34>      4      1.14791911      0.58301962    100.0
 <May02-2019> <17:04:34>      5      1.51958547      0.84054201    100.0
 <May02-2019> <17:04:34>      6      0.17882893      0.10424203    100.0
 <May02-2019> <17:04:34>      7      0.20012529      0.11364913    100.0
 <May02-2019> <17:04:34>      8      0.01695178      0.00994720      9.0
 <May02-2019> <17:04:34>      9      0.00174843      0.00098437      0.0
 <May02-2019> <17:04:34>     10      0.00000143      0.00000071      0.0
 <May02-2019> <17:04:34>     11      0.00000005      0.00000002      0.0
 <May02-2019> <17:04:34>     12      0.00000000      0.00000000      0.0
 <May02-2019> <17:04:34>  SCF converged
 <May02-2019> <17:04:34>     13      0.00000000      0.00000000      0.0
 <May02-2019> <17:04:34>  >>>> POPAN
 <May02-2019> <17:04:34>  >>>> DEBYE
 <May02-2019> <17:04:35>  NORMAL TERMINATION
 <May02-2019> <17:04:35>  END

Create C   file=TZ2P-C
XC
  GGA blyp
End
End Input

 *******************************************************************************
 *                                                                             *
 *  -------------------------------------                                      *
 *   Amsterdam Density Functional  (ADF)         development version           *
 *  -------------------------------------                                      *
 *                                               r61132 2017-09-08             *
 *                                                                             *
 *                                                                             *
 *                              =================                              *
 *                              |               |                              *
 *                              |     A D F     |                              *
 *                              |               |                              *
 *                              =================                              *
 *                                                                             *
 *                                                                             *
 *   Online information and documentation:  https://www.scm.com/support/       *
 *   E-mail:  support@scm.com   info@scm.com                                   *
 *                                                                             *
 *   Scientific publications using ADF results must be properly referenced     *
 *   See the User Manuals (or the web site) for recommended citations          *
 *   The terms and conditions of the End User License Agreement apply to       *
 *   the use of ADF, https://www.scm.com/license-terms/                        *
 *                                                                             *
 **********************  x86_64_linux_intel / intelmpi  ************************
 
 Licensed to: VU/FEW (+ SARA) / ALGEMEEN / Amsterdam / THE NETHERLANDS
 SCM User ID: u7668
  
 ADF development version  RunTime: May02-2019 17:04:35  Nodes: 1  Procs: 1

 Temporary files are created in /local/datastore0/tcst25/188740/kid_0.bfoqnj

 Carbon (TZ2P)



 ===========================
 A T T A C H E D   F I L E S
 ===========================
  
 CREATE - Data File:    TZ2P-C
                        Carbon (TZ2P)



 ===============================
 M O D E L   P A R A M E T E R S
 ===============================
  
 DENSITY FUNCTIONAL POTENTIAL (scf)
    LDA:                               Exchange only                           == Not Default ==
    Gradient Corrections:              Becke88 LYP                             == Not Default ==

 SPIN  (restricted / unrestr.)
    Molecule:                          Restricted                               

 OTHER ASPECTS
    Relativistic Corrections:          ---                                      

    Nuclear Charge Density Model:      Point Charge Nuclei                      
    Core Treatment:                    Frozen Orbital(s)                        

    Hyperfine or Zeeman Interaction:   ---                                      



 =====================================
 S Y M M E T R Y ,   E L E C T R O N S
 =====================================
  
 Symmetry: ATOM

 Irreducible Representations, including subspecies
 -------------------------------------------------
 S
 P:x  P:y  P:z
 D:z2  D:x2-y2  D:xy  D:xz  D:yz
 F:z3  F:z  F:xyz  F:z2x  F:z2y  F:x  F:y


 Configuration of Valence Electrons
 ==================================

          Occupation Numbers
          -------------------------------------------------
 S        2*2
 P        2
 D        0
 F        0
          -------------------------------------------------

 Total:   6

 Net Charge: 0 (Nuclei minus Electrons)

 Preset values for MO occupations will be applied through SCF cycle no. 1000000
 Thereafter, the program will assign electrons to MOs that are spatially
 similar to the occupied MOs in a "reference" cycle ("KeepOrbitals").
 The reference cycle is always the PREVIOUS cycle: it will evolve with
 the SCF procedure.



 ================================
 (Slater-type)  F U N C T I O N S  ***  (Basis and Fit)  ***
 ================================
  

 Atom Type    1  (C)
 ==============

 Valence Basis Sets:  10
 -----------------------
   1 S    7.680000
   1 S    5.000000
   2 S    1.280000
   2 S    2.100000
   2 S    4.600000
   2 P    0.820000
   2 P    1.480000
   2 P    2.940000
   3 D    2.200000
   4 F    3.300000


 BAS: List of all Elementary Cartesian Basis Functions
 =====================================================

 The numbering in the list below (to the right of the function characteristics) is referred
 to in print-outs of MO eigenvectors and Mulliken populations in the BAS representation
 (as contrasted to the SFO representation).

 Notes:
 1. The functions are characterized by a polynomial prefactor (powers of x,y,z and r) and
    an exponential decay factor alpha.
 2. Since the basis sets are specific for an atom TYPE, the individual functions occur on
    all atoms of that type.
 3. The word 'Core' in the left margin signals that it is a Core Function (CF) : not a
    degree of freedom in the valence set, but only used to ensure orthogonalization of
    the other valence basis functions on the frozen Core Orbitals.


 (power of) X  Y  Z  R     Alpha  on Atom
            ==========     =====     ==========

 C                                    1
                                  ---------------------------------------------------------------------------
            0  0  0  0     7.680      1
            0  0  0  0     5.000      2
            0  0  0  1     1.280      3
            0  0  0  1     2.100      4
            0  0  0  1     4.600      5
            1  0  0  0     0.820      6
            0  1  0  0     0.820      7
            0  0  1  0     0.820      8
            1  0  0  0     1.480      9
            0  1  0  0     1.480     10
            0  0  1  0     1.480     11
            1  0  0  0     2.940     12
            0  1  0  0     2.940     13
            0  0  1  0     2.940     14
            2  0  0  0     2.200     15
            1  1  0  0     2.200     16
            1  0  1  0     2.200     17
            0  2  0  0     2.200     18
            0  1  1  0     2.200     19
            0  0  2  0     2.200     20
            3  0  0  0     3.300     21
            2  1  0  0     3.300     22
            2  0  1  0     3.300     23
            1  2  0  0     3.300     24
            1  1  1  0     3.300     25
            1  0  2  0     3.300     26
            0  3  0  0     3.300     27
            0  2  1  0     3.300     28
            0  1  2  0     3.300     29
            0  0  3  0     3.300     30

 Total number of charge fitting functions (nprimf)        84
 Total number of Cartesian basis functions (naos)         30
 Total number of Cartesian core functions  (ncos)          0



 BAS: List of all Elementary Cartesian Basis Functions
 =====================================================

 The numbering in the list below (to the right of the function characteristics) is referred
 to in print-outs of MO eigenvectors and Mulliken populations in the BAS representation
 (as contrasted to the SFO representation).

 Notes:
 1. The functions are characterized by a polynomial prefactor (powers of x,y,z and r) and
    an exponential decay factor alpha.
 2. Since the basis sets are specific for an atom TYPE, the individual functions occur on
    all atoms of that type.
 3. The word 'Core' in the left margin signals that it is a Core Function (CF) : not a
    degree of freedom in the valence set, but only used to ensure orthogonalization of
    the other valence basis functions on the frozen Core Orbitals.


 (power of) X  Y  Z  R     Alpha  on Atom
            ==========     =====     ==========

 C                                    1
                                  ---------------------------------------------------------------------------
            0  0  0  0     7.680      1
            0  0  0  0     5.000      2
            0  0  0  1     1.280      3
            0  0  0  1     2.100      4
            0  0  0  1     4.600      5
            1  0  0  0     0.820      6
            0  1  0  0     0.820      7
            0  0  1  0     0.820      8
            1  0  0  0     1.480      9
            0  1  0  0     1.480     10
            0  0  1  0     1.480     11
            1  0  0  0     2.940     12
            0  1  0  0     2.940     13
            0  0  1  0     2.940     14
            2  0  0  0     2.200     15
            1  1  0  0     2.200     16
            1  0  1  0     2.200     17
            0  2  0  0     2.200     18
            0  1  1  0     2.200     19
            0  0  2  0     2.200     20
            3  0  0  0     3.300     21
            2  1  0  0     3.300     22
            2  0  1  0     3.300     23
            1  2  0  0     3.300     24
            1  1  1  0     3.300     25
            1  0  2  0     3.300     26
            0  3  0  0     3.300     27
            0  2  1  0     3.300     28
            0  1  2  0     3.300     29
            0  0  3  0     3.300     30
1
 ***************************************************************************************************



                                              ***********************
                                              *  T E C H N I C A L  *
                                              ***********************
  



 =============================================================
 P A R A L L E L I Z A T I O N  and  V E C T O R I Z A T I O N
 =============================================================
  
 Nr of parallel processes:                                1
 Maximum vector length in NumInt loops:                 128

 IO buffersize (Mb):                                     64.000000



 =====================
 S C F   U P D A T E S
 =====================
  
 Max. nr. of cycles:                               300
 Convergence criterion:                              0.0000000100
   secondary criterion:                              0.0000000100

 Mix parameter (when DIIS does not apply):           0.2000000000
 Special mix parameter for the first cycle:          1.0000000000
 Mixed ADIIS+DIIS will be used
    Max number of expansion vectors:                10
    Pure ADIIS when Max([F,P]) is above              0.1000000000
    Pure DIIS when Max([F,P]) is below               0.0010000000
 Automatic ElectronSmearing (in case of problematic SCF convergence) disabled



 =================
 P R E C I S I O N  ***  (General: NumInt, NeglectFunctionTails, ...)  ***
 =================
  

 NumInt:           Target precision:                12.0000000000
 -------           Initial precision:               10.0000000000
                   Min. precision (optimization):   10.0000000000

 Neglect Functions:          Basis functions:        0.1000000000E-13
 ------------------          Fit functions:          0.1000000000E-13



 ===========================
 L I N E A R   S C A L I N G
 ===========================
  

 Cut-off radii density fit:                        0.1000000000E-97
 Overlap cut-off criterion AO matrix elements:     0.1000000000E-97
 Cut-offs for Coulomb potential and fitted density:0.1000000000E-97
 Cut-off criterion for Coulomb multipole terms:    0.1000000000E-97
 Progressive Convergence parameter:                 0.000000000    
1
 ***************************************************************************************************



                                            ***************************
                                            *  C O M P U T A T I O N  *
                                            ***************************
  

 Number of elements of the density matrix on this node (used, total):       465       465



 ===========================================
 Numerical Integration : Fuzzy Cells (Becke)
 ===========================================
  
 Becke grid quality: VERYGOOD       
  
 Lebedev angular grid order:             min:  13 max:  41
 Nr. of radial points:                   min:  72 max:  72

 Total nr. of points:         72
 Nr. of blocks:                1
 Block length:                72
 Nr. of dummy points:          0


 Test of Precision of the Numerical Integration Grid
 ===================================================

 Integral of the Total Core Density:                   0.00000000000000



 ========================
 Density Fitting (zlmFit)
 ========================
  
 ZlmFit Fit Quality: VERYGOOD       
  
 Max L-expansion:                        min:   0 max:   0
 Nr. of radial interpolation points:     min: 160 max: 160



 =====
 S C F  ***  ScaSCF  ***
 =====
  

 CYCLE    1
 SCF Error: norm([F,P])=      0.000000000000, max([F,P])=      0.000000000000
 orbitals (Q,E):
 ---------------
 S :1...5            ( 2.00   -17.9995)  ( 2.00    -4.4761)  ( 0.00    -1.9482)  ( 0.00     0.6812)
                     ( 0.00    42.8100)
 P :1...3            ( 2.00    -4.4994)  ( 0.00    -1.9807)  ( 0.00    -1.0849)
 D :1...1            ( 0.00    -1.9800)
 F :1...1            ( 0.00     0.4950)

 CYCLE    2
  SDIIS (wt  0.000):  1.0000 -0.0000
 A-DIIS (wt  1.000):  0.0000  1.0000
  DIIS coefficients:  0.0000  1.0000
 SCF Error: norm([F,P])=      4.480319744476, max([F,P])=      3.328841325837
 orbitals (Q,E):
 ---------------
 S :1...3            ( 2.00    -7.7917)  ( 2.00    -0.0500)  ( 0.00     0.8490)
 P :1...2            ( 2.00     0.1033)  ( 0.00     0.5895)
 D :1...1            ( 0.00     1.7552)
 F :1...1            ( 0.00     4.6366)

 CYCLE    3
  SDIIS (wt  0.000):  0.2185  0.7815
 A-DIIS (wt  1.000):  0.1233  0.8767
  DIIS coefficients:  0.1233  0.8767
 SCF Error: norm([F,P])=      1.636788894664, max([F,P])=      1.315295345514
 orbitals (Q,E):
 ---------------
 S :1...3            ( 2.00   -10.9862)  ( 2.00    -0.9428)  ( 0.00     0.1231)
 P :1...2            ( 2.00    -0.6386)  ( 0.00     0.0246)
 D :1...1            ( 0.00     0.8395)
 F :1...1            ( 0.00     3.5625)

 CYCLE    4
  SDIIS (wt  0.000): -0.0629  0.2184  0.8445
 A-DIIS (wt  1.000):  0.0000  0.0872  0.9128
  DIIS coefficients:  0.0000  0.0872  0.9128
 SCF Error: norm([F,P])=      0.722267649759, max([F,P])=      0.580815510644
 orbitals (Q,E):
 ---------------
 S :1...3            ( 2.00    -9.6419)  ( 2.00    -0.3647)  ( 0.00     0.4682)
 P :1...2            ( 2.00    -0.0765)  ( 0.00     0.2450)
 D :1...1            ( 0.00     1.3742)
 F :1...1            ( 0.00     4.1720)

 CYCLE    5
  SDIIS (wt  0.000): -0.0214 -0.0561  0.3847  0.6927
 A-DIIS (wt  1.000):  0.0000  0.0000  0.2646  0.7354
  DIIS coefficients:  0.0000  0.0000  0.2646  0.7354
 SCF Error: norm([F,P])=      0.412794757847, max([F,P])=      0.328642040749
 orbitals (Q,E):
 ---------------
 S :1...3            ( 2.00   -10.1968)  ( 2.00    -0.5643)  ( 0.00     0.3336)
 P :1...2            ( 2.00    -0.2533)  ( 0.00     0.1428)
 D :1...1            ( 0.00     1.1818)
 F :1...1            ( 0.00     3.9467)

 CYCLE    6
  SDIIS (wt  0.032):  0.0025 -0.0116 -0.0698  0.2077  0.8712
 A-DIIS (wt  0.968):  0.0000  0.0000  0.0000  0.0000  1.0000
  DIIS coefficients:  0.0001 -0.0004 -0.0022  0.0066  0.9959
 SCF Error: norm([F,P])=      0.126643163176, max([F,P])=      0.096847488733
 orbitals (Q,E):
 ---------------
 S :1...3            ( 2.00    -9.9458)  ( 2.00    -0.4545)  ( 0.00     0.4037)
 P :1...2            ( 2.00    -0.1511)  ( 0.00     0.1903)
 D :1...1            ( 0.00     1.2866)
 F :1...1            ( 0.00     4.0669)

 CYCLE    7
  SDIIS (wt  0.100): -0.0001  0.0030  0.0073 -0.1526  0.2846  0.8578
 A-DIIS (wt  0.900):  0.0000  0.0000  0.0000  0.0000  0.4446  0.5554
  DIIS coefficients: -0.0000  0.0003  0.0007 -0.0152  0.4286  0.5856
 SCF Error: norm([F,P])=      0.115568228223, max([F,P])=      0.090123764632
 orbitals (Q,E):
 ---------------
 S :1...3            ( 2.00   -10.0697)  ( 2.00    -0.5032)  ( 0.00     0.3719)
 P :1...2            ( 2.00    -0.1955)  ( 0.00     0.1673)
 D :1...1            ( 0.00     1.2400)
 F :1...1            ( 0.00     4.0128)

 CYCLE    8
  SDIIS (wt  0.958): -0.0001  0.0006  0.0026 -0.0162 -0.0129  0.1023  0.9238
 A-DIIS (wt  0.042):  0.0000  0.0000  0.0000  0.0000  0.0000  0.0000  1.0000
  DIIS coefficients: -0.0001  0.0005  0.0025 -0.0155 -0.0124  0.0980  0.9270
 SCF Error: norm([F,P])=      0.006629277795, max([F,P])=      0.005140885246
 orbitals (Q,E):
 ---------------
 S :1...3            ( 2.00   -10.0626)  ( 2.00    -0.5000)  ( 0.00     0.3739)
 P :1...2            ( 2.00    -0.1926)  ( 0.00     0.1686)
 D :1...1            ( 0.00     1.2431)
 F :1...1            ( 0.00     4.0163)

 CYCLE    9
  SDIIS (wt  1.000): -0.0000 -0.0000 -0.0000 -0.0000  0.0023 -0.0004 -0.0164  1.0145
  DIIS coefficients: -0.0000 -0.0000 -0.0000 -0.0000  0.0023 -0.0004 -0.0164  1.0145
 SCF Error: norm([F,P])=      0.000215737590, max([F,P])=      0.000163422092
 orbitals (Q,E):
 ---------------
 S :1...3            ( 2.00   -10.0628)  ( 2.00    -0.5001)  ( 0.00     0.3739)
 P :1...2            ( 2.00    -0.1927)  ( 0.00     0.1686)
 D :1...1            ( 0.00     1.2430)
 F :1...1            ( 0.00     4.0162)

 CYCLE   10
  SDIIS (wt  1.000):  0.0000 -0.0000 -0.0000  0.0001  0.0000 -0.0011  0.0167  0.9843
  DIIS coefficients:  0.0000 -0.0000 -0.0000  0.0001  0.0000 -0.0011  0.0167  0.9843
 SCF Error: norm([F,P])=      0.000001946475, max([F,P])=      0.000001322855
 orbitals (Q,E):
 ---------------
 S :1...3            ( 2.00   -10.0628)  ( 2.00    -0.5001)  ( 0.00     0.3739)
 P :1...2            ( 2.00    -0.1927)  ( 0.00     0.1686)
 D :1...1            ( 0.00     1.2430)
 F :1...1            ( 0.00     4.0162)

 CYCLE   11
  SDIIS (wt  1.000):  0.0000 -0.0000 -0.0002 -0.0078  1.0079
  DIIS coefficients:  0.0000 -0.0000 -0.0002 -0.0078  1.0079
 SCF Error: norm([F,P])=      0.000000018012, max([F,P])=      0.000000015017
 orbitals (Q,E):
 ---------------
 S :1...3            ( 2.00   -10.0628)  ( 2.00    -0.5001)  ( 0.00     0.3739)
 P :1...2            ( 2.00    -0.1927)  ( 0.00     0.1686)
 D :1...1            ( 0.00     1.2430)
 F :1...1            ( 0.00     4.0162)

 CYCLE   12
  SDIIS (wt  1.000):  0.0000 -0.0001  0.0057  0.9944
  DIIS coefficients:  0.0000 -0.0001  0.0057  0.9944
 SCF Error: norm([F,P])=      0.000000000214, max([F,P])=      0.000000000163
 orbitals (Q,E):
 ---------------
 S :1...3            ( 2.00   -10.0628)  ( 2.00    -0.5001)  ( 0.00     0.3739)
 P :1...2            ( 2.00    -0.1927)  ( 0.00     0.1686)
 D :1...1            ( 0.00     1.2430)
 F :1...1            ( 0.00     4.0162)

 SCF CONVERGED

 CYCLE   13
1
 ***************************************************************************************************



                                                *******************
                                                *  R E S U L T S  *
                                                *******************
  
 *** Setting up for NEW gradients in Focky
 *** Using FIT density in Focky

 Orbital Energies, per Irrep and Spin:
 ======================================
                        Occup              E (au)              E (eV)       Diff (eV) with prev. cycle
                        -----      --------------------        ------       --------------------------
 S
               1        2.000     -0.10062819482682E+02      -273.823              -1.46E-09
               2        2.000     -0.50012405867784E+00       -13.609              -9.06E-10
               3        0.000      0.37386666571790E+00        10.173
               4        0.000      0.54114616881925E+01       147.253
               5        0.000      0.50154618712634E+02      1364.777
 P
               1        2.000     -0.19265861396330E+00        -5.243              -8.46E-10
               2        0.000      0.16859720175392E+00         4.588
               3        0.000      0.20146797119588E+01        54.822
 D
               1        0.000      0.12429821924707E+01        33.823
 F
               1        0.000      0.40162441326384E+01       109.288


 Partially Occupied:
               1 P                -0.19265861396330E+00
  
 HOMO :        2 S                -0.50012405867784E+00
 LUMO :        2 P                 0.16859720175392E+00
  


 Orbital Energies, all Irreps
 ========================================

 Irrep        no.  (spin)   Occup              E (au)                E (eV)
 ---------------------------------------------------------------------------
 S             1             2.00       -0.10062819482682E+02      -273.8233
 S             2             2.00       -0.50012405867784E+00       -13.6091
 P             1             2.00       -0.19265861396330E+00        -5.2425
 P             2             0.00        0.16859720175392E+00         4.5878
 S             3             0.00        0.37386666571790E+00        10.1734
 D             1             0.00        0.12429821924707E+01        33.8233
 P             3             0.00        0.20146797119588E+01        54.8222
 F             1             0.00        0.40162441326384E+01       109.2876
 S             4             0.00        0.54114616881925E+01       147.2534
 S             5             0.00        0.50154618712634E+02      1364.7766


 All Electron Calculation, thus no Orbital Energies of the Core Orbitals are calculated



 =======================================
 M U L L I K E N   P O P U L A T I O N S
 =======================================
  
 The survey below gives for each atom:
 a) the total charge (Z minus electrons)
 b) the net spin polarization (nr of electrons spin-A minus spin-B)
 c) for each spin the atomic electron valence density (integrated) per L-value.

 Atom              Charge    Spin density          S         P         D         F
 ----              ------    ------------       ------    ------    ------    ------
 1 C              -0.0000                       4.0000    2.0000    0.0000    0.0000

 Populations of individual BAS functions
 ----------------------------------------
 1 C            0.4900  1.5029  0.9348  1.1161 -0.0439  0.1802  0.1802  0.1802  0.3776  0.3776
                0.3776  0.1089  0.1089  0.1089  0.0000  0.0000  0.0000  0.0000  0.0000  0.0000
                0.0000  0.0000  0.0000  0.0000  0.0000  0.0000  0.0000  0.0000  0.0000  0.0000

 Gross Charges per Atom (Z minus electrons)
 ==========================================
            -0.0000
 Net Total: -0.00000000



 =======================================================================
 Electrostatic potential at the Nuclei due to electrons and other nuclei
 =======================================================================
  
         Atom                  Potential
         ----                  ---------
     1)   C                  14.67487189
 
 
 ========================
 No memory problems found
 ========================
 
 Maximum number of active allocate calls:         447
 
 *******************************************************************************

                             A D F   E X I T
 NORMAL TERMINATION



 =================
 Timing Statistics
 =================
  
 Total Used :                     CPU=        0.77      System=        0.03     Elapsed=        0.80

 Calls  Section                     ( Mean, Percentage )
 ---------------------------------------------------------------------------------------------------
     3  ><      ................      0.00    0.13             0.00    0.00             0.00    0.17
     1  INIT    ................      0.01    1.83             0.02   51.43             0.04    4.35
     1  GEOMET  ................      0.01    0.91             0.01   17.14             0.01    1.56
     1  INPUTA  ................      0.00    0.39             0.00    0.00             0.00    0.31
     1  MAINSY  ................      0.01    1.04             0.00    2.86             0.01    1.15
     1  SYMFIT  ................      0.00    0.00             0.00    2.86             0.00    0.15
     1  CORORT  ................      0.00    0.13             0.00    0.00             0.00    0.05
     1  SYMORB  ................      0.00    0.13             0.00    0.00             0.00    0.13
     1  CLSMAT  ................      0.01    1.04             0.00    2.86             0.01    1.12
     1  ORTHON  ................      0.00    0.26             0.00    0.00             0.00    0.30
     1  GENPT   ................      0.02    2.61             0.00    2.86             0.02    2.60
     1  PTBAS   ................      0.01    0.78             0.00    0.00             0.01    0.77
    13  FOCKY   ................      0.04   74.58             0.00   11.43             0.04   71.48
    13  FOCKTR  ................      0.00    2.61             0.00    0.00             0.00    2.29
    13  SDIIS   ................      0.00    4.17             0.00    2.86             0.00    4.42
     1  COREPS  ................      0.03    4.56             0.00    0.00             0.03    4.32
     1  POPAN   ................      0.01    1.17             0.00    0.00             0.01    1.12
     1  DEBYE   ................      0.00    0.13             0.00    0.00             0.00    0.11
     1  EXIT PROCEDURE .........      0.03    3.52             0.00    5.72             0.03    3.60


 Currently Open Files (EXIT00)
 ====================

 Unit    Access Format  Status   Type       Ident (file)
 -------------------------------------------------------
   3      SEQ    FORM   TRANSP  NORMAL      LOGFILE
                                          ( logfile )


 Buffered I/O statistics
 =======================
 Memory available:                     67108864
 Number of records fitting in memory:     16131
 Input :   0.1% of                        27803  *4k bytes
 Output:  13.6% of                         1374  *4k bytes
 Records from serial files evicted:           0
                    others evicted:           0
 Hash table lookups:      71867 with          0 conflicts (  0.00%)

 ***************************************************************************************************
 (LOGFILE)
 <May02-2019> <17:04:34>  ADF development version  RunTime: May02-2019 17:04:34  Nodes: 1  Procs: 1
 <May02-2019> <17:04:34>  Oxygen (TZ2P)
 <May02-2019> <17:04:34>  RunType   : CREATE
 <May02-2019> <17:04:34>  Net Charge: 0 (Nuclei minus Electrons)
 <May02-2019> <17:04:34>  Symmetry  : ATOM
  Coordinates
    Atom         X           Y           Z   (Angstrom)
    1.O         0.000000    0.000000    0.000000
 <May02-2019> <17:04:34>  >>>> CORORT
 <May02-2019> <17:04:34>  >>>> CLSMAT
 <May02-2019> <17:04:34>  >>>> ORTHON
 <May02-2019> <17:04:34>  >>>> GENPT
 <May02-2019> <17:04:34>  Block Length=  68
 <May02-2019> <17:04:34>  >>>> PTBAS
 <May02-2019> <17:04:34>  >>>> CYCLE
 <May02-2019> <17:04:34>              |Error|         MaxErr       Wt(A-DIIS)
 <May02-2019> <17:04:34>      1      0.00000000      0.00000000
 <May02-2019> <17:04:34>      2      8.76574541      5.51803131    100.0
 <May02-2019> <17:04:34>      3      3.58549945      2.49941011    100.0
 <May02-2019> <17:04:34>      4      1.14791911      0.58301962    100.0
 <May02-2019> <17:04:34>      5      1.51958547      0.84054201    100.0
 <May02-2019> <17:04:34>      6      0.17882893      0.10424203    100.0
 <May02-2019> <17:04:34>      7      0.20012529      0.11364913    100.0
 <May02-2019> <17:04:34>      8      0.01695178      0.00994720      9.0
 <May02-2019> <17:04:34>      9      0.00174843      0.00098437      0.0
 <May02-2019> <17:04:34>     10      0.00000143      0.00000071      0.0
 <May02-2019> <17:04:34>     11      0.00000005      0.00000002      0.0
 <May02-2019> <17:04:34>     12      0.00000000      0.00000000      0.0
 <May02-2019> <17:04:34>  SCF converged
 <May02-2019> <17:04:34>     13      0.00000000      0.00000000      0.0
 <May02-2019> <17:04:34>  >>>> POPAN
 <May02-2019> <17:04:34>  >>>> DEBYE
 <May02-2019> <17:04:35>  NORMAL TERMINATION
 <May02-2019> <17:04:35>  END
 <May02-2019> <17:04:35>  ADF development version  RunTime: May02-2019 17:04:35  Nodes: 1  Procs: 1
 <May02-2019> <17:04:35>  Carbon (TZ2P)
 <May02-2019> <17:04:35>  RunType   : CREATE
 <May02-2019> <17:04:35>  Net Charge: 0 (Nuclei minus Electrons)
 <May02-2019> <17:04:35>  Symmetry  : ATOM
  Coordinates
    Atom         X           Y           Z   (Angstrom)
    1.C         0.000000    0.000000    0.000000
 <May02-2019> <17:04:35>  >>>> CORORT
 <May02-2019> <17:04:35>  >>>> CLSMAT
 <May02-2019> <17:04:35>  >>>> ORTHON
 <May02-2019> <17:04:35>  >>>> GENPT
 <May02-2019> <17:04:35>  Block Length=  72
 <May02-2019> <17:04:35>  >>>> PTBAS
 <May02-2019> <17:04:35>  >>>> CYCLE
 <May02-2019> <17:04:35>              |Error|         MaxErr       Wt(A-DIIS)
 <May02-2019> <17:04:35>      1      0.00000000      0.00000000
 <May02-2019> <17:04:35>      2      4.48031974      3.32884133    100.0
 <May02-2019> <17:04:35>      3      1.63678889      1.31529535    100.0
 <May02-2019> <17:04:35>      4      0.72226765      0.58081551    100.0
 <May02-2019> <17:04:35>      5      0.41279476      0.32864204    100.0
 <May02-2019> <17:04:35>      6      0.12664316      0.09684749     96.8
 <May02-2019> <17:04:35>      7      0.11556823      0.09012376     90.0
 <May02-2019> <17:04:35>      8      0.00662928      0.00514089      4.2
 <May02-2019> <17:04:35>      9      0.00021574      0.00016342      0.0
 <May02-2019> <17:04:35>     10      0.00000195      0.00000132      0.0
 <May02-2019> <17:04:35>     11      0.00000002      0.00000002      0.0
 <May02-2019> <17:04:35>     12      0.00000000      0.00000000      0.0
 <May02-2019> <17:04:35>  SCF converged
 <May02-2019> <17:04:35>     13      0.00000000      0.00000000      0.0
 <May02-2019> <17:04:35>  >>>> POPAN
 <May02-2019> <17:04:35>  >>>> DEBYE
 <May02-2019> <17:04:35>  NORMAL TERMINATION
 <May02-2019> <17:04:35>  END


 Parallel Execution: Process Information
 ==============================================================================
 Rank   Node Name                              NodeID   MyNodeRank  NodeMaster
    0   BAZIS-cn022                               0          0          0
    1   BAZIS-cn022                               0          1         -1
    2   BAZIS-cn022                               0          2         -1
    3   BAZIS-cn022                               0          3         -1
    4   BAZIS-cn022                               0          4         -1
    5   BAZIS-cn022                               0          5         -1
    6   BAZIS-cn022                               0          6         -1
    7   BAZIS-cn022                               0          7         -1
    8   BAZIS-cn022                               0          8         -1
    9   BAZIS-cn022                               0          9         -1
   10   BAZIS-cn022                               0         10         -1
   11   BAZIS-cn022                               0         11         -1
 ==============================================================================


May use up to 30771MB of RAM as shared memory on node 0


XC
  GGA blyp
END

SCF
  iterations 250
END

SYMMETRY O(h)
CHARGE 0

ZLMFIT
  Quality normal
END

BECKEGRID
  Quality good
End

ATOMS
C       0.00000000       1.93883000       0.00000000
O       0.00000000       3.09279000       0.00000000
C       0.00000000       0.00000000       1.93883000
O       0.00000000       0.00000000       3.09279000
C       0.00000000      -1.93883000       0.00000000
O       0.00000000      -3.09279000       0.00000000
C       0.00000000       0.00000000      -1.93883000
O       0.00000000       0.00000000      -3.09279000
C       1.93883000       0.00000000       0.00000000
O       3.09279000       0.00000000       0.00000000
C      -1.93883000       0.00000000       0.00000000
O      -3.09279000       0.00000000       0.00000000
END

Fragments
O t21.O
C t21.C
End
end input

 *******************************************************************************
 *                                                                             *
 *  -------------------------------------                                      *
 *   Amsterdam Density Functional  (ADF)         development version           *
 *  -------------------------------------                                      *
 *                                               r61132 2017-09-08             *
 *                                                                             *
 *                                                                             *
 *                              =================                              *
 *                              |               |                              *
 *                              |     A D F     |                              *
 *                              |               |                              *
 *                              =================                              *
 *                                                                             *
 *                                                                             *
 *   Online information and documentation:  https://www.scm.com/support/       *
 *   E-mail:  support@scm.com   info@scm.com                                   *
 *                                                                             *
 *   Scientific publications using ADF results must be properly referenced     *
 *   See the User Manuals (or the web site) for recommended citations          *
 *   The terms and conditions of the End User License Agreement apply to       *
 *   the use of ADF, https://www.scm.com/license-terms/                        *
 *                                                                             *
 **********************  x86_64_linux_intel / intelmpi  ************************
 
 Licensed to: VU/FEW (+ SARA) / ALGEMEEN / Amsterdam / THE NETHERLANDS
 SCM User ID: u7668
  
 ADF development version  RunTime: May02-2019 17:04:36  Nodes: 1  Procs: 12

 Temporary files are created in /local/datastore0/tcst25/188740/kid_0.G7iH8q


Communication costs MPI_COMM_WORLD:      3.846 usec per message,   0.0161 usec per 8-byte item
Communication costs for intra-node:      3.819 usec per message,   0.0161 usec per 8-byte item

 *** (NO TITLE) ***



 ===========================
 A T T A C H E D   F I L E S
 ===========================
  



 ===============================
 M O D E L   P A R A M E T E R S
 ===============================
  
 DENSITY FUNCTIONAL POTENTIAL (scf)
    LDA:                               Exchange only                           == Not Default ==
    Gradient Corrections:              Becke88 LYP                             == Not Default ==

 SPIN  (restricted / unrestr.)
    Molecule:                          Restricted                               
    Fragments:                         Restricted                               

 OTHER ASPECTS
    Relativistic Corrections:          ---                                      

    Nuclear Charge Density Model:      Point Charge Nuclei                      
    Core Treatment:                    Frozen Orbital(s)                        

    Hyperfine or Zeeman Interaction:   ---                                      


 Fragment File(s)
 ----------------
 C:
         file : t21.C
         jobid: ADF development version  RunTime: May02-2019 17:04:35  Nodes: 1  Procs: 1
         title: Carbon (TZ2P)
 O:
         file : t21.O
         jobid: ADF development version  RunTime: May02-2019 17:04:34  Nodes: 1  Procs: 1
         title: Oxygen (TZ2P)



                                        ************************************
                                        *  R U N   T Y P E : SINGLE POINT  *
                                        ************************************
  



 ===============
 G E O M E T R Y  ***  3D  Molecule  ***
 ===============
  

 ATOMS
 =====                            X Y Z                    CHARGE
                                (Angstrom)             Nucl     +Core       At.Mass
                       --------------------------    ----------------       -------
    1  C               0.0000    1.9388    0.0000      6.00      6.00       12.0000
    2  O               0.0000    3.0928    0.0000      8.00      8.00       15.9949
    3  C               0.0000    0.0000    1.9388      6.00      6.00       12.0000
    4  O               0.0000    0.0000    3.0928      8.00      8.00       15.9949
    5  C               0.0000   -1.9388    0.0000      6.00      6.00       12.0000
    6  O               0.0000   -3.0928    0.0000      8.00      8.00       15.9949
    7  C               0.0000    0.0000   -1.9388      6.00      6.00       12.0000
    8  O               0.0000    0.0000   -3.0928      8.00      8.00       15.9949
    9  C               1.9388    0.0000    0.0000      6.00      6.00       12.0000
   10  O               3.0928    0.0000    0.0000      8.00      8.00       15.9949
   11  C              -1.9388    0.0000    0.0000      6.00      6.00       12.0000
   12  O              -3.0928    0.0000    0.0000      8.00      8.00       15.9949


 FRAGMENTS
 =========                                     Atoms in this Fragment     Cart. coord.s (Angstrom)
                                               -------------------------------------------------------
    1  C                                                 1  C            0.0000    1.9388    0.0000
    2  C                                                 3  C            0.0000    0.0000    1.9388
    3  C                                                 5  C            0.0000   -1.9388    0.0000
    4  C                                                 7  C            0.0000    0.0000   -1.9388
    5  C                                                 9  C            1.9388    0.0000    0.0000
    6  C                                                11  C           -1.9388    0.0000    0.0000
    7  O                                                 2  O            0.0000    3.0928    0.0000
    8  O                                                 4  O            0.0000    0.0000    3.0928
    9  O                                                 6  O            0.0000   -3.0928    0.0000
   10  O                                                 8  O            0.0000    0.0000   -3.0928
   11  O                                                10  O            3.0928    0.0000    0.0000
   12  O                                                12  O           -3.0928    0.0000    0.0000


 Interatomic Distance Matrix (Angstrom)
 --------------------------------------

   1)     0.000
   2)     1.154   0.000
   3)     2.742   3.650   0.000
   4)     3.650   4.374   1.154   0.000
   5)     3.878   5.032   2.742   3.650   0.000
   6)     5.032   6.186   3.650   4.374   1.154   0.000
   7)     2.742   3.650   3.878   5.032   2.742   3.650   0.000
   8)     3.650   4.374   5.032   6.186   3.650   4.374   1.154   0.000
   9)     2.742   3.650   2.742   3.650   2.742   3.650   2.742   3.650   0.000
  10)     3.650   4.374   3.650   4.374   3.650   4.374   3.650   4.374   1.154   0.000
  11)     2.742   3.650   2.742   3.650   2.742   3.650   2.742   3.650   3.878   5.032
          0.000
  12)     3.650   4.374   3.650   4.374   3.650   4.374   3.650   4.374   5.032   6.186
          1.154   0.000

 Min. Distance =    1.1540
 Max. Distance =    6.1856



 =====================================
 S Y M M E T R Y ,   E L E C T R O N S
 =====================================
  
 Symmetry: O(H)

 Irreducible Representations, including subspecies
 -------------------------------------------------
 A1.g
 A2.g
 E.g:1  E.g:2
 T1.g:1  T1.g:2  T1.g:3
 T2.g:1  T2.g:2  T2.g:3
 A2.u
 A1.u
 E.u:1  E.u:2
 T2.u:1  T2.u:2  T2.u:3
 T1.u:1  T1.u:2  T1.u:3


 Configuration of Valence Electrons
 ==================================
 ( determined in the SCF procedure )

 Total:   84

 Net Charge: 0 (Nuclei minus Electrons)

 Aufbau principle for MO occupations will be applied through SCF cycle no.     125
 Thereafter, the program will assign electrons to MOs that are spatially
 similar to the occupied MOs in a "reference" cycle ("KeepOrbitals").
 The reference cycle is always the PREVIOUS cycle: it will evolve with
 the SCF procedure.
1
 ***************************************************************************************************



                                      ****************************************
                                      *  B U I L D : (Fragments, Functions)  *
                                      ****************************************
  



 =======
 S F O s  ***  (Symmetrized Fragment Orbitals)  ***
 =======
  
 SFOs are linear combinations of (valence) Fragment Orbitals (FOs), such that the SFOs transform as the
 irreducible representations of the (molecular) symmetry group. Each SFO is therefore characterized by
 an irrep of the molecule and by a few (or only one) generating FOs.
 The SFOs constitute a symmetry-adapted basis for the Fock matrix. The MO eigenvector coefficients in
 this basis provide a direct interpretation of the MOs in terms of Frontier Orbital Theory.

 The SFOs are combined with auxiliary Core Functions (CFs) to ensure orthogonalization on the (frozen)
 Core Orbitals (COs). The Core-orthogonalized SFOs (CSFOs) constitute the true Fock basis.

 The FOs, and hence also the (C)SFOs are combinations of the elementary basis functions (BAS). The basis
 functions that participate in the description of the SFOs depend on the irrep. The indices of the
 involved functions are printed below for each irrep.
 (The complete list of primitive basis functions is printed in another section)

 Total nr. of (C)SFOs (summation over all irreps) :   312

 NOTE: a (C)SFO that is defined as a combination of more than one FO is usually NOT normalized.



                                       === A1.g ===
 Nr. of SFOs :   20
 Cartesian basis functions that participate in this irrep (total number =   168) :
      1    31    61    91   121   151     2    32    62    92
    122   152     3    33    63    93   123   153     4    34
     64    94   124   154     5    35    65    95   125   155
      7    38    67    98   126   156    10    41    70   101
    129   159    13    44    73   104   132   162    20    15
     18    50    45    48    80    75    78   110   105   108
    140   135   138   170   165   168    27    60    87   120
    141   171    29    22    53    58    89    82   113   118
    146   144   176   174   181   211   241   271   301   331
    182   212   242   272   302   332   183   213   243   273
    303   333   184   214   244   274   304   334   185   215
    245   275   305   335   187   218   247   278   306   336
    190   221   250   281   309   339   193   224   253   284
    312   342   200   195   198   230   225   228   260   255
    258   290   285   288   320   315   318   350   345   348
    207   240   267   300   321   351   209   202   233   238
    269   262   293   298   326   324   356   354

    SFO  (index         Fragment          Generating    Expansion in Fragment Orbitals
  indx  incl.CFs)   Occup   Orb.Energy   FragmentType  Coeff.   Orbital     on Fragment
 --------------------------------------------------------------------------------------
     1       1      2.000     -10.063 au  C             0.41      1 S               1
                        (    -273.823 eV)               0.41      1 S               2
                                                        0.41      1 S               3
                                                        0.41      1 S               4
                                                        0.41      1 S               5
                                                        0.41      1 S               6
     2       2      2.000      -0.500 au  C             0.41      2 S               1
                        (     -13.609 eV)               0.41      2 S               2
                                                        0.41      2 S               3
                                                        0.41      2 S               4
                                                        0.41      2 S               5
                                                        0.41      2 S               6
     3       3       --         0.374 au  C             0.41      3 S               1
                        (      10.173 eV)               0.41      3 S               2
                                                        0.41      3 S               3
                                                        0.41      3 S               4
                                                        0.41      3 S               5
                                                        0.41      3 S               6
     4       4       --         5.411 au  C             0.41      4 S               1
                        (     147.253 eV)               0.41      4 S               2
                                                        0.41      4 S               3
                                                        0.41      4 S               4
                                                        0.41      4 S               5
                                                        0.41      4 S               6
     5       5       --        50.155 au  C             0.41      5 S               1
                        (    1364.777 eV)               0.41      5 S               2
                                                        0.41      5 S               3
                                                        0.41      5 S               4
                                                        0.41      5 S               5
                                                        0.41      5 S               6
     6       6      0.667      -0.193 au  C             0.41      1 P:y             1
                        (      -5.243 eV)               0.41      1 P:z             2
                                                       -0.41      1 P:y             3
                                                       -0.41      1 P:z             4
                                                        0.41      1 P:x             5
                                                       -0.41      1 P:x             6
     7       7       --         0.169 au  C             0.41      2 P:y             1
                        (       4.588 eV)               0.41      2 P:z             2
                                                       -0.41      2 P:y             3
                                                       -0.41      2 P:z             4
                                                        0.41      2 P:x             5
                                                       -0.41      2 P:x             6
     8       8       --         2.015 au  C             0.41      3 P:y             1
                        (      54.822 eV)               0.41      3 P:z             2
                                                       -0.41      3 P:y             3
                                                       -0.41      3 P:z             4
                                                        0.41      3 P:x             5
                                                       -0.41      3 P:x             6
     9       9       --         1.243 au  C             0.20      1 D:z2            1
                        (      33.823 eV)               0.35      1 D:x2            1
                                                       -0.41      1 D:z2            2
                                                        0.20      1 D:z2            3
                                                        0.35      1 D:x2            3
                                                       -0.41      1 D:z2            4
                                                        0.20      1 D:z2            5
                                                       -0.35      1 D:x2            5
                                                        0.20      1 D:z2            6
                                                       -0.35      1 D:x2            6
    10      10       --         4.016 au  C             0.25      1 F:z2y           1
                        (     109.288 eV)               0.32      1 F:y             1
                                                       -0.41      1 F:z3            2
                                                       -0.25      1 F:z2y           3
                                                       -0.32      1 F:y             3
                                                        0.41      1 F:z3            4
                                                        0.25      1 F:z2x           5
                                                       -0.32      1 F:x             5
                                                       -0.25      1 F:z2x           6
                                                        0.32      1 F:x             6
    11      11      2.000     -18.927 au  O             0.41      1 S               7
                        (    -515.020 eV)               0.41      1 S               8
                                                        0.41      1 S               9
                                                        0.41      1 S              10
                                                        0.41      1 S              11
                                                        0.41      1 S              12
    12      12      2.000      -0.874 au  O             0.41      2 S               7
                        (     -23.792 eV)               0.41      2 S               8
                                                        0.41      2 S               9
                                                        0.41      2 S              10
                                                        0.41      2 S              11
                                                        0.41      2 S              12
    13      13       --         0.793 au  O             0.41      3 S               7
                        (      21.588 eV)               0.41      3 S               8
                                                        0.41      3 S               9
                                                        0.41      3 S              10
                                                        0.41      3 S              11
                                                        0.41      3 S              12
    14      14       --        13.460 au  O             0.41      4 S               7
                        (     366.259 eV)               0.41      4 S               8
                                                        0.41      4 S               9
                                                        0.41      4 S              10
                                                        0.41      4 S              11
[...]
                                    4.50%     2 P:y             4.588  0.00     1 C
                                    2.07%     2 P:y             4.588  0.00     2 C
                                    1.13%     1 P:y            -5.243  0.67     2 C
      -9.010  2.00     6 T1.u:3    49.23%     2 S             -13.609  2.00     2 C
                                   24.82%     1 P:z            -5.243  0.67     2 C
                                    9.09%     1 P:z            -9.028  1.33     7 O
                                    8.98%     1 P:z            -9.028  1.33     8 O
                                    4.50%     2 P:z             4.588  0.00     2 C
                                    2.07%     2 P:z             4.588  0.00     1 C
                                    1.13%     1 P:z            -5.243  0.67     1 C
      -7.403  2.00     5 E.g:1     64.89%     2 S             -13.609  2.00     1 C
                                   21.60%     1 P:y            -5.243  0.67     1 C
                                    9.15%     2 P:y             4.588  0.00     1 C
                                    7.74%     1 P:y            -9.028  1.33     7 O
                                   -1.86%     3 S              10.173  0.00     1 C
      -7.403  2.00     5 E.g:2     64.89%     2 S             -13.609  2.00     1 C
                                   21.60%     1 P:y            -5.243  0.67     1 C
                                    9.15%     2 P:y             4.588  0.00     1 C
                                    7.74%     1 P:y            -9.028  1.33     7 O
                                   -1.86%     3 S              10.173  0.00     1 C
      -3.190  0.00     2 T2.g:1    71.97%     1 P:z            -5.243  0.67     1 C
                                   30.57%     1 P:z            -9.028  1.33     7 O
                                   -5.35%     2 P:z             9.435  0.00     7 O
                                    1.13%     1 D:yz           33.823  0.00     1 C
      -3.190  0.00     2 T2.g:2    71.97%     1 P:x            -5.243  0.67     2 C
                                   30.57%     1 P:x            -9.028  1.33     8 O
                                   -5.35%     2 P:x             9.435  0.00     8 O
                                    1.13%     1 D:xz           33.823  0.00     2 C
      -3.190  0.00     2 T2.g:3    71.97%     1 P:x            -5.243  0.67     1 C
                                   30.57%     1 P:x            -9.028  1.33     7 O
                                   -5.35%     2 P:x             9.435  0.00     7 O
                                    1.13%     1 D:xy           33.823  0.00     1 C
      -1.797  0.00     7 T1.u:1    71.96%     1 P:x            -5.243  0.67     1 C
                                   24.96%     1 P:x            -9.028  1.33     7 O
                                    6.03%     2 S             -13.609  2.00     5 C
                                   -4.38%     2 P:x             9.435  0.00     7 O
                                   -1.89%     3 S              10.173  0.00     5 C
                                    1.53%     1 P:x            -5.243  0.67     5 C
                                    1.17%     1 D:xy           29.129  0.00     7 O
      -1.797  0.00     7 T1.u:2    71.96%     1 P:y            -5.243  0.67     2 C
                                   24.96%     1 P:y            -9.028  1.33     8 O
                                    6.03%     2 S             -13.609  2.00     1 C
                                   -4.38%     2 P:y             9.435  0.00     8 O
                                   -1.89%     3 S              10.173  0.00     1 C
                                    1.53%     1 P:y            -5.243  0.67     1 C
                                    1.17%     1 D:yz           29.129  0.00     8 O
      -1.797  0.00     7 T1.u:3    71.96%     1 P:z            -5.243  0.67     1 C
                                   24.96%     1 P:z            -9.028  1.33     7 O
                                    6.03%     2 S             -13.609  2.00     2 C
                                   -4.38%     2 P:z             9.435  0.00     7 O
                                   -1.89%     3 S              10.173  0.00     2 C
                                    1.53%     1 P:z            -5.243  0.67     2 C
                                    1.17%     1 D:yz           29.129  0.00     7 O
      -1.492  0.00     2 T2.u:1    80.34%     1 P:x            -5.243  0.67     1 C
                                   27.84%     1 P:x            -9.028  1.33     7 O
                                   -5.21%     2 P:x             4.588  0.00     1 C
                                   -5.05%     2 P:x             9.435  0.00     7 O
                                    1.35%     1 D:xy           29.129  0.00     7 O
      -1.492  0.00     2 T2.u:2    80.34%     1 P:y            -5.243  0.67     2 C
                                   27.84%     1 P:y            -9.028  1.33     8 O
                                   -5.21%     2 P:y             4.588  0.00     2 C
                                   -5.05%     2 P:y             9.435  0.00     8 O
                                    1.35%     1 D:yz           29.129  0.00     8 O
      -1.492  0.00     2 T2.u:3    80.34%     1 P:z            -5.243  0.67     1 C
                                   27.84%     1 P:z            -9.028  1.33     7 O
                                   -5.21%     2 P:z             4.588  0.00     1 C
                                   -5.05%     2 P:z             9.435  0.00     7 O
                                    1.35%     1 D:yz           29.129  0.00     7 O
      -0.454  0.00     2 T1.g:1    80.98%     1 P:z            -5.243  0.67     1 C
                                   25.81%     1 P:z            -9.028  1.33     7 O
                                   -5.13%     2 P:z             4.588  0.00     1 C
                                   -3.81%     2 P:z             9.435  0.00     7 O
                                    2.11%     1 D:yz           29.129  0.00     7 O
      -0.454  0.00     2 T1.g:2    80.98%     1 P:x            -5.243  0.67     2 C
                                   25.81%     1 P:x            -9.028  1.33     8 O
                                   -5.13%     2 P:x             4.588  0.00     2 C
                                   -3.81%     2 P:x             9.435  0.00     8 O
                                    2.11%     1 D:xz           29.129  0.00     8 O
      -0.454  0.00     2 T1.g:3    80.98%     1 P:x            -5.243  0.67     1 C
                                   25.81%     1 P:x            -9.028  1.33     7 O
                                   -5.13%     2 P:x             4.588  0.00     1 C
                                   -3.81%     2 P:x             9.435  0.00     7 O
                                    2.11%     1 D:xy           29.129  0.00     7 O
       1.685  0.00     8 T1.u:1    48.54%     2 P:x             4.588  0.00     1 C
                                   31.20%     2 P:x             4.588  0.00     5 C
                                   28.89%     1 P:x            -5.243  0.67     5 C
                                  -11.31%     3 S              21.588  0.00    11 O
                                    2.34%     3 S              10.173  0.00     5 C
                                    1.04%     2 S             -23.792  2.00    11 O
       1.685  0.00     8 T1.u:2    48.54%     2 P:y             4.588  0.00     2 C
                                   31.20%     2 P:y             4.588  0.00     1 C
                                   28.89%     1 P:y            -5.243  0.67     1 C
                                  -11.31%     3 S              21.588  0.00     7 O
                                    2.34%     3 S              10.173  0.00     1 C
                                    1.04%     2 S             -23.792  2.00     7 O
       1.685  0.00     8 T1.u:3    48.54%     2 P:z             4.588  0.00     1 C
                                   31.20%     2 P:z             4.588  0.00     2 C
                                   28.89%     1 P:z            -5.243  0.67     2 C
                                  -11.31%     3 S              21.588  0.00     8 O
                                    2.34%     3 S              10.173  0.00     2 C
                                    1.04%     2 S             -23.792  2.00     8 O



 =======================================================================
 Electrostatic potential at the Nuclei due to electrons and other nuclei
 =======================================================================
  
         Atom                  Potential
         ----                  ---------
     1)   C                  14.70017792
     2)   O                  22.27126372
     3)   C                  14.70017798
     4)   O                  22.27126362
     5)   C                  14.70017792
     6)   O                  22.27126372
     7)   C                  14.70017798
     8)   O                  22.27126362
     9)   C                  14.70017792
    10)   O                  22.27126372
    11)   C                  14.70017792
    12)   O                  22.27126372
 
 
 ========================
 No memory problems found
 ========================
 
 Maximum number of active allocate calls:        2622
 
 *******************************************************************************

                             A D F   E X I T
 NORMAL TERMINATION



 =================
 Timing Statistics
 =================
  
 Total Used :                     CPU=        3.47      System=        0.27     Elapsed=        3.85

 Calls  Section                     ( Mean, Percentage )
 ---------------------------------------------------------------------------------------------------
     3  ><      ................      0.00    0.06             0.00    0.00             0.00    0.04
     1  INIT    ................      0.40   11.59             0.02    8.58             0.43   11.10
     1  GEOMET  ................      0.06    1.82             0.00    1.87             0.07    1.85
     1  FRAGM   ................      0.04    1.24             0.01    5.22             0.08    2.00
     1  INPUTA  ................      0.00    0.03             0.00    0.00             0.00    0.01
     1  ATDEN   ................      0.01    0.20             0.00    0.75             0.01    0.24
     1  MAINSY  ................      0.02    0.66             0.01    3.36             0.04    1.00
     1  SYMFIT  ................      0.00    0.03             0.00    0.00             0.00    0.05
     1  CORORT  ................      0.00    0.03             0.00    0.00             0.00    0.01
     1  SYMORB  ................      0.01    0.35             0.00    0.00             0.01    0.30
     1  CLSMAT  ................      0.02    0.52             0.00    0.37             0.02    0.50
     1  ORTHON  ................      0.05    1.35             0.02    5.97             0.07    1.72
     1  GENPT   ................      0.11    3.05             0.00    1.49             0.11    2.89
     1  PTBAS   ................      0.04    1.21             0.01    3.36             0.05    1.35
    11  FOCKY   ................      0.18   56.14             0.00   20.15             0.18   52.63
    11  FOCKTR  ................      0.01    2.62             0.01   21.27             0.01    3.97
    11  SDIIS   ................      0.00    1.12             0.00    2.61             0.00    1.18
     1  COREPS  ................      0.15    4.38             0.01    4.85             0.17    4.50
     1  TOTEN   ................      0.34    9.80             0.02    6.72             0.36    9.40
     1  POPAN   ................      0.01    0.20             0.00    1.49             0.02    0.47
     1  DEBYE   ................      0.02    0.52             0.00    1.87             0.02    0.59
     1  INPUTE  ................      0.00    0.00             0.00    0.00             0.00    0.03
     1  SYMORE  ................      0.00    0.14             0.00    0.00             0.01    0.13
     1  METS    ................      0.00    0.03             0.00    0.00             0.00    0.02
     1  CETS    ................      0.02    0.63             0.01    2.99             0.03    0.80
     1  ELNRGY  ................      0.00    0.12             0.00    0.00             0.00    0.10
     1  POPUL   ................      0.03    0.89             0.01    3.36             0.06    1.67
     1  EXIT PROCEDURE .........      0.04    1.27             0.01    3.73             0.06    1.43


 Currently Open Files (EXIT00)
 ====================

 Unit    Access Format  Status   Type       Ident (file)
 -------------------------------------------------------
   3      SEQ    FORM   TRANSP  NORMAL      LOGFILE
                                          ( logfile )


 Buffered I/O statistics
 =======================
 Memory available:                     67108864
 Number of records fitting in memory:     16131
 Input :   0.7% of                       111423  *4k bytes
 Output:  11.0% of                         8004  *4k bytes
 Records from serial files evicted:           0
                    others evicted:           0
 Hash table lookups:     316226 with          0 conflicts (  0.00%)

 ***************************************************************************************************
 (LOGFILE)
 <May02-2019> <17:04:34>  ADF development version  RunTime: May02-2019 17:04:34  Nodes: 1  Procs: 1
 <May02-2019> <17:04:34>  Oxygen (TZ2P)
 <May02-2019> <17:04:34>  RunType   : CREATE
 <May02-2019> <17:04:34>  Net Charge: 0 (Nuclei minus Electrons)
 <May02-2019> <17:04:34>  Symmetry  : ATOM
  Coordinates
    Atom         X           Y           Z   (Angstrom)
    1.O         0.000000    0.000000    0.000000
 <May02-2019> <17:04:34>  >>>> CORORT
 <May02-2019> <17:04:34>  >>>> CLSMAT
 <May02-2019> <17:04:34>  >>>> ORTHON
 <May02-2019> <17:04:34>  >>>> GENPT
 <May02-2019> <17:04:34>  Block Length=  68
 <May02-2019> <17:04:34>  >>>> PTBAS
 <May02-2019> <17:04:34>  >>>> CYCLE
 <May02-2019> <17:04:34>              |Error|         MaxErr       Wt(A-DIIS)
 <May02-2019> <17:04:34>      1      0.00000000      0.00000000
 <May02-2019> <17:04:34>      2      8.76574541      5.51803131    100.0
 <May02-2019> <17:04:34>      3      3.58549945      2.49941011    100.0
 <May02-2019> <17:04:34>      4      1.14791911      0.58301962    100.0
 <May02-2019> <17:04:34>      5      1.51958547      0.84054201    100.0
 <May02-2019> <17:04:34>      6      0.17882893      0.10424203    100.0
 <May02-2019> <17:04:34>      7      0.20012529      0.11364913    100.0
 <May02-2019> <17:04:34>      8      0.01695178      0.00994720      9.0
 <May02-2019> <17:04:34>      9      0.00174843      0.00098437      0.0
 <May02-2019> <17:04:34>     10      0.00000143      0.00000071      0.0
 <May02-2019> <17:04:34>     11      0.00000005      0.00000002      0.0
 <May02-2019> <17:04:34>     12      0.00000000      0.00000000      0.0
 <May02-2019> <17:04:34>  SCF converged
 <May02-2019> <17:04:34>     13      0.00000000      0.00000000      0.0
 <May02-2019> <17:04:34>  >>>> POPAN
 <May02-2019> <17:04:34>  >>>> DEBYE
 <May02-2019> <17:04:35>  NORMAL TERMINATION
 <May02-2019> <17:04:35>  END
 <May02-2019> <17:04:35>  ADF development version  RunTime: May02-2019 17:04:35  Nodes: 1  Procs: 1
 <May02-2019> <17:04:35>  Carbon (TZ2P)
 <May02-2019> <17:04:35>  RunType   : CREATE
 <May02-2019> <17:04:35>  Net Charge: 0 (Nuclei minus Electrons)
 <May02-2019> <17:04:35>  Symmetry  : ATOM
  Coordinates
    Atom         X           Y           Z   (Angstrom)
    1.C         0.000000    0.000000    0.000000
 <May02-2019> <17:04:35>  >>>> CORORT
 <May02-2019> <17:04:35>  >>>> CLSMAT
 <May02-2019> <17:04:35>  >>>> ORTHON
 <May02-2019> <17:04:35>  >>>> GENPT
 <May02-2019> <17:04:35>  Block Length=  72
 <May02-2019> <17:04:35>  >>>> PTBAS
 <May02-2019> <17:04:35>  >>>> CYCLE
 <May02-2019> <17:04:35>              |Error|         MaxErr       Wt(A-DIIS)
 <May02-2019> <17:04:35>      1      0.00000000      0.00000000
 <May02-2019> <17:04:35>      2      4.48031974      3.32884133    100.0
 <May02-2019> <17:04:35>      3      1.63678889      1.31529535    100.0
 <May02-2019> <17:04:35>      4      0.72226765      0.58081551    100.0
 <May02-2019> <17:04:35>      5      0.41279476      0.32864204    100.0
 <May02-2019> <17:04:35>      6      0.12664316      0.09684749     96.8
 <May02-2019> <17:04:35>      7      0.11556823      0.09012376     90.0
 <May02-2019> <17:04:35>      8      0.00662928      0.00514089      4.2
 <May02-2019> <17:04:35>      9      0.00021574      0.00016342      0.0
 <May02-2019> <17:04:35>     10      0.00000195      0.00000132      0.0
 <May02-2019> <17:04:35>     11      0.00000002      0.00000002      0.0
 <May02-2019> <17:04:35>     12      0.00000000      0.00000000      0.0
 <May02-2019> <17:04:35>  SCF converged
 <May02-2019> <17:04:35>     13      0.00000000      0.00000000      0.0
 <May02-2019> <17:04:35>  >>>> POPAN
 <May02-2019> <17:04:35>  >>>> DEBYE
 <May02-2019> <17:04:35>  NORMAL TERMINATION
 <May02-2019> <17:04:35>  END
 <May02-2019> <17:04:36>  ADF development version  RunTime: May02-2019 17:04:36  Nodes: 1  Procs: 12
 <May02-2019> <17:04:36>  *** (NO TITLE) ***
 <May02-2019> <17:04:36>  RunType   : SINGLE POINT
 <May02-2019> <17:04:36>  Net Charge: 0 (Nuclei minus Electrons)
 <May02-2019> <17:04:36>  Symmetry  : O(H)
 <May02-2019> <17:04:36>  >>>> FRAGM
  Coordinates
    Atom         X           Y           Z   (Angstrom)
    1.C         0.000000    1.938830    0.000000
    2.O         0.000000    3.092790    0.000000
    3.C         0.000000    0.000000    1.938830
    4.O         0.000000    0.000000    3.092790
    5.C         0.000000   -1.938830    0.000000
    6.O         0.000000   -3.092790    0.000000
    7.C         0.000000    0.000000   -1.938830
    8.O         0.000000    0.000000   -3.092790
    9.C         1.938830    0.000000    0.000000
   10.O         3.092790    0.000000    0.000000
   11.C        -1.938830    0.000000    0.000000
   12.O        -3.092790    0.000000    0.000000
 <May02-2019> <17:04:36>  >>>> CORORT
 <May02-2019> <17:04:36>  >>>> CLSMAT
 <May02-2019> <17:04:36>  >>>> ORTHON
 <May02-2019> <17:04:36>  >>>> GENPT
 <May02-2019> <17:04:37>  Block Length= 126
 <May02-2019> <17:04:37>  >>>> PTBAS
 <May02-2019> <17:04:37>  >>>> CYCLE
 <May02-2019> <17:04:37>              |Error|         MaxErr       Wt(A-DIIS)
 <May02-2019> <17:04:37>      1      6.94413094      1.70247738
 <May02-2019> <17:04:37>      2      1.21389311      0.18610085    100.0
 <May02-2019> <17:04:37>      3      0.43197833      0.04319023    100.0
 <May02-2019> <17:04:38>      4      0.47658153      0.05283651     52.4
 <May02-2019> <17:04:38>      5      0.13460395      0.02684682     26.1
 <May02-2019> <17:04:38>      6      0.13642359      0.02824155     26.1
 <May02-2019> <17:04:38>      7      0.00055617      0.00008813      0.0
 <May02-2019> <17:04:38>      8      0.00016468      0.00002788      0.0
 <May02-2019> <17:04:38>      9      0.00002932      0.00000575      0.0
 <May02-2019> <17:04:39>     10      0.00000074      0.00000016      0.0
 <May02-2019> <17:04:39>  SCF converged
 <May02-2019> <17:04:39>     11      0.00000004      0.00000001      0.0
 <May02-2019> <17:04:39>  >>>> TOTEN
 <May02-2019> <17:04:39>  >>>> POPAN
 <May02-2019> <17:04:39>  >>>> DEBYE
 <May02-2019> <17:04:39>  >>>> AMETS
 <May02-2019> <17:04:39>   Bond Energy          -3.11339481 a.u.
 <May02-2019> <17:04:39>   Bond Energy         -84.71978322 eV
 <May02-2019> <17:04:39>   Bond Energy       -1953.68       kcal/mol
 <May02-2019> <17:04:39>  >>>> POPUL
 <May02-2019> <17:04:40>  NORMAL TERMINATION
 <May02-2019> <17:04:40>  END
