

 Parallel Execution: Process Information
 ==============================================================================
 Rank   Node Name                              NodeID   MyNodeRank  NodeMaster
    0   BAZIS-cn017                               0          0          0
    1   BAZIS-cn017                               0          1         -1
    2   BAZIS-cn017                               0          2         -1
    3   BAZIS-cn017                               0          3         -1
    4   BAZIS-cn017                               0          4         -1
    5   BAZIS-cn017                               0          5         -1
    6   BAZIS-cn017                               0          6         -1
    7   BAZIS-cn017                               0          7         -1
    8   BAZIS-cn017                               0          8         -1
    9   BAZIS-cn017                               0          9         -1
   10   BAZIS-cn017                               0         10         -1
   11   BAZIS-cn017                               0         11         -1
 ==============================================================================


May use up to 30771MB of RAM as shared memory on node 0


XC
    GGA BP86
END

SCF
    iterations 250
END

EPRINT
    SFO Eig Ovl
END

ZLMFIT
    Quality normal
END

BECKEGRID
    Quality good
End

SYMMETRY nosym
CHARGE -1

ATOMS
1.Cl       -3.903580   -0.149383   -0.058781 f=ClH
2.H        -2.627414    0.379048    0.729716 f=ClH
3.Cl       -1.349501    0.908203    1.519293 f=Cl
END

Fragments
ClH /home/tcst25/advanced_comp_chemistry/exercise2/hydrogen/ClHCl/frag1_ClH.t21
Cl /home/tcst25/advanced_comp_chemistry/exercise2/hydrogen/ClHCl/frag2_Cl.t21
End
end input

 *******************************************************************************
 *                                                                             *
 *  -------------------------------------                                      *
 *   Amsterdam Density Functional  (ADF)         2017                          *
 *  -------------------------------------                                      *
 *                                               r58813 2017-04-12             *
 *                                                                             *
 *                                                                             *
 *                              =================                              *
 *                              |               |                              *
 *                              |     A D F     |                              *
 *                              |               |                              *
 *                              =================                              *
 *                                                                             *
 *                                                                             *
 *   Online information and documentation:  https://www.scm.com/support/       *
 *   E-mail:  support@scm.com   info@scm.com                                   *
 *                                                                             *
 *   Scientific publications using ADF results must be properly referenced     *
 *   See the User Manuals (or the web site) for recommended citations          *
 *   The terms and conditions of the End User License Agreement apply to       *
 *   the use of ADF, https://www.scm.com/license-terms/                        *
 *                                                                             *
 **********************  x86_64_linux_intel / intelmpi  ************************
 
 Licensed to: VU/FEW (+ SARA) / ALGEMEEN / Amsterdam / THE NETHERLANDS
 SCM User ID: u7668
  
 ADF 2017  RunTime: May09-2019 17:23:41  Nodes: 1  Procs: 12

 Temporary files are created in /local/datastore0/tcst25/189814/kid_0.NaVpC9


Communication costs MPI_COMM_WORLD:      3.863 usec per message,   0.0179 usec per 8-byte item
Communication costs for intra-node:      3.857 usec per message,   0.0178 usec per 8-byte item

 *** (NO TITLE) ***



 ===========================
 A T T A C H E D   F I L E S
 ===========================
  



 ===============================
 M O D E L   P A R A M E T E R S
 ===============================
  
 DENSITY FUNCTIONAL POTENTIAL (scf)
    LDA:                               VWN                                      
    Gradient Corrections:              Becke88 Perdew86                        == Not Default ==

 SPIN  (restricted / unrestr.)
    Molecule:                          Restricted                               
    Fragments:                         Restricted                               

 OTHER ASPECTS
    Relativistic Corrections:          ---                                      

    Nuclear Charge Density Model:      Point Charge Nuclei                      
    Core Treatment:                    Frozen Orbital(s)                        

    Hyperfine or Zeeman Interaction:   ---                                      


 Fragment File(s)
 ----------------
 ClH:
         file : /home/tcst25/advanced_comp_chemistry/exercise2/hydrogen/ClHCl/frag1_ClH.t21
         jobid: ADF 2017  RunTime: May09-2019 17:12:35  Nodes: 1  Procs: 12
         title: *** (NO TITLE) ***
 Cl:
         file : /home/tcst25/advanced_comp_chemistry/exercise2/hydrogen/ClHCl/frag2_Cl.t21
         jobid: ADF 2017  RunTime: May09-2019 17:12:35  Nodes: 1  Procs: 12
         title: *** (NO TITLE) ***



                                        ************************************
                                        *  R U N   T Y P E : SINGLE POINT  *
                                        ************************************
  



 ===============
 G E O M E T R Y  ***  Linear Molecule  ***
 ===============
  

 ATOMS
 =====                            X Y Z                    CHARGE
                                (Angstrom)             Nucl     +Core       At.Mass
                       --------------------------    ----------------       -------
    1  Cl             -3.9036   -0.1494   -0.0588     17.00     17.00       34.9689
    2  H              -2.6274    0.3790    0.7297      1.00      1.00        1.0078
    3  Cl             -1.3495    0.9082    1.5193     17.00     17.00       34.9689


 FRAGMENTS
 =========                                     Atoms in this Fragment     Cart. coord.s (Angstrom)
                                               -------------------------------------------------------
    1  ClH                                               1  Cl          -3.9036   -0.1494   -0.0588
                                                         2  H           -2.6274    0.3790    0.7297
    2  Cl                                                3  Cl          -1.3495    0.9082    1.5193


 Interatomic Distance Matrix (Angstrom)
 --------------------------------------

   1)     0.000
   2)     1.590   0.000
   3)     3.183   1.593   0.000

 Min. Distance =    1.5905
 Max. Distance =    3.1831



 =====================================
 S Y M M E T R Y ,   E L E C T R O N S
 =====================================
  
 Symmetry: NOSYM

 Irreducible Representations, including subspecies
 -------------------------------------------------
 A


 Configuration of Valence Electrons
 ==================================
 ( determined in the SCF procedure )

 Total:   36

 Net Charge: -1 (Nuclei minus Electrons)

 Aufbau principle for MO occupations will be applied through SCF cycle no.     125
 Thereafter, the program will assign electrons to MOs that are spatially
 similar to the occupied MOs in a "reference" cycle ("KeepOrbitals").
 The reference cycle is always the PREVIOUS cycle: it will evolve with
 the SCF procedure.
1
 ***************************************************************************************************



                                      ****************************************
                                      *  B U I L D : (Fragments, Functions)  *
                                      ****************************************
  

 The individual fragments are copies of the corresponding 'Master' fragments defined on the fragment files.
 However, they may have been rotated (and translated) with respect to the Master. The local coordinate axes
 of each fragment (which define for instance the spatial orientation in the current molecule of a fragment
 P:x orbital) are not necessarily those of the molecule.
 The local frame (if different from the molecular one) is printed to enable an interpretation of the expan-
 sion of an MO in Fragment Orbitals.



                                             *************************
                                             *  Fragment Type : ClH  *
                                             *************************
  

 Fragment no.    1   (in the list of all fragments)
 -----------------
 The local coordinate frame is identical to the molecular frame.

 Check Atomic Coordinates:

                  Master (on file)          After Computed Tranformation               As specified on Input
           ----------------------------     ----------------------------     ---------------------------------
     1)    -3.90358  -0.14938  -0.05878     -3.90358  -0.14938  -0.05878       1  -3.90358  -0.14938  -0.05878
     2)    -2.62741   0.37905   0.72972     -2.62741   0.37905   0.72972       2  -2.62741   0.37905   0.72972



                                              ************************
                                              *  Fragment Type : Cl  *
                                              ************************
  

 Fragment no.    2   (in the list of all fragments)
 -----------------
 The local coordinate frame is identical to the molecular frame.

 Check Atomic Coordinates:

                  Master (on file)          After Computed Tranformation               As specified on Input
           ----------------------------     ----------------------------     ---------------------------------
     1)    -1.34950   0.90820   1.51929     -1.34950   0.90820   1.51929       3  -1.34950   0.90820   1.51929



 =======
 S F O s  ***  (Symmetrized Fragment Orbitals)  ***
 =======
  
 SFOs are linear combinations of (valence) Fragment Orbitals (FOs), such that the SFOs transform as the
 irreducible representations of the (molecular) symmetry group. Each SFO is therefore characterized by
 an irrep of the molecule and by a few (or only one) generating FOs.
 The SFOs constitute a symmetry-adapted basis for the Fock matrix. The MO eigenvector coefficients in
 this basis provide a direct interpretation of the MOs in terms of Frontier Orbital Theory.

 The SFOs are combined with auxiliary Core Functions (CFs) to ensure orthogonalization on the (frozen)
 Core Orbitals (COs). The Core-orthogonalized SFOs (CSFOs) constitute the true Fock basis.

 The FOs, and hence also the (C)SFOs are combinations of the elementary basis functions (BAS). The basis
 functions that participate in the description of the SFOs depend on the irrep. The indices of the
 involved functions are printed below for each irrep.
 (The complete list of primitive basis functions is printed in another section)

 Total nr. of (C)SFOs (summation over all irreps) :    79

 NOTE: a (C)SFO that is defined as a combination of more than one FO is usually NOT normalized.



                                       === A ===
 Nr. of SFOs :   79
 Cartesian basis functions that participate in this irrep (total number =    88) :
      1     2     3     4    11    12    13     5     8    14
     17    20     6     9    15    18    21     7    10    16
     19    22    23    24    25    26    27    28    29    30
     31    32    33    34    35    36    37    38    39    40
     41    42    43    44    45    46    47    48    49    50
     51    52    53    54    61    62    63    55    58    64
     67    70    56    59    65    68    71    57    60    66
     69    72    73    74    75    76    77    78    79    80
     81    82    83    84    85    86    87    88

    SFO  (index         Fragment          Generating    Expansion in Fragment Orbitals
  indx  incl.CFs)   Occup   Orb.Energy   FragmentType  Coeff.   Orbital     on Fragment
 --------------------------------------------------------------------------------------
     1       1      2.000    -100.736 au  ClH           1.00      1 A               1
                        (   -2741.170 eV)
     2       2      2.000      -9.187 au  ClH           1.00      2 A               1
                        (    -250.003 eV)
     3       3      2.000      -7.018 au  ClH           1.00      3 A               1
                        (    -190.960 eV)
     4       4      2.000      -7.005 au  ClH           1.00      4 A               1
                        (    -190.625 eV)
     5       5      2.000      -7.005 au  ClH           1.00      5 A               1
                        (    -190.625 eV)
     6       6      2.000      -0.739 au  ClH           1.00      6 A               1
                        (     -20.101 eV)
     7       7      2.000      -0.393 au  ClH           1.00      7 A               1
                        (     -10.706 eV)
     8       8      2.000      -0.284 au  ClH           1.00      8 A               1
                        (      -7.726 eV)
     9       9      2.000      -0.284 au  ClH           1.00      9 A               1
                        (      -7.726 eV)
    10      10       --        -0.117 au  ClH           1.00     10 A               1
                        (      -3.177 eV)
    11      11       --         0.061 au  ClH           1.00     11 A               1
                        (       1.660 eV)
    12      12       --         0.210 au  ClH           1.00     12 A               1
                        (       5.711 eV)
    13      13       --         0.230 au  ClH           1.00     13 A               1
                        (       6.253 eV)
    14      14       --         0.230 au  ClH           1.00     14 A               1
                        (       6.253 eV)
    15      15       --         0.303 au  ClH           1.00     15 A               1
                        (       8.250 eV)
    16      16       --         0.303 au  ClH           1.00     16 A               1
                        (       8.250 eV)
    17      17       --         0.333 au  ClH           1.00     17 A               1
                        (       9.056 eV)
    18      18       --         0.420 au  ClH           1.00     18 A               1
                        (      11.418 eV)
    19      19       --         0.420 au  ClH           1.00     19 A               1
                        (      11.418 eV)
    20      20       --         0.509 au  ClH           1.00     20 A               1
                        (      13.845 eV)
    21      21       --         0.651 au  ClH           1.00     21 A               1
                        (      17.711 eV)
    22      22       --         0.651 au  ClH           1.00     22 A               1
                        (      17.711 eV)
    23      23       --         1.008 au  ClH           1.00     23 A               1
                        (      27.439 eV)
    24      24       --         1.187 au  ClH           1.00     24 A               1
                        (      32.297 eV)
    25      25       --         1.187 au  ClH           1.00     25 A               1
                        (      32.298 eV)
    26      26       --         1.220 au  ClH           1.00     26 A               1
                        (      33.197 eV)
    27      27       --         1.220 au  ClH           1.00     27 A               1
                        (      33.197 eV)
    28      28       --         1.347 au  ClH           1.00     28 A               1
                        (      36.661 eV)
    29      29       --         1.348 au  ClH           1.00     29 A               1
                        (      36.682 eV)
    30      30       --         1.348 au  ClH           1.00     30 A               1
                        (      36.682 eV)
    31      31       --         1.880 au  ClH           1.00     31 A               1
                        (      51.155 eV)
    32      32       --         2.111 au  ClH           1.00     32 A               1
                        (      57.435 eV)
    33      33       --         2.111 au  ClH           1.00     33 A               1
                        (      57.435 eV)
    34      34       --         2.156 au  ClH           1.00     34 A               1
                        (      58.673 eV)
    35      35       --         2.433 au  ClH           1.00     35 A               1
                        (      66.204 eV)
    36      36       --         2.699 au  ClH           1.00     36 A               1
                        (      73.432 eV)
    37      37       --         2.699 au  ClH           1.00     37 A               1
                        (      73.433 eV)
    38      38       --         3.208 au  ClH           1.00     38 A               1
                        (      87.306 eV)
    39      39       --         3.208 au  ClH           1.00     39 A               1
                        (      87.307 eV)
    40      40       --         3.962 au  ClH           1.00     40 A               1
                        (     107.818 eV)
    41      41       --        13.152 au  ClH           1.00     41 A               1
                        (     357.871 eV)
    42      42       --        18.892 au  ClH           1.00     42 A               1
                        (     514.085 eV)
    43      43       --        18.892 au  ClH           1.00     43 A               1
                        (     514.086 eV)
    44      44       --        19.414 au  ClH           1.00     44 A               1
                        (     528.279 eV)
    45      45       --       216.239 au  ClH           1.00     45 A               1
                        (    5884.163 eV)
    46      46      2.000    -100.372 au  Cl            1.00      1 A               2
                        (   -2731.270 eV)
    47      47      2.000      -8.827 au  Cl            1.00      2 A               2
                        (    -240.193 eV)
    48      48      2.000      -6.649 au  Cl            1.00      3 A               2
                        (    -180.916 eV)
    49      49      2.000      -6.649 au  Cl            1.00      4 A               2
                        (    -180.916 eV)
    50      50      2.000      -6.649 au  Cl            1.00      5 A               2
                        (    -180.916 eV)
    51      51      2.000      -0.385 au  Cl            1.00      6 A               2
                        (     -10.473 eV)
    52      52      2.000       0.033 au  Cl            1.00      7 A               2
                        (       0.909 eV)
    53      53      2.000       0.033 au  Cl            1.00      8 A               2
                        (       0.909 eV)
    54      54      2.000       0.033 au  Cl            1.00      9 A               2
                        (       0.909 eV)
    55      55       --         0.475 au  Cl            1.00     10 A               2
                        (      12.914 eV)
    56      56       --         0.489 au  Cl            1.00     11 A               2
                        (      13.299 eV)
    57      57       --         0.489 au  Cl            1.00     12 A               2
                        (      13.299 eV)
    58      58       --         0.489 au  Cl            1.00     13 A               2
                        (      13.299 eV)
    59      59       --         0.741 au  Cl            1.00     14 A               2
                        (      20.162 eV)
    60      60       --         0.741 au  Cl            1.00     15 A               2
                        (      20.162 eV)
    61      61       --         0.741 au  Cl            1.00     16 A               2
                        (      20.162 eV)
    62      62       --         0.741 au  Cl            1.00     17 A               2
                        (      20.162 eV)
    63      63       --         0.741 au  Cl            1.00     18 A               2
                        (      20.162 eV)
    64      64       --         1.518 au  Cl            1.00     19 A               2
                        (      41.294 eV)
    65      65       --         1.518 au  Cl            1.00     20 A               2
                        (      41.294 eV)
    66      66       --         1.518 au  Cl            1.00     21 A               2
                        (      41.294 eV)
    67      67       --         1.518 au  Cl            1.00     22 A               2
                        (      41.294 eV)
    68      68       --         1.518 au  Cl            1.00     23 A               2
                        (      41.294 eV)
    69      69       --         1.518 au  Cl            1.00     24 A               2
                        (      41.294 eV)
    70      70       --         1.518 au  Cl            1.00     25 A               2
                        (      41.294 eV)
    71      71       --         2.351 au  Cl            1.00     26 A               2
                        (      63.962 eV)
    72      72       --         2.448 au  Cl            1.00     27 A               2
                        (      66.612 eV)
    73      73       --         2.448 au  Cl            1.00     28 A               2
                        (      66.612 eV)
    74      74       --         2.448 au  Cl            1.00     29 A               2
                        (      66.612 eV)
    75      75       --        13.113 au  Cl            1.00     30 A               2
                        (     356.814 eV)
    76      76       --        19.210 au  Cl            1.00     31 A               2
                        (     522.735 eV)
    77      77       --        19.210 au  Cl            1.00     32 A               2
                        (     522.735 eV)
    78      78       --        19.210 au  Cl            1.00     33 A               2
                        (     522.735 eV)
    79      79       --       215.062 au  Cl            1.00     34 A               2
                        (    5852.138 eV)



 ================================
 (Slater-type)  F U N C T I O N S  ***  (Basis and Fit)  ***
 ================================
  

 Atom Type    1  (Cl)
 ==============

 Valence Basis Sets:  14
 -----------------------
   1 S   20.300000
   1 S   15.250000
   2 S    6.250000
   2 S    4.450000
   2 P    8.850000
   2 P    5.050000
   3 S    3.450000
   3 S    2.300000
   3 S    1.600000
   3 P    3.350000
   3 P    2.050000
   3 P    1.200000
   3 D    2.000000
   4 F    2.000000

 Atom Type    2  (H)
 ==============

 Valence Basis Sets:   5
 -----------------------
   1 S    0.690000
   1 S    0.920000
   1 S    1.580000
   2 P    1.250000
   3 D    2.500000

 Atom Type    3  (Cl)
 ==============

 Valence Basis Sets:  14
 -----------------------
   1 S   20.300000
   1 S   15.250000
   2 S    6.250000
   2 S    4.450000
   2 P    8.850000
   2 P    5.050000
   3 S    3.450000
   3 S    2.300000
   3 S    1.600000
   3 P    3.350000
   3 P    2.050000
   3 P    1.200000
   3 D    2.000000
   4 F    2.000000


 BAS: List of all Elementary Cartesian Basis Functions
 =====================================================

 The numbering in the list below (to the right of the function characteristics) is referred
 to in print-outs of MO eigenvectors and Mulliken populations in the BAS representation
 (as contrasted to the SFO representation).

 Notes:
 1. The functions are characterized by a polynomial prefactor (powers of x,y,z and r) and
    an exponential decay factor alpha.
 2. Since the basis sets are specific for an atom TYPE, the individual functions occur on
    all atoms of that type.
 3. The word 'Core' in the left margin signals that it is a Core Function (CF) : not a
    degree of freedom in the valence set, but only used to ensure orthogonalization of
    the other valence basis functions on the frozen Core Orbitals.


 (power of) X  Y  Z  R     Alpha  on Atom
            ==========     =====     ==========

 Cl                                   1
                                  ---------------------------------------------------------------------------
            0  0  0  0    20.300      1
            0  0  0  0    15.250      2
            0  0  0  1     6.250      3
            0  0  0  1     4.450      4
            1  0  0  0     8.850      5
            0  1  0  0     8.850      6
            0  0  1  0     8.850      7
            1  0  0  0     5.050      8
            0  1  0  0     5.050      9
            0  0  1  0     5.050     10
            0  0  0  2     3.450     11
            0  0  0  2     2.300     12
            0  0  0  2     1.600     13
            1  0  0  1     3.350     14
            0  1  0  1     3.350     15
            0  0  1  1     3.350     16
            1  0  0  1     2.050     17
            0  1  0  1     2.050     18
            0  0  1  1     2.050     19
            1  0  0  1     1.200     20
            0  1  0  1     1.200     21
            0  0  1  1     1.200     22
            2  0  0  0     2.000     23
            1  1  0  0     2.000     24
            1  0  1  0     2.000     25
            0  2  0  0     2.000     26
            0  1  1  0     2.000     27
            0  0  2  0     2.000     28
            3  0  0  0     2.000     29
            2  1  0  0     2.000     30
            2  0  1  0     2.000     31
            1  2  0  0     2.000     32
            1  1  1  0     2.000     33
            1  0  2  0     2.000     34
            0  3  0  0     2.000     35
            0  2  1  0     2.000     36
            0  1  2  0     2.000     37
            0  0  3  0     2.000     38

 H                                    2
                                  ---------------------------------------------------------------------------
            0  0  0  0     0.690     39
            0  0  0  0     0.920     40
            0  0  0  0     1.580     41
            1  0  0  0     1.250     42
            0  1  0  0     1.250     43
            0  0  1  0     1.250     44
            2  0  0  0     2.500     45
            1  1  0  0     2.500     46
            1  0  1  0     2.500     47
            0  2  0  0     2.500     48
            0  1  1  0     2.500     49
            0  0  2  0     2.500     50

 Cl                                   3
                                  ---------------------------------------------------------------------------
            0  0  0  0    20.300     51
            0  0  0  0    15.250     52
            0  0  0  1     6.250     53
            0  0  0  1     4.450     54
            1  0  0  0     8.850     55
            0  1  0  0     8.850     56
            0  0  1  0     8.850     57
            1  0  0  0     5.050     58
            0  1  0  0     5.050     59
            0  0  1  0     5.050     60
            0  0  0  2     3.450     61
            0  0  0  2     2.300     62
            0  0  0  2     1.600     63
            1  0  0  1     3.350     64
            0  1  0  1     3.350     65
            0  0  1  1     3.350     66
            1  0  0  1     2.050     67
            0  1  0  1     2.050     68
            0  0  1  1     2.050     69
            1  0  0  1     1.200     70
            0  1  0  1     1.200     71
            0  0  1  1     1.200     72
            2  0  0  0     2.000     73
            1  1  0  0     2.000     74
            1  0  1  0     2.000     75
            0  2  0  0     2.000     76
            0  1  1  0     2.000     77
            0  0  2  0     2.000     78
            3  0  0  0     2.000     79
            2  1  0  0     2.000     80
            2  0  1  0     2.000     81
            1  2  0  0     2.000     82
            1  1  1  0     2.000     83
            1  0  2  0     2.000     84
            0  3  0  0     2.000     85
            0  2  1  0     2.000     86
            0  1  2  0     2.000     87
            0  0  3  0     2.000     88

 Total number of charge fitting functions (nprimf)       262
 Total number of Cartesian basis functions (naos)         88
 Total number of Cartesian core functions  (ncos)          0

1
 ***************************************************************************************************



                                              ***********************
                                              *  T E C H N I C A L  *
                                              ***********************
  



 =============================================================
 P A R A L L E L I Z A T I O N  and  V E C T O R I Z A T I O N
 =============================================================
  
 Nr of parallel processes:                               12
 Maximum vector length in NumInt loops:                 128

 IO buffersize (Mb):                                     64.000000



 =====================
 S C F   U P D A T E S
 =====================
  
 Max. nr. of cycles:                               250
 Convergence criterion:                              0.0000010000
   secondary criterion:                              0.0010000000

 Mix parameter (when DIIS does not apply):           0.2000000000
 Mixed ADIIS+DIIS will be used
    Max number of expansion vectors:                10
    Pure ADIIS when Max([F,P]) is above              0.1000000000
    Pure DIIS when Max([F,P]) is below               0.0010000000
 Automatic ElectronSmearing (in case of problematic SCF convergence) disabled



 =================
 P R E C I S I O N  ***  (General: NumInt, NeglectFunctionTails, ...)  ***
 =================
  

 NumInt:           Target precision:                 6.0000000000
 -------           Initial precision:                6.0000000000
                   Min. precision (optimization):    6.0000000000

 Neglect Functions:          Basis functions:        0.1000000000E-07
 ------------------          Fit functions:          0.1000000000E-07



 ===========================
 L I N E A R   S C A L I N G
 ===========================
  

 Cut-off radii density fit:                        0.1000000000E-09
 Overlap cut-off criterion AO matrix elements:     0.1000000000E-07
 Cut-offs for Coulomb potential and fitted density:0.1000000000E-09
 Cut-off criterion for Coulomb multipole terms:    0.1000000000E-09
 Progressive Convergence parameter:                 0.000000000    
1
 ***************************************************************************************************



                                            ***************************
                                            *  C O M P U T A T I O N  *
                                            ***************************
  

 Number of elements of the density matrix on this node (used, total):       741      3916



 ===========================================
 Numerical Integration : Fuzzy Cells (Becke)
 ===========================================
  
 Becke grid quality: GOOD           
  
 Lebedev angular grid order:             min:  11 max:  31
 Nr. of radial points:                   min:  54 max:  80

 Total nr. of points:      46192
 Nr. of blocks:              361
 Block length:               128
 Nr. of dummy points:         16


 Test of Precision of the Numerical Integration Grid
 ===================================================

 Integral of the Total Core Density:                   0.00000000000000



 ========================
 Density Fitting (zlmFit)
 ========================
  
 ZlmFit Fit Quality: NORMAL         
  
 Max L-expansion:                        min:   6 max:   7
 Nr. of radial interpolation points:     min:  39 max:  60



 =====
 S C F  ***  ScaSCF  ***
 =====
  
 Initial density matrix is calculated as sum of fragments

 CYCLE    1
 SCF Error: norm([F,P])=      0.818798640196, max([F,P])=      0.507174520608
 orbitals (Q,E):
 ---------------
 A :9...28           ( 2.00    -6.7013)  ( 2.00    -6.7013)  ( 2.00    -0.5831)  ( 2.00    -0.4602)
                     ( 2.00    -0.2209)  ( 2.00    -0.1342)  ( 2.00    -0.1342)  ( 2.00    -0.0607)
                     ( 2.00    -0.0189)  ( 2.00    -0.0189)  ( 0.00     0.1809)  ( 0.00     0.2425)
                     ( 0.00     0.3566)  ( 0.00     0.3780)  ( 0.00     0.3780)  ( 0.00     0.4424)
                     ( 0.00     0.4540)  ( 0.00     0.4540)  ( 0.00     0.4946)  ( 0.00     0.4969)

 CYCLE    2
   MIX coefficients:  0.8000  0.2000
 SCF Error: norm([F,P])=      0.335171258182, max([F,P])=      0.099071671289
 orbitals (Q,E):
 ---------------
 A :9...19           ( 2.00    -6.7368)  ( 2.00    -6.7368)  ( 2.00    -0.5501)  ( 2.00    -0.4819)
                     ( 2.00    -0.2057)  ( 2.00    -0.1038)  ( 2.00    -0.1038)  ( 2.00    -0.0663)
                     ( 2.00    -0.0408)  ( 2.00    -0.0408)  ( 0.00     0.1835)

 CYCLE    3
  SDIIS (wt  0.000): -0.7565  1.7565
 A-DIIS (wt  1.000):  0.0000  1.0000
  DIIS coefficients:  0.0000  1.0000
 SCF Error: norm([F,P])=      0.158073792923, max([F,P])=      0.049958881377
 orbitals (Q,E):
 ---------------
 A :9...19           ( 2.00    -6.6714)  ( 2.00    -6.6714)  ( 2.00    -0.5433)  ( 2.00    -0.4601)
                     ( 2.00    -0.1984)  ( 2.00    -0.0969)  ( 2.00    -0.0968)  ( 2.00    -0.0505)
                     ( 2.00    -0.0245)  ( 2.00    -0.0245)  ( 0.00     0.1874)

 CYCLE    4
  SDIIS (wt  0.000):  0.2239  0.3462  0.4299
 A-DIIS (wt  1.000):  0.0000  0.6838  0.3162
  DIIS coefficients:  0.0000  0.6838  0.3162
 SCF Error: norm([F,P])=      0.297134712185, max([F,P])=      0.085811372851
 orbitals (Q,E):
 ---------------
 A :9...19           ( 2.00    -6.7470)  ( 2.00    -6.7470)  ( 2.00    -0.5213)  ( 2.00    -0.4906)
                     ( 2.00    -0.1943)  ( 2.00    -0.0738)  ( 2.00    -0.0738)  ( 2.00    -0.0604)
                     ( 2.00    -0.0557)  ( 2.00    -0.0556)  ( 0.00     0.1869)

 CYCLE    5
  SDIIS (wt  0.895): -0.0333  0.2873  0.0216  0.7244
 A-DIIS (wt  0.105):  0.0000  0.0000  0.0000  1.0000
  DIIS coefficients: -0.0298  0.2571  0.0193  0.7534
 SCF Error: norm([F,P])=      0.041572893969, max([F,P])=      0.011429053746
 orbitals (Q,E):
 ---------------
 A :9...19           ( 2.00    -6.7554)  ( 2.00    -6.7554)  ( 2.00    -0.5229)  ( 2.00    -0.4942)
                     ( 2.00    -0.1963)  ( 2.00    -0.0741)  ( 2.00    -0.0741)  ( 2.00    -0.0631)
                     ( 2.00    -0.0595)  ( 2.00    -0.0595)  ( 0.00     0.1860)

 CYCLE    6
  SDIIS (wt  0.981): -0.0262  0.1021 -0.0070  0.3050  0.6261
 A-DIIS (wt  0.019):  0.0000  0.0000  0.0000  0.0000  1.0000
  DIIS coefficients: -0.0257  0.1002 -0.0069  0.2993  0.6331
 SCF Error: norm([F,P])=      0.008042929219, max([F,P])=      0.002853400523
 orbitals (Q,E):
 ---------------
 A :9...19           ( 2.00    -6.7546)  ( 2.00    -6.7546)  ( 2.00    -0.5224)  ( 2.00    -0.4937)
                     ( 2.00    -0.1959)  ( 2.00    -0.0737)  ( 2.00    -0.0737)  ( 2.00    -0.0627)
                     ( 2.00    -0.0592)  ( 2.00    -0.0592)  ( 0.00     0.1863)

 CYCLE    7
  SDIIS (wt  1.000): -0.0064  0.0232  0.0006  0.0611  0.2229  0.6986
  DIIS coefficients: -0.0064  0.0232  0.0006  0.0611  0.2229  0.6986
 SCF Error: norm([F,P])=      0.001575680813, max([F,P])=      0.000556292341
 orbitals (Q,E):
 ---------------
 A :9...19           ( 2.00    -6.7549)  ( 2.00    -6.7549)  ( 2.00    -0.5225)  ( 2.00    -0.4939)
                     ( 2.00    -0.1960)  ( 2.00    -0.0738)  ( 2.00    -0.0738)  ( 2.00    -0.0628)
                     ( 2.00    -0.0593)  ( 2.00    -0.0593)  ( 0.00     0.1862)

 CYCLE    8
  SDIIS (wt  1.000): -0.0029  0.0091  0.0004  0.0203  0.0861  0.3319  0.5551
  DIIS coefficients: -0.0029  0.0091  0.0004  0.0203  0.0861  0.3319  0.5551
 SCF Error: norm([F,P])=      0.000396952181, max([F,P])=      0.000134287025
 orbitals (Q,E):
 ---------------
 A :9...19           ( 2.00    -6.7549)  ( 2.00    -6.7548)  ( 2.00    -0.5225)  ( 2.00    -0.4938)
                     ( 2.00    -0.1959)  ( 2.00    -0.0738)  ( 2.00    -0.0738)  ( 2.00    -0.0628)
                     ( 2.00    -0.0592)  ( 2.00    -0.0592)  ( 0.00     0.1862)

 CYCLE    9
  SDIIS (wt  1.000): -0.0001  0.0003  0.0000  0.0011  0.0048  0.0303  0.1780  0.7856
  DIIS coefficients: -0.0001  0.0003  0.0000  0.0011  0.0048  0.0303  0.1780  0.7856
 SCF Error: norm([F,P])=      0.000076267354, max([F,P])=      0.000027147956
 orbitals (Q,E):
 ---------------
 A :9...19           ( 2.00    -6.7549)  ( 2.00    -6.7549)  ( 2.00    -0.5225)  ( 2.00    -0.4938)
                     ( 2.00    -0.1959)  ( 2.00    -0.0738)  ( 2.00    -0.0738)  ( 2.00    -0.0628)
                     ( 2.00    -0.0592)  ( 2.00    -0.0592)  ( 0.00     0.1862)

 CYCLE   10
  SDIIS (wt  1.000):  0.0000 -0.0001 -0.0000  0.0000 -0.0002  0.0020  0.0386  0.2047  0.7548
  DIIS coefficients:  0.0000 -0.0001 -0.0000  0.0000 -0.0002  0.0020  0.0386  0.2047  0.7548
 SCF Error: norm([F,P])=      0.000006806295, max([F,P])=      0.000001366737
 orbitals (Q,E):
 ---------------
 A :9...19           ( 2.00    -6.7549)  ( 2.00    -6.7548)  ( 2.00    -0.5225)  ( 2.00    -0.4938)
                     ( 2.00    -0.1959)  ( 2.00    -0.0738)  ( 2.00    -0.0738)  ( 2.00    -0.0628)
                     ( 2.00    -0.0592)  ( 2.00    -0.0592)  ( 0.00     0.1862)

 CYCLE   11
  SDIIS (wt  1.000):  0.0000 -0.0000 -0.0000  0.0000 -0.0001  0.0003  0.0091  0.0480  0.2761  0.6665
  DIIS coefficients:  0.0000 -0.0000 -0.0000  0.0000 -0.0001  0.0003  0.0091  0.0480  0.2761  0.6665
 SCF Error: norm([F,P])=      0.000001832242, max([F,P])=      0.000000493128
 orbitals (Q,E):
 ---------------
 A :9...19           ( 2.00    -6.7549)  ( 2.00    -6.7549)  ( 2.00    -0.5225)  ( 2.00    -0.4938)
                     ( 2.00    -0.1959)  ( 2.00    -0.0738)  ( 2.00    -0.0738)  ( 2.00    -0.0628)
                     ( 2.00    -0.0592)  ( 2.00    -0.0592)  ( 0.00     0.1862)

 SCF CONVERGED

 CYCLE   12
1
 ***************************************************************************************************



                                                *******************
                                                *  R E S U L T S  *
                                                *******************
  
 *** Setting up for NEW gradients in Focky
 *** Using FIT density in Focky

 Orbital Energies, per Irrep and Spin:
 ======================================
                        Occup              E (au)              E (eV)       Diff (eV) with prev. cycle
                        -----      --------------------        ------       --------------------------
 A
               9        2.000     -0.67548565922453E+01      -183.809               8.44E-07
              10        2.000     -0.67548502704503E+01      -183.809               8.44E-07
              11        2.000     -0.52248841379668E+00       -14.218              -1.51E-07
              12        2.000     -0.49382685037905E+00       -13.438               7.90E-08
              13        2.000     -0.19592547970568E+00        -5.331              -6.70E-07
              14        2.000     -0.73781022082128E-01        -2.008               9.02E-08
              15        2.000     -0.73777251726110E-01        -2.008               9.01E-08
              16        2.000     -0.62777317702827E-01        -1.708              -1.95E-07
              17        2.000     -0.59241618591110E-01        -1.612               1.63E-07
              18        2.000     -0.59236801536905E-01        -1.612               1.63E-07
              19        0.000      0.18622227236726E+00         5.067
              20        0.000      0.24593615426851E+00         6.692
              21        0.000      0.38417447458094E+00        10.454
              22        0.000      0.39519939822457E+00        10.754
              23        0.000      0.39519982052346E+00        10.754
              24        0.000      0.42810493331293E+00        11.649
              25        0.000      0.46383906797875E+00        12.622
              26        0.000      0.46384280289571E+00        12.622
              27        0.000      0.49910553345223E+00        13.581
              28        0.000      0.49911295214956E+00        13.582
  
 HOMO :       18 A                -0.59236801536905E-01
 LUMO :       19 A                 0.18622227236726E+00
  


 All Electron Calculation, thus no Orbital Energies of the Core Orbitals are calculated


 Fit test: (difference of exact and fit density, squared integrated, result summed over spins)
         Sum-of-Fragments:                             0.00015639471315
         Orthogonalized Fragments:                     0.00016387082913
         SCF:                                          0.00016340623096



 ==========================
 Electron Density at Nuclei
 ==========================
  
 The electron density is calculated at points on a small sphere around the center of a nucleus.
 The printed electron density is the average electron density on these points.
 The radius of the sphere is the printed approximate finite nuclear radius.

         Atom        Nuclear Radius (Angstrom)             Electron Density (a.u.)
         ----        -------------------------             -----------------------
     1)   Cl                0.0000426624                             3210.24291
     2)   H                 0.0000181514                                0.32241
     3)   Cl                0.0000426624                             3210.24317



 =======================================
 M U L L I K E N   P O P U L A T I O N S
 =======================================
  
 The survey below gives for each atom:
 a) the total charge (Z minus electrons)
 b) the net spin polarization (nr of electrons spin-A minus spin-B)
 c) for each spin the atomic electron valence density (integrated) per L-value.

 Atom              Charge    Spin density          S         P         D         F
 ----              ------    ------------       ------    ------    ------    ------
 1 Cl             -0.5592                       5.9479   11.5916    0.0168    0.0030
 2 H               0.1202                       0.7149    0.1588    0.0061    0.0000
 3 Cl             -0.5609                       5.9482   11.5931    0.0167    0.0030

 Populations of individual BAS functions
 ----------------------------------------
 1 Cl           0.5055  1.4530  1.7105  0.2591  0.7254  0.7273  0.7268  1.2731  1.2703  1.2710
                0.5924  1.0209  0.4064  0.2706  0.2986  0.2915  0.9960  1.0365  1.0262  0.4877
                0.6109  0.5797  0.0089  0.0036  0.0075 -0.0033  0.0014 -0.0014  0.0056  0.0049
                0.0061 -0.0040  0.0007 -0.0012 -0.0044 -0.0020  0.0001 -0.0029
 2 H           -0.2631  0.7595  0.2186  0.0740  0.0378  0.0470  0.0050  0.0014  0.0019 -0.0022
                0.0006 -0.0005
 3 Cl           0.5055  1.4530  1.7106  0.2591  0.7254  0.7273  0.7268  1.2731  1.2703  1.2710
                0.5925  1.0207  0.4069  0.2707  0.2986  0.2915  0.9958  1.0361  1.0259  0.4887
                0.6115  0.5804  0.0089  0.0036  0.0074 -0.0033  0.0014 -0.0014  0.0055  0.0049
                0.0061 -0.0040  0.0007 -0.0012 -0.0044 -0.0020  0.0001 -0.0029

 Gross Charges per Atom (Z minus electrons)
 ==========================================
            -0.5592    0.1202   -0.5609
 Net Total: -1.00000000


 Atom-Atom Population Matrix (off-diagonal elements not doubled)
 ===============================================================

     1 :    17.4410
     2 :     0.2308    0.4187
     3 :    -0.1126    0.2303   17.4432


 Frag-Frag Population Matrix (off-diagonal elements not doubled)
 ===============================================================

     1 :    18.3213
     2 :     0.1177   17.4432



 =================================================
 H I R S H F E L D   C H A R G E   A N A L Y S I S
 =================================================
  
 For each fragment: the (numerical) integral of rho(scf) * rho(fragment)/rho(sum-of-fragments)
 (nuclear charges are included, electrons are counted negative)

 The fragments and their ordering are defined in the early G E O M E T R Y output section.
 If you use single-atom fragments, this usually implies that all atoms of the same
 chemical type are grouped together. This may not be the order in which you listed them
 in the input file!

    1  ClH                      -0.2856
    2  Cl                       -0.7144

 Sum of these charges (accuracy NumInt/Tails) =          -1.00000269



 =============================
 V O R O N O I   C H A R G E S
 =============================
  
 For each atom: the (numerical) integral of the total electronic charge density in its Voronoi cell,
 i.e. the region of space that is closer to that atom than to any other atom.
 (cf. Wigner-Seitz cells in crystals)

 Within the Voronoi cell the subintegrals over the atomic sphere and the remaining part are evaluated
 separately to give the numbers of electrons (negative charge) in these regions.
 The net total charge in the cell (including the nuclear charge) is also given.

 Values are provided for
    a) the Initial (sum-of-fragments) density
    b) the Orthogonalized-Fragments density
    c) the SCF density
    d) the Voronoi Deformation Density (VDD): the difference SCF-Initial for the complete atomic cell
 ---------------------------------------------------------------------------------------------------
 Total NetCharge:              -1.000                     -1.000                     -1.000    0.000
 (accuracy NumInt/Tails)

 Remark: the 'NetTotal' Voronoi charges often do not match the Mulliken and/or Hirshfeld charges very
 well. This is caused by the fact that chemically different atoms are not treated in accordance with
 their relative sizes. (Voronoi cells are defined by boundary planes halfway between the atoms.)
 However, the CHANGES in charge, comparing 'Initial' to 'SCF' for instance, do give a fair indication
 of the flow of charge caused by the relaxation from sum-of-fragments to self-consistency.

 Warning: the absolute accuracy of the VDD charges obtained using the Fuzzy Cells (Becke) integration
 scheme is much poorer than the one obtained with an 'equivalent' Voronoi integration grid. 



 =================================================================
 M U L T I P O L E   D E R I V E D   C H A R G E   A N A L Y S I S
 =================================================================

 This charge analysis uses the atomic multipoles (obtained from the fitted density) up to some level X,
 and reconstructs these multipoles exactly (up to level X) by distributing charges over all atoms.
 This is achieved by using Lagrange multipliers and a weight function to keep the multipoles local.

 Dummy atoms can be included (by setting INCDUM in MDC-block to 1) to obtain a fractional charge.
 This is generally useful and necessary only for small symmetrical molecules, when there are not
 enough degrees of freedom to reconstruct the multipoles.

 Since the atomic multipoles are reconstructed up to level X,
 the molecular multipoles are represented also up to level X.
 The recommended level is to reconstruct up to quadrupole : -> MDC-q charges.

 See: M. Swart, P.Th. van Duijnen, J.G. Snijders, J.Comput.Chem., (2001), p. 79-88.

 ------------------------------------------------------------- 
 Atomic electronic multipole moments from SCF equations (a.u.)
 ------------------------------------------------------------- 

   atom        charge        dip-x     dip-y     dip-z      quad-xx   quad-xy   quad-xz   quad-yy   quad-yz   quad-zz
 --------------------------------------------------------------------------------------------------------------------
    1 Cl    -0.314075     0.566209  0.234443  0.349878     0.840315  0.481006  0.717773 -0.603448  0.297180 -0.236867
    2 H     -0.369691     0.000041  0.000018  0.000026     0.128842  0.073874  0.110314 -0.092510  0.045696 -0.036331
    3 Cl    -0.316234    -0.565350 -0.234087 -0.349348     0.839494  0.480535  0.717072 -0.602860  0.296890 -0.236634

 --------------------------------------- 
 Multipole derived atomic charges (a.u.)
 --------------------------------------- 

 The MDC-m charges are just the Monopole terms in the multipole expansion, while for the MDC-d charges
 also the Dipoles are reconstructed. The usually preferred charges are the MDC-q charges.
 These reconstruct the Monopoles, Dipoles and Quadrupoles (both atomic AND molecular).

        Atom    Level:     MDC-m        MDC-d        MDC-q
 ---------------------------------------------------------
     1     Cl          -0.314075    -0.524442    -0.693204
     2     H           -0.369691     0.050381     0.387675
     3     Cl          -0.316234    -0.525940    -0.694471

 ------------------------------------------------ 
 Average absolute deviations in atomic multipoles
 ------------------------------------------------ 

 Stated here are the average differences between the atomic multipoles
 and the reconstructed atomic multipoles (from the distributed charges).
 If these values are not zero, this means there are not enough degrees of freedom,
 to be able to reconstruct the atomic multipoles. (This usually happens only
 for small and/or highly symmetric molecules). If this is the case, one could add
 dummy atoms as extra point charges (and setting INCDUM in MDC-block to 1).

 Level:                                 MDC-d        MDC-q
 ---------------------------------------------------------
 Charge   (a.u.)                       0.0000       0.0000
 Dipole   (Debye)                      0.0000       0.0000
 Quad.    (a.u.)                       0.3900       0.1398

 --------------------------------------- 
 Represented molecular multipole moments
 --------------------------------------- 

 Given here are the Molecular multipole moments from the atomic charges, and from the Fit Density.
 Note that the atomic charges represent the latter, NOT the ones from the Exact density.

            Q (a.u.)             Dipole moment (Debye)                                          Quadrupole moment (a.u.)
                                 x         y         z              xx        xy        xz        yy        yz        zz
------------------------------------------------------------------------------------------------------------------------
MDC-m        -1.0000       12.6041   -1.8272   -3.5148        -26.0310    3.0673    6.8838   14.6410   -2.8999   11.3900
MDC-d        -1.0000       12.6064   -1.8263   -3.5134        -27.8107    1.5460    4.6142   15.9160   -3.8373   11.8947
MDC-q        -1.0000       12.6064   -1.8263   -3.5134        -29.2317    0.3259    2.7936   16.9363   -4.5912   12.2954
 
Fit.Dens.    -1.0000       12.6064   -1.8263   -3.5134        -28.1830    0.7088    3.3647   16.1834   -4.3547   11.9996



 =============
 Dipole Moment  ***  (Debye)  ***
 =============
  
 Vector   :        12.60640046     -1.82627865     -3.51338529
 Magnitude:        13.21364834

 This molecular dipole moment is calculated with analytic integration
 ************************************************************************************
 Since the molecule is NOT NEUTRAL, the dipole moment depends on the choice of origin
 ************************************************************************************



 =========================================
 Quadrupole Moment (Buckingham convention)  ***  (a.u.)  ***
 =========================================
  
      quad-xx        quad-xy        quad-xz        quad-yy        quad-yz        quad-zz
    -28.18952553     1.22063444     4.12848157    16.18808694    -4.03846026    12.00143859

 This molecular quadrupole moment is calculated with analytic integration
1



                                             *************************
                                             *  SFO MO coefficients  *
                                             *************************
  


                                       === A ===
 MOs expanded in CFs+SFOs
 ========================

 The SFOs have been characterized in an earlier part of output.
 To deduce the bonding / antibonding nature of SFO combinations in an MO, consider the products
 of the coefficients AND THE OVERLAP between the SFOs (may be NEGATIVE). The SFO overlap matrix
 is printed later, in the SFO Populations section.

 (The CF coefficients are not printed)

 MOs :      1        2        3        4        5        6        7        8        9       10
 occup:   2.00     2.00     2.00     2.00     2.00     2.00     2.00     2.00     2.00     2.00
 CF+SFO
     1  -1.0000   0.0002   0.0001   0.0000   0.0000  -0.0000  -0.0000   0.0000  -0.0000  -0.0000
     2   0.0001   0.0000   0.9999  -0.0133   0.0031  -0.0000  -0.0000   0.0000  -0.0000  -0.0000
     3   0.0000   0.0000  -0.0031   0.0001   1.0000   0.0012  -0.0001   0.0001   0.0000  -0.0000
     4  -0.0000  -0.0000   0.0000  -0.0000   0.0001   0.0000   0.9988  -0.0492  -0.0002   0.0000
     5   0.0000  -0.0000  -0.0000   0.0000  -0.0001  -0.0000   0.0492   0.9988  -0.0000  -0.0002
     6  -0.0000   0.0000  -0.0001   0.0006  -0.0000   0.0001  -0.0000  -0.0000   0.0000  -0.0000
     7   0.0000   0.0000   0.0010   0.0009  -0.0002   0.0005  -0.0000  -0.0000   0.0000  -0.0000
     8  -0.0000  -0.0000  -0.0000  -0.0000   0.0000   0.0000   0.0000   0.0000   0.0000   0.0000
     9  -0.0000  -0.0000  -0.0000  -0.0000   0.0000  -0.0000  -0.0000   0.0000  -0.0000   0.0000
    10  -0.0001  -0.0000  -0.0016  -0.0010   0.0000  -0.0007   0.0000   0.0000  -0.0000   0.0000
    11   0.0000   0.0001   0.0011   0.0015  -0.0001  -0.0000  -0.0000  -0.0000  -0.0000  -0.0000
    12   0.0000   0.0000   0.0003   0.0003   0.0001   0.0002  -0.0000  -0.0000   0.0000  -0.0000
    13   0.0000  -0.0000  -0.0000  -0.0000   0.0000   0.0000   0.0001  -0.0000   0.0000  -0.0000
    14   0.0000   0.0000   0.0000   0.0000   0.0000   0.0000   0.0000   0.0001   0.0000   0.0000
    15  -0.0000  -0.0000   0.0000  -0.0000   0.0000   0.0000   0.0001  -0.0000  -0.0001   0.0000
    16   0.0000   0.0000   0.0000   0.0000   0.0000  -0.0000   0.0000   0.0001  -0.0000  -0.0001
    17   0.0000   0.0000   0.0002   0.0003  -0.0001   0.0001  -0.0000  -0.0000   0.0000  -0.0000
    18  -0.0000   0.0000  -0.0000   0.0000  -0.0000  -0.0000  -0.0000  -0.0000  -0.0000   0.0000
    19  -0.0000   0.0000  -0.0000   0.0000   0.0000  -0.0000   0.0000   0.0000  -0.0000   0.0000
    20   0.0000  -0.0000   0.0005  -0.0006   0.0001   0.0004  -0.0000  -0.0000   0.0000  -0.0000
    21  -0.0000  -0.0000   0.0000  -0.0000  -0.0000  -0.0000   0.0001   0.0000   0.0002   0.0000
    22  -0.0000  -0.0000   0.0000  -0.0000   0.0000   0.0000  -0.0000   0.0001  -0.0000   0.0002
    23   0.0000  -0.0000   0.0003  -0.0004  -0.0001   0.0002  -0.0000  -0.0000   0.0000  -0.0000
    24  -0.0000   0.0000   0.0000   0.0000   0.0000   0.0000   0.0000  -0.0000   0.0000  -0.0000
    25   0.0000  -0.0000  -0.0000  -0.0000  -0.0000   0.0000   0.0000  -0.0000   0.0000  -0.0000
    26   0.0000   0.0000  -0.0000   0.0000  -0.0000  -0.0000  -0.0000   0.0000   0.0000   0.0000
    27  -0.0000  -0.0000  -0.0000  -0.0000  -0.0000   0.0000   0.0000   0.0000  -0.0000  -0.0000
    28  -0.0000   0.0000   0.0000   0.0003   0.0003  -0.0000   0.0000   0.0000   0.0000   0.0000
    29  -0.0000   0.0000  -0.0000   0.0000   0.0000  -0.0000  -0.0000  -0.0001  -0.0000  -0.0001
    30  -0.0000   0.0000   0.0000   0.0000   0.0000  -0.0000  -0.0001   0.0000  -0.0001   0.0000
    31   0.0000   0.0000   0.0002   0.0004  -0.0000   0.0001  -0.0000  -0.0000   0.0000  -0.0000
    32  -0.0000   0.0000   0.0000   0.0000   0.0000   0.0000   0.0003  -0.0000  -0.0000   0.0000
    33  -0.0000  -0.0000  -0.0000  -0.0000  -0.0000  -0.0000   0.0000   0.0003  -0.0000  -0.0000
    34   0.0000   0.0000   0.0008   0.0002  -0.0002   0.0000   0.0000  -0.0000  -0.0000  -0.0000
    35  -0.0000   0.0000  -0.0003   0.0002  -0.0004   0.0000   0.0000   0.0000  -0.0000  -0.0000
    36   0.0000  -0.0000   0.0000  -0.0000   0.0000   0.0000   0.0000  -0.0000   0.0000  -0.0000
    37   0.0000  -0.0000  -0.0000  -0.0000   0.0000   0.0000  -0.0000  -0.0000  -0.0000  -0.0000
    38  -0.0000   0.0000  -0.0000  -0.0000  -0.0000  -0.0000  -0.0000  -0.0000   0.0001   0.0000
    39   0.0000   0.0000   0.0000   0.0000   0.0000  -0.0000  -0.0000   0.0000   0.0000  -0.0001
    40   0.0000   0.0000   0.0000   0.0002   0.0000   0.0001  -0.0000  -0.0000  -0.0000  -0.0000
    41   0.0001  -0.0000   0.0002  -0.0000   0.0000  -0.0000  -0.0000  -0.0000   0.0000   0.0000
    42   0.0000  -0.0000   0.0000  -0.0000   0.0000  -0.0000  -0.0001  -0.0006  -0.0000  -0.0000
    43   0.0000   0.0000   0.0000  -0.0000   0.0000  -0.0000   0.0006  -0.0001   0.0000  -0.0000
    44  -0.0000  -0.0000  -0.0001  -0.0000   0.0005   0.0000  -0.0000   0.0000   0.0000   0.0000
    45  -0.0001  -0.0000   0.0000  -0.0000  -0.0000  -0.0000  -0.0000  -0.0000   0.0000   0.0000
    46   0.0002   1.0000   0.0000  -0.0000   0.0000  -0.0000  -0.0000  -0.0000   0.0000  -0.0000
    47  -0.0000   0.0001   0.0130   0.9998  -0.0000   0.0020   0.0000   0.0000  -0.0000   0.0000
    48  -0.0000  -0.0000  -0.0000   0.0012   0.0007  -0.5932  -0.0001   0.0002  -0.2907   0.7508
    49   0.0000   0.0000   0.0000  -0.0015  -0.0009   0.7363  -0.0001   0.0001  -0.5731   0.3599
    50  -0.0000  -0.0000  -0.0000   0.0007   0.0004  -0.3256  -0.0002  -0.0001  -0.7662  -0.5539
    51  -0.0001  -0.0001  -0.0017  -0.0014   0.0000  -0.0006   0.0000   0.0000  -0.0000   0.0000
    52   0.0000   0.0000   0.0001   0.0000  -0.0000   0.0000  -0.0000   0.0001  -0.0001   0.0002
    53   0.0000   0.0000   0.0002   0.0001  -0.0000   0.0001  -0.0001  -0.0000  -0.0002  -0.0001
    54  -0.0000  -0.0000  -0.0007  -0.0002   0.0001  -0.0004  -0.0000  -0.0000  -0.0001  -0.0000
    55   0.0001   0.0000   0.0013   0.0011  -0.0002   0.0003  -0.0000  -0.0000  -0.0000  -0.0000
    56  -0.0000  -0.0000  -0.0002  -0.0008   0.0001  -0.0002  -0.0000   0.0001   0.0000  -0.0001
    57   0.0000   0.0000   0.0002   0.0006  -0.0001   0.0001  -0.0000   0.0001   0.0001  -0.0001
    58  -0.0000  -0.0000  -0.0001  -0.0002   0.0000  -0.0000  -0.0001  -0.0000   0.0002   0.0001
    59  -0.0000   0.0000  -0.0000   0.0001  -0.0000  -0.0001  -0.0000   0.0000   0.0001  -0.0000
    60   0.0000  -0.0000   0.0000  -0.0000   0.0000   0.0000  -0.0000   0.0000   0.0000  -0.0000
    61   0.0000  -0.0000   0.0000  -0.0001   0.0000   0.0001   0.0000   0.0000  -0.0002  -0.0000
    62   0.0000  -0.0000   0.0001  -0.0003   0.0000   0.0004  -0.0000  -0.0000   0.0001   0.0001
    63  -0.0000   0.0000  -0.0000   0.0001  -0.0000  -0.0001   0.0000  -0.0000  -0.0000   0.0002
    64   0.0000  -0.0000  -0.0000  -0.0001   0.0000   0.0001   0.0000   0.0000  -0.0001  -0.0001
    65  -0.0000   0.0000   0.0000   0.0000  -0.0000  -0.0000  -0.0000  -0.0000   0.0000   0.0000
    66  -0.0000   0.0000   0.0000   0.0001  -0.0000  -0.0001   0.0000  -0.0000  -0.0001   0.0000
    67   0.0000  -0.0000  -0.0000  -0.0001   0.0000   0.0001  -0.0000  -0.0000   0.0000   0.0001
    68   0.0000  -0.0000  -0.0000  -0.0001   0.0000   0.0001   0.0000   0.0000  -0.0000  -0.0000
    69  -0.0000   0.0000   0.0000   0.0001  -0.0000  -0.0001   0.0000   0.0000  -0.0000  -0.0000
    70   0.0000  -0.0000  -0.0000  -0.0000   0.0000   0.0001   0.0000  -0.0000  -0.0001   0.0001
    71  -0.0000   0.0000  -0.0000   0.0012  -0.0000  -0.0001   0.0000   0.0000  -0.0000  -0.0000
    72   0.0000  -0.0000   0.0001  -0.0001   0.0000   0.0002   0.0000   0.0000   0.0004   0.0003
    73  -0.0000   0.0000  -0.0001   0.0002  -0.0000  -0.0004   0.0000  -0.0000   0.0003  -0.0003
    74   0.0000  -0.0000   0.0001  -0.0002   0.0000   0.0004   0.0000  -0.0000   0.0001  -0.0004
    75  -0.0000   0.0001  -0.0000   0.0002   0.0000   0.0000  -0.0000   0.0000   0.0000   0.0000
    76  -0.0000   0.0000  -0.0000   0.0001   0.0000  -0.0004   0.0000  -0.0000   0.0003  -0.0001
    77   0.0000  -0.0000   0.0000  -0.0000  -0.0000   0.0002   0.0000   0.0000   0.0004   0.0002
    78   0.0000  -0.0000   0.0000  -0.0000  -0.0000   0.0003   0.0000  -0.0000   0.0002  -0.0004
    79   0.0000   0.0001  -0.0000  -0.0000  -0.0000  -0.0000   0.0000   0.0000  -0.0000   0.0000

 MOs :     11       12       13       14       15       16       17       18       19       20
 occup:   2.00     2.00     2.00     2.00     2.00     2.00     2.00     2.00     0.00     0.00
 CF+SFO
     1  -0.0001  -0.0000  -0.0002  -0.0000  -0.0000  -0.0006  -0.0000  -0.0000  -0.0021  -0.0006
     2  -0.0002  -0.0007  -0.0023  -0.0000  -0.0000  -0.0053  -0.0000  -0.0000  -0.0180  -0.0047
     3  -0.0003  -0.0002  -0.0007  -0.0000  -0.0000  -0.0021   0.0000  -0.0000  -0.0068  -0.0015
     4   0.0000   0.0000   0.0000  -0.0003   0.0001   0.0000   0.0004   0.0001   0.0000   0.0000
     5  -0.0000   0.0000   0.0000  -0.0001  -0.0003   0.0000   0.0001  -0.0004   0.0000   0.0000
     6   0.7100  -0.7005  -0.0397  -0.0000  -0.0000  -0.1067  -0.0000   0.0000  -0.2104  -0.0521
     7   0.0560   0.0868   0.7592  -0.0000  -0.0002  -0.6642  -0.0000   0.0000  -0.5282  -0.1303
     8  -0.0000   0.0000  -0.0000  -0.6908   0.1259  -0.0000  -0.7046  -0.1024   0.0000  -0.0000
     9  -0.0000  -0.0000  -0.0000  -0.1259  -0.6908   0.0002  -0.1024   0.7046   0.0000   0.0000
    10  -0.0439  -0.0427  -0.0547  -0.0000  -0.0001  -0.3109   0.0000   0.0000   1.2721   0.4509
    11  -0.0098  -0.0191  -0.0374  -0.0000  -0.0000  -0.1053  -0.0000  -0.0000  -0.8593   0.8178
    12  -0.0007   0.0103   0.0191  -0.0000  -0.0000  -0.0250  -0.0000   0.0000   0.0684   0.0833
    13   0.0000   0.0000   0.0000  -0.0270   0.0162  -0.0000  -0.0142  -0.0079  -0.0000   0.0000
    14  -0.0000   0.0000   0.0000  -0.0162  -0.0271   0.0000  -0.0079   0.0142  -0.0000   0.0000
    15   0.0000   0.0000   0.0000  -0.0006   0.0002   0.0000   0.0263   0.0070   0.0000  -0.0000
    16  -0.0000   0.0000  -0.0000  -0.0002  -0.0006   0.0000   0.0070  -0.0263  -0.0000  -0.0000
    17  -0.0122   0.0070  -0.0053   0.0000  -0.0000  -0.0052  -0.0000  -0.0000  -0.0918   0.0397
    18   0.0000  -0.0000   0.0000  -0.0000  -0.0000  -0.0000  -0.0000   0.0000   0.0000  -0.0000
    19  -0.0000   0.0000  -0.0000   0.0000   0.0000   0.0000   0.0000  -0.0000   0.0000   0.0000
    20   0.0101   0.0090   0.0064  -0.0000   0.0000   0.0269  -0.0000   0.0000   0.0022   0.0171
    21  -0.0000  -0.0000  -0.0000   0.0044  -0.0012  -0.0000  -0.0102  -0.0024   0.0000   0.0000
    22  -0.0000  -0.0000  -0.0000   0.0012   0.0044  -0.0000  -0.0024   0.0102   0.0000   0.0000
    23  -0.0013  -0.0013  -0.0037  -0.0000  -0.0000  -0.0185  -0.0000   0.0000  -0.0673  -0.0135
    24  -0.0000   0.0000  -0.0000   0.0000  -0.0000   0.0000   0.0000   0.0000   0.0000   0.0000
    25   0.0000  -0.0000   0.0000   0.0000  -0.0000  -0.0000   0.0000   0.0000  -0.0000  -0.0000
    26  -0.0000   0.0000  -0.0000   0.0000   0.0000   0.0000  -0.0000  -0.0000   0.0000  -0.0000
    27   0.0000  -0.0000   0.0000  -0.0000  -0.0000  -0.0000  -0.0000   0.0000  -0.0000  -0.0000
    28  -0.0020  -0.0028  -0.0002   0.0000  -0.0000  -0.0079   0.0000  -0.0000  -0.0047  -0.0041
    29  -0.0000  -0.0000   0.0000  -0.0009  -0.0024  -0.0000  -0.0002   0.0007  -0.0000  -0.0000
    30  -0.0000  -0.0000   0.0000  -0.0024   0.0009  -0.0000  -0.0007  -0.0002  -0.0000  -0.0000
    31  -0.0094  -0.0095  -0.0123  -0.0000  -0.0000  -0.0296   0.0000  -0.0000  -0.0745  -0.0148
    32   0.0000  -0.0000   0.0000   0.0032  -0.0011  -0.0000   0.0038   0.0012  -0.0000   0.0000
    33   0.0000  -0.0000   0.0000   0.0011   0.0032  -0.0000   0.0012  -0.0038  -0.0000  -0.0000
    34   0.0014  -0.0033  -0.0029   0.0000   0.0000  -0.0015   0.0000  -0.0000  -0.0025   0.0009
    35  -0.0012   0.0006  -0.0015  -0.0000   0.0000   0.0049  -0.0000   0.0000   0.0077  -0.0011
    36  -0.0000   0.0000  -0.0000   0.0000  -0.0000   0.0000   0.0000   0.0000   0.0000   0.0000
    37  -0.0000   0.0000  -0.0000  -0.0000   0.0000   0.0000   0.0000  -0.0000   0.0000   0.0000
    38  -0.0000   0.0000  -0.0000   0.0016  -0.0002   0.0000  -0.0004  -0.0000   0.0000   0.0000
    39   0.0000  -0.0000   0.0000  -0.0001  -0.0016  -0.0000   0.0000  -0.0004  -0.0000  -0.0000
    40   0.0004   0.0001   0.0006  -0.0000  -0.0000   0.0016   0.0000   0.0000   0.0045   0.0037
    41   0.0002  -0.0001   0.0001  -0.0000   0.0000   0.0001  -0.0000   0.0000   0.0005  -0.0001
    42  -0.0000   0.0000   0.0000   0.0001   0.0001   0.0000   0.0001  -0.0002   0.0000  -0.0000
    43   0.0000  -0.0000   0.0000  -0.0001   0.0001  -0.0000  -0.0002  -0.0001  -0.0000   0.0000
    44  -0.0000   0.0000  -0.0001   0.0000   0.0000   0.0002   0.0000  -0.0000  -0.0002  -0.0000
    45   0.0000   0.0000   0.0000   0.0000   0.0000   0.0000   0.0000  -0.0000   0.0001   0.0000
    46   0.0007   0.0005   0.0022  -0.0000   0.0000   0.0003  -0.0000  -0.0000  -0.0223   0.0033
    47  -0.0054  -0.0031  -0.0190   0.0000  -0.0000  -0.0018   0.0000   0.0000   0.1797  -0.0229
    48  -0.0019  -0.0007  -0.0055  -0.0001   0.0006  -0.0003  -0.0001  -0.0004   0.0188   0.0095
    49   0.0023   0.0009   0.0069  -0.0003   0.0004   0.0003  -0.0003  -0.0003  -0.0233  -0.0118
    50  -0.0010  -0.0004  -0.0030  -0.0007  -0.0002  -0.0001  -0.0005   0.0002   0.0103   0.0052
    51   0.6456   0.7026  -0.2543   0.0000  -0.0000   0.0071   0.0000   0.0000   0.8824  -0.0150
    52  -0.0049  -0.0001  -0.0555  -0.1601   0.6526  -0.0856   0.1968   0.6933  -0.0738  -0.0556
    53  -0.0093  -0.0003  -0.1044  -0.6367  -0.1742  -0.1605   0.6758  -0.2113  -0.1387  -0.1046
    54   0.0409   0.0011   0.4614  -0.1633   0.0393   0.7097   0.1766   0.0356   0.6130   0.4624
    55   0.0138   0.0145   0.0177  -0.0000   0.0000   0.0147  -0.0000  -0.0000  -0.3015   0.0855
    56  -0.0117  -0.0053  -0.0486  -0.0028  -0.0177  -0.0303   0.0022  -0.0175   0.2574   0.0381
    57   0.0082   0.0037   0.0339   0.0068  -0.0239   0.0211  -0.0076  -0.0233  -0.1794  -0.0266
    58  -0.0031  -0.0014  -0.0127   0.0290   0.0039  -0.0079  -0.0285   0.0049   0.0670   0.0099
    59   0.0047   0.0015   0.0126  -0.0045   0.0016   0.0007   0.0003   0.0001  -0.0112  -0.0618
    60  -0.0004  -0.0001  -0.0012  -0.0001   0.0021  -0.0001   0.0000   0.0002   0.0010   0.0057
    61  -0.0043  -0.0014  -0.0116   0.0078  -0.0012  -0.0007  -0.0006  -0.0001   0.0104   0.0571
    62  -0.0126  -0.0042  -0.0339  -0.0046  -0.0015  -0.0019   0.0003  -0.0001   0.0301   0.1663
    63   0.0031   0.0010   0.0084  -0.0010  -0.0096   0.0005   0.0000  -0.0007  -0.0075  -0.0412
    64  -0.0013  -0.0005  -0.0034   0.0020   0.0017  -0.0021  -0.0014   0.0013   0.0009  -0.0049
    65   0.0003   0.0001   0.0007  -0.0004  -0.0003   0.0005   0.0003  -0.0002  -0.0002   0.0011
    66   0.0014   0.0005   0.0036   0.0028  -0.0012   0.0022  -0.0021  -0.0008  -0.0010   0.0051
    67  -0.0017  -0.0006  -0.0043  -0.0009  -0.0015  -0.0026   0.0006  -0.0011   0.0011  -0.0061
    68  -0.0016  -0.0006  -0.0041   0.0015   0.0007  -0.0025  -0.0011   0.0006   0.0011  -0.0058
    69   0.0016   0.0006   0.0040   0.0003   0.0004   0.0025  -0.0002   0.0003  -0.0011   0.0057
    70  -0.0007  -0.0003  -0.0018   0.0009  -0.0030  -0.0011  -0.0007  -0.0021   0.0005  -0.0026
    71   0.0007   0.0002  -0.0032   0.0000  -0.0000  -0.0009   0.0000   0.0000   0.0502  -0.0082
    72   0.0004   0.0004   0.0009  -0.0015  -0.0005  -0.0003   0.0021  -0.0008  -0.0098  -0.0045
    73  -0.0007  -0.0009  -0.0019  -0.0007   0.0011   0.0007   0.0011   0.0016   0.0204   0.0094
    74   0.0009   0.0011   0.0022   0.0000   0.0011  -0.0008   0.0000   0.0016  -0.0241  -0.0111
    75   0.0003   0.0003   0.0003   0.0000   0.0000   0.0000  -0.0000   0.0000  -0.0042   0.0004
    76  -0.0000  -0.0000  -0.0002   0.0001  -0.0001  -0.0002  -0.0001  -0.0001   0.0004   0.0003
    77   0.0000   0.0000   0.0001   0.0001   0.0000   0.0001  -0.0001   0.0001  -0.0002  -0.0001
    78   0.0000   0.0000   0.0001   0.0000  -0.0001   0.0001  -0.0000  -0.0001  -0.0003  -0.0002
    79  -0.0000  -0.0000  -0.0001  -0.0000  -0.0000  -0.0000   0.0000   0.0000   0.0013  -0.0002

 MOs :     21       22       23       24       25       26       27       28       29       30
 occup:   0.00     0.00     0.00     0.00     0.00     0.00     0.00     0.00     0.00     0.00
 CF+SFO
     1   0.0024   0.0000  -0.0000   0.0033   0.0000   0.0000   0.0000   0.0000   0.0028   0.0000
     2   0.0200   0.0000  -0.0000   0.0278   0.0000   0.0000   0.0000   0.0000   0.0236   0.0000
     3   0.0064   0.0000  -0.0000   0.0097   0.0000   0.0000   0.0000   0.0000   0.0090   0.0000
     4  -0.0000  -0.0006   0.0012  -0.0000  -0.0012  -0.0012  -0.0000  -0.0007  -0.0000   0.0000
     5  -0.0000  -0.0012  -0.0006  -0.0000  -0.0012   0.0012  -0.0007   0.0000  -0.0000   0.0000
     6   0.1545   0.0000  -0.0000   0.2283   0.0000   0.0000   0.0000   0.0000   0.2259   0.0000
     7   0.1592   0.0000   0.0000   0.3049   0.0000   0.0000   0.0001   0.0000   0.3875   0.0000
     8  -0.0000   0.0435  -0.0689  -0.0000   0.0320   0.0225   0.0038   0.0250  -0.0000  -0.0000
     9  -0.0000   0.0689   0.0435  -0.0000   0.0225  -0.0320   0.0250  -0.0038  -0.0000   0.0000
    10  -0.1533  -0.0000  -0.0000  -0.1021  -0.0000  -0.0000  -0.0001  -0.0000  -0.4652  -0.0000
    11   0.0327   0.0000   0.0000   0.1498  -0.0000   0.0000   0.0001   0.0000   0.5106   0.0000
    12   0.7453   0.0000  -0.0001  -0.5212  -0.0000  -0.0000   0.0000   0.0000   0.2303   0.0000
    13   0.0001  -0.1320   0.6401  -0.0001   0.4004   0.5887  -0.0236   0.1121  -0.0000  -0.0000
    14   0.0000  -0.6401  -0.1320  -0.0000   0.5887  -0.4004   0.1121   0.0236   0.0000  -0.0000
    15  -0.0000   0.0136  -0.0283   0.0000  -0.2248  -0.2004   0.0302   0.7958  -0.0001  -0.0001
    16   0.0000   0.0282   0.0136  -0.0000  -0.2004   0.2248   0.7958  -0.0302  -0.0001   0.0000
    17   0.0380  -0.0000  -0.0000   0.1693   0.0000   0.0000  -0.0000  -0.0000  -0.6456   0.0001
    18  -0.0000   0.0000   0.0000  -0.0000  -0.0000  -0.0000  -0.0000   0.0000  -0.0000   0.7128
    19   0.0000  -0.0000  -0.0000   0.0000  -0.0000  -0.0000  -0.0000   0.0000  -0.0000  -0.1023
    20   0.0005  -0.0000   0.0000   0.2223   0.0000   0.0000   0.0001   0.0000   0.2013   0.0000
    21   0.0000  -0.0206   0.0397   0.0000  -0.0176  -0.0147  -0.0071  -0.1031   0.0000  -0.0000
    22  -0.0000  -0.0397  -0.0206   0.0000  -0.0147   0.0176  -0.1032   0.0071   0.0000   0.0000
    23   0.0257   0.0000   0.0000   0.0961   0.0000   0.0000   0.0000   0.0000   0.1181   0.0000
    24   0.0000  -0.0000  -0.0000   0.0000   0.0000  -0.0000   0.0000  -0.0000  -0.0000  -0.0092
    25   0.0000   0.0000   0.0000  -0.0000  -0.0000  -0.0000   0.0000  -0.0000   0.0000   0.0024
    26   0.0000  -0.0000   0.0000  -0.0000   0.0000   0.0000  -0.0000  -0.0000  -0.0000   0.0000
    27  -0.0000   0.0000  -0.0000   0.0000  -0.0000  -0.0000   0.0000   0.0000   0.0000   0.0000
    28   0.0017  -0.0000   0.0000   0.0034  -0.0000  -0.0000  -0.0000  -0.0001  -0.0208   0.0000
    29   0.0000   0.0108   0.0044   0.0000   0.0059  -0.0058   0.0169   0.0005  -0.0000   0.0000
    30   0.0000   0.0044  -0.0108   0.0000   0.0058   0.0059  -0.0005   0.0169  -0.0001   0.0000
    31   0.0320   0.0000  -0.0000   0.0618   0.0000   0.0000   0.0000   0.0000   0.0547   0.0000
    32   0.0000  -0.0032   0.0074  -0.0000   0.0027   0.0027   0.0000  -0.0010   0.0000   0.0000
    33  -0.0000  -0.0074  -0.0032   0.0000   0.0027  -0.0027  -0.0010  -0.0000   0.0000  -0.0000
    34   0.0088  -0.0000  -0.0000  -0.0004   0.0000  -0.0000  -0.0000  -0.0000  -0.0099  -0.0000
    35   0.0011   0.0000   0.0000  -0.0122  -0.0000  -0.0000   0.0000  -0.0000  -0.0078  -0.0000
    36   0.0000  -0.0000   0.0000   0.0000   0.0000   0.0000   0.0000  -0.0000  -0.0000  -0.0082
    37  -0.0000  -0.0000  -0.0000   0.0000  -0.0000   0.0000  -0.0000  -0.0000  -0.0000  -0.0091
    38   0.0000  -0.0028   0.0037   0.0000  -0.0062  -0.0036  -0.0019  -0.0080   0.0000  -0.0000
    39  -0.0000   0.0037   0.0028  -0.0000   0.0036  -0.0062   0.0080  -0.0019  -0.0000  -0.0000
    40  -0.0010  -0.0000  -0.0000   0.0003  -0.0000  -0.0000   0.0000   0.0000  -0.0024  -0.0000
    41  -0.0004  -0.0000   0.0000  -0.0004   0.0000   0.0000   0.0000   0.0000   0.0003   0.0000
    42  -0.0000   0.0001   0.0000  -0.0000   0.0002  -0.0002   0.0001   0.0000  -0.0000   0.0000
    43   0.0000  -0.0000   0.0001  -0.0000  -0.0002  -0.0002   0.0000  -0.0001   0.0000   0.0000
    44  -0.0001  -0.0000  -0.0000   0.0001  -0.0000  -0.0000  -0.0000  -0.0000   0.0002   0.0000
    45  -0.0001  -0.0000   0.0000  -0.0002  -0.0000  -0.0000  -0.0000  -0.0000  -0.0001  -0.0000
    46   0.0049  -0.0000  -0.0000   0.0058   0.0000   0.0000   0.0000   0.0000   0.0088   0.0000
    47  -0.0406   0.0000   0.0000  -0.0464  -0.0000  -0.0000  -0.0000  -0.0000  -0.0728  -0.0000
    48  -0.0082   0.0014   0.0016  -0.0065  -0.0005   0.0015  -0.0068   0.0031  -0.0159  -0.0000
    49   0.0102   0.0002   0.0018   0.0080   0.0004   0.0013  -0.0030   0.0055   0.0198   0.0000
    50  -0.0045  -0.0022   0.0011  -0.0036   0.0018   0.0001   0.0056   0.0068  -0.0088  -0.0000
    51  -0.2015   0.0000   0.0000  -0.1927  -0.0000  -0.0000  -0.0001  -0.0000  -0.3786  -0.0001
    52   0.0263  -0.0334  -0.0503   0.0164   0.0192  -0.0987   0.1654  -0.1068   0.0507   0.0000
    53   0.0495   0.0502  -0.0315   0.0308  -0.0974  -0.0163  -0.1091  -0.1597   0.0954   0.0000
    54  -0.2187   0.0073  -0.0132  -0.1360  -0.0197  -0.0156  -0.0048  -0.0490  -0.4217  -0.0000
    55  -0.2888  -0.0000   0.0001   0.1525   0.0000   0.0000   0.0001   0.0001   0.7117   0.0001
    56  -0.5184   0.3119   0.2069  -0.6546   0.2513  -0.3744   0.1526  -0.0269  -0.3836  -0.0000
    57   0.3615   0.2714   0.4431   0.4565   0.0970  -0.6184   0.1764  -0.1233   0.2674   0.0000
    58  -0.1350  -0.4712   0.3922  -0.1704  -0.7054  -0.2184  -0.1140  -0.2269  -0.0999   0.0000
    59   0.0105  -0.0172   0.0398  -0.0113   0.0427   0.0413  -0.0005   0.2202   0.1118   0.0407
    60  -0.0010   0.0136   0.0140   0.0010  -0.0099   0.0248  -0.0917   0.0374  -0.0103  -0.6727
    61  -0.0097   0.0403  -0.0597   0.0104  -0.0823  -0.0544  -0.0661  -0.3597  -0.1032  -0.0031
    62  -0.0283  -0.0383   0.0218   0.0303   0.0599   0.0074   0.1340   0.1790  -0.3007   0.0037
    63   0.0070  -0.0709  -0.0527  -0.0075   0.0620  -0.1039   0.4368  -0.1013   0.0745  -0.1428
    64   0.0098   0.0032  -0.0004   0.0086   0.0010  -0.0003   0.0001   0.0000   0.0207  -0.0008
    65  -0.0021  -0.0006   0.0001  -0.0019  -0.0002   0.0000  -0.0000  -0.0000  -0.0045  -0.0041
    66  -0.0103   0.0012  -0.0035  -0.0091   0.0008   0.0009  -0.0000   0.0001  -0.0219  -0.0016
    67   0.0122  -0.0021  -0.0004   0.0107  -0.0006   0.0004  -0.0000  -0.0000   0.0259  -0.0073
    68   0.0117   0.0019  -0.0007   0.0103   0.0007  -0.0000   0.0000   0.0000   0.0249  -0.0020
    69  -0.0115   0.0006   0.0001  -0.0101   0.0002  -0.0001   0.0000  -0.0000  -0.0244  -0.0071
    70   0.0052  -0.0019  -0.0033   0.0045  -0.0002   0.0012  -0.0001   0.0001   0.0110   0.0028
    71  -0.0116   0.0000   0.0000  -0.0275  -0.0000  -0.0000  -0.0000  -0.0000  -0.0450  -0.0000
    72   0.0064  -0.0010   0.0006   0.0111  -0.0109  -0.0014  -0.0073  -0.0097   0.0152   0.0000
    73  -0.0134   0.0003   0.0010  -0.0231  -0.0011  -0.0090   0.0063  -0.0078  -0.0316  -0.0000
    74   0.0158   0.0007   0.0006   0.0272   0.0035  -0.0071   0.0083  -0.0026   0.0372   0.0000
    75   0.0010  -0.0000  -0.0000   0.0023   0.0000   0.0000   0.0000   0.0000   0.0039   0.0000
    76  -0.0006   0.0000   0.0002  -0.0013  -0.0002  -0.0004   0.0001  -0.0003  -0.0013  -0.0000
    77   0.0003  -0.0002   0.0001   0.0005  -0.0007  -0.0001  -0.0003  -0.0004   0.0006  -0.0000
    78   0.0004   0.0001   0.0002   0.0008   0.0002  -0.0006   0.0004  -0.0002   0.0008   0.0000
    79  -0.0003   0.0000   0.0000  -0.0004  -0.0000  -0.0000  -0.0000  -0.0000  -0.0006  -0.0000

 MOs :     31       32       33       34       35       36       37       38       39       40
 occup:   0.00     0.00     0.00     0.00     0.00     0.00     0.00     0.00     0.00     0.00
 CF+SFO
     1   0.0000   0.0000   0.0000   0.0029   0.0000   0.0000  -0.0033  -0.0029  -0.0000  -0.0000
     2   0.0000   0.0000   0.0000   0.0257   0.0000   0.0000  -0.0282  -0.0251  -0.0000  -0.0000
     3   0.0000   0.0000   0.0000   0.0106   0.0000   0.0000  -0.0106  -0.0099  -0.0000  -0.0000
     4   0.0000   0.0000   0.0000  -0.0000   0.0006   0.0002   0.0000   0.0000   0.0000   0.0004
     5  -0.0000   0.0000  -0.0000  -0.0000   0.0002  -0.0006   0.0000   0.0000   0.0004  -0.0000
     6   0.0000   0.0000   0.0000   0.3223   0.0001   0.0000  -0.2913  -0.3229  -0.0000  -0.0000
     7   0.0000   0.0000   0.0000   0.6441   0.0001   0.0001  -0.5098  -0.7089  -0.0000  -0.0000
     8  -0.0000  -0.0000  -0.0000   0.0000  -0.0388  -0.0065   0.0000   0.0000  -0.0069  -0.0322
     9   0.0000  -0.0000  -0.0000  -0.0000  -0.0065   0.0388   0.0000   0.0000  -0.0322   0.0069
    10  -0.0000  -0.0000  -0.0000  -0.9650  -0.0002  -0.0001   0.5613   1.0444   0.0000   0.0000
    11   0.0000   0.0000   0.0000   0.7822   0.0002   0.0001  -0.1196  -0.3970  -0.0000  -0.0000
    12   0.0000   0.0000   0.0000   0.4310   0.0001   0.0000  -0.1270  -0.3721  -0.0000  -0.0000
    13  -0.0001   0.0000  -0.0000   0.0001  -0.2665  -0.1549   0.0000   0.0000   0.0272  -0.1797
    14   0.0000   0.0000  -0.0000   0.0000  -0.1548   0.2665  -0.0000  -0.0000  -0.1797  -0.0272
    15  -0.0001  -0.0000   0.0000   0.0001  -0.5098  -0.1470  -0.0000   0.0000  -0.0155  -0.1621
    16   0.0000  -0.0000  -0.0000  -0.0001  -0.1470   0.5098  -0.0000   0.0000  -0.1621   0.0155
    17   0.0000  -0.0000   0.0000   0.8407   0.0002   0.0001   0.2629  -0.0699  -0.0000  -0.0000
    18   0.1023   0.6896  -0.0742  -0.0001  -0.0001  -0.0000  -0.0000   0.0000  -0.0000  -0.0000
    19   0.7128  -0.0742  -0.6896   0.0000  -0.0001  -0.0001  -0.0000   0.0000   0.0000  -0.0000
    20   0.0000   0.0000  -0.0000  -0.0030   0.0000  -0.0000   0.6773  -0.6641  -0.0000   0.0000
    21  -0.0001   0.0000   0.0000   0.0001  -0.3751  -0.0959  -0.0000  -0.0000   0.1120   0.8851
    22   0.0000   0.0000  -0.0000  -0.0000  -0.0959   0.3750   0.0000  -0.0000   0.8851  -0.1120
    23   0.0000   0.0000   0.0000   0.1310   0.0000   0.0000  -0.1920   0.3026   0.0000  -0.0000
    24  -0.0024   0.0158  -0.0036   0.0000   0.0000   0.0000   0.0000  -0.0000   0.0000  -0.0000
    25  -0.0092  -0.0036  -0.0158  -0.0000   0.0000   0.0000  -0.0000   0.0000   0.0000  -0.0000
    26  -0.0000   0.0000  -0.0000  -0.0000   0.0000  -0.0000   0.0000  -0.0000  -0.0000  -0.0000
    27   0.0000   0.0000   0.0000   0.0000   0.0000   0.0000  -0.0000  -0.0000  -0.0000   0.0000
    28  -0.0000  -0.0000   0.0000   0.0066  -0.0001   0.0000   0.0356  -0.0503  -0.0003  -0.0005
    29  -0.0000   0.0000  -0.0000   0.0000   0.0093  -0.0256   0.0001  -0.0001   0.1292  -0.0038
    30   0.0000  -0.0000   0.0000   0.0000   0.0256   0.0093   0.0001  -0.0002   0.0038   0.1292
    31   0.0000   0.0000   0.0000   0.0847   0.0000   0.0000  -0.0808  -0.0911   0.0000  -0.0000
    32   0.0000  -0.0000   0.0000  -0.0000   0.0067   0.0023  -0.0000   0.0000   0.0012   0.0239
    33  -0.0000  -0.0000  -0.0000   0.0000   0.0023  -0.0067  -0.0000  -0.0000   0.0239  -0.0012
[...]
   72    9.16962399192839E-17 -1.46621614927956E-16 -2.45328111276954E-16 -1.84120887641357E-16
   73    7.45159341775960E-16 -2.11536102423158E-16 -1.95421829997237E-16 -8.24810907188547E-16
   74    5.60529770317927E-16  3.44044877900436E-16  3.57031798805976E-17  4.64827975283985E-15
   75   -1.09156024181918E-15 -7.43616153625181E-16 -4.48774731416477E-16  3.89993137999395E-16
   76   -5.10997136447068E-16  6.38114070759040E-16 -6.29255509029079E-16  3.36019895852247E-16
   77    1.51328468489752E-15 -3.55206178106847E-16  1.00543763751151E-16 -1.04243282925475E-15
   78   -9.60833385434912E-16 -4.66899489482266E-16 -5.86258978425928E-16  2.66313200343946E-16
   79    2.40204991314164E-16  7.45497413801033E-16 -1.83772268236293E-17 -1.18995423595020E-16

 column          65                    66                    67                    68
 row
   65    1.00000000000000E+00
   66   -1.97266389868907E-15  9.99999999999999E-01
   67   -4.00096338629225E-15  1.07570725124677E-15  1.00000000000000E+00
   68    4.91991951414131E-15 -8.40207204717628E-16 -2.51995703472101E-15  9.99999999999999E-01
   69    1.72982184105311E-16  6.66266677042716E-15  1.23616369384691E-15 -1.85093063098493E-15
   70    1.83578708907936E-15  2.47918399777074E-15 -1.21722731892883E-15  8.21076319215555E-16
   71    7.25121930996098E-15 -5.60048162604242E-16  2.97887415552757E-16  4.38043836443835E-16
   72   -1.15424061653329E-15 -2.65806477772502E-16  3.03480976290963E-16 -3.14281280815985E-16
   73    1.37931464068784E-16  9.27988624113943E-16 -2.27116436381121E-16  6.92189921352453E-16
   74    7.85118236040787E-16  4.35420423204956E-16 -2.39597377523407E-16  2.85428376498730E-16
   75    2.57943981293579E-16 -4.47268964916610E-16  4.51775262914064E-17 -3.26604006295327E-16
   76    2.25872971852024E-16  6.37840109367343E-16  2.31367476367708E-16 -3.61902015741104E-16
   77    5.75911030750373E-16 -3.40033701266335E-16 -3.32130039317047E-17  6.19589365076818E-16
   78   -4.85552957200565E-16  6.47006402137509E-17  7.68593034348620E-16 -2.12188025797787E-16
   79   -2.81486200789786E-16  4.34909066767721E-17  1.70228211409697E-17  9.12618708360201E-17

 column          69                    70                    71                    72
 row
   69    9.99999999999989E-01
   70   -6.76669536286718E-15  9.99999999999997E-01
   71   -6.20942625114329E-16  3.36173033453410E-17  9.99999999999998E-01
   72   -2.20869512146838E-16  2.09411986568954E-16 -2.75104442806935E-16  1.00000000000000E+00
   73   -6.06210177754013E-16 -5.33514794981880E-15 -2.96385298573752E-17  4.96640827963614E-16
   74   -6.75827436840123E-16 -7.94028652896168E-16  2.17723042828140E-16 -7.05702111873131E-16
   75   -4.15879975299285E-16  3.11408999536471E-16 -1.11757349183813E-14  2.99187707079743E-16
   76    1.05723699441495E-16  3.19999092767593E-16 -7.07804871164690E-16  3.73798180722165E-16
   77   -6.38707733321586E-16  7.12322977992569E-16  1.57525681816198E-16  1.23957977874747E-15
   78    1.94804373170781E-16 -5.37939040136727E-16  5.00554120179929E-17 -2.76913387544915E-16
   79    8.03097348280220E-17  1.00842236985940E-16  1.24292937053738E-14 -4.33030347690710E-16

 column          73                    74                    75                    76
 row
   73    9.99999999999999E-01
   74    1.18458404706461E-15  9.99999999999999E-01
   75   -4.43006701743472E-16  5.10861664115066E-16  1.00000000000005E+00
   76    5.62822053231434E-16 -1.92257420785413E-16 -6.69649001506199E-16  1.00000000000000E+00
   77    3.83747217962377E-16 -5.30385350032804E-16  3.12858395331954E-16 -3.30608923653733E-16
   78    7.06670270531843E-16  1.23830075899711E-16  2.26415083174627E-16 -1.84531421515270E-17
   79    9.24173931826644E-16 -1.04473721340703E-15 -4.23901365398383E-14 -1.26743233963555E-15

 column          77                    78                    79
 row
   77    1.00000000000000E+00
   78    1.55350977663681E-16  1.00000000000000E+00
   79    7.79975042886072E-16  8.14018991102117E-16  1.00000000000002E+00


 SFO contributions (%) per orbital
 (multiplication by the orbital occupation yields the SFO Gross Populations)

 Orb.:        9     10     11     12     13     14     15     16     17     18     19     20     21     22
 occup:     2.00   2.00   2.00   2.00   2.00   2.00   2.00   2.00   2.00   2.00   0.00   0.00   0.00   0.00
 CF+SFO     ----   ----   ----   ----   ----   ----   ----   ----   ----   ----   ----   ----   ----   ----
 ------
      6:   -0.00  -0.00  52.34  47.26   0.03   0.00   0.00   0.33   0.00   0.00  -0.06   0.03   0.05  -0.00
      7:   -0.00  -0.00   0.94   1.72  62.91   0.00   0.00  32.13   0.00   0.00   3.39   0.56  -0.58  -0.00
      8:    0.00   0.00   0.00   0.00   0.00  49.59   1.65   0.00  47.60   1.00   0.00   0.00   0.00   0.06
      9:    0.00   0.00   0.00   0.00   0.00   1.65  49.59   0.00   1.00  47.60   0.00   0.00  -0.00   0.15
     10:   -0.00  -0.00   1.35   1.34   0.57   0.00   0.00  17.07   0.00   0.00  69.98  15.66  -0.07   0.00
     11:   -0.00   0.00  -0.16  -0.34   0.63   0.00   0.00   1.76   0.00  -0.00  41.95  64.15   0.09   0.00
     12:   -0.00   0.00  -0.01   0.09   0.08  -0.00  -0.00  -0.14   0.00   0.00   1.92   1.02  52.14   0.00
     13:    0.00   0.00  -0.00  -0.00   0.00   0.31   0.11   0.00  -0.11  -0.03   0.00   0.00   0.00   2.11
     14:    0.00   0.00  -0.00   0.00  -0.00   0.11   0.31   0.00  -0.03  -0.11   0.00   0.00   0.00  49.62
     23:   -0.00  -0.00  -0.02  -0.02  -0.03  -0.00  -0.00  -0.37   0.00   0.00  -1.70  -0.14  -0.20   0.00
     48:    8.45  56.36   0.00  -0.00  -0.00  -0.00  -0.00  -0.00   0.00   0.00   0.00   0.00  -0.00   0.00
     49:   32.84  12.95   0.00  -0.00  -0.00  -0.00  -0.00  -0.00   0.00   0.00   0.00   0.00  -0.00   0.00
     50:   58.71  30.69   0.00  -0.00  -0.00  -0.00  -0.00  -0.00   0.00   0.00   0.00   0.00  -0.00   0.00
     51:    0.00  -0.00  45.06  49.48   3.02   0.00   0.00  -0.01  -0.00  -0.00   0.99  -0.06   0.00   0.00
     52:    0.00   0.00   0.01  -0.00   0.45   2.71  44.94   0.65   3.73  46.28   0.08   0.15   0.01  -0.04
     53:    0.00   0.00   0.03  -0.00   1.59  42.78   3.20   2.29  43.97   4.30   0.29   0.53   0.03  -0.08
     54:    0.00   0.00   0.62  -0.00  30.97   2.81   0.16  44.87   3.00   0.12   5.66  10.34   0.54  -0.00
     55:    0.00   0.00  -0.12   0.10  -0.28  -0.00   0.00   0.18  -0.00  -0.00 -18.31  -0.44  13.69   0.00
     56:    0.00   0.00  -0.16   0.06  -0.52  -0.00  -0.04   0.52   0.00   0.10  -3.06   0.05  21.60  11.67
     57:    0.00   0.00  -0.08   0.03  -0.25  -0.01  -0.08   0.26   0.02   0.17  -1.49   0.02  10.51   8.84
     58:    0.00   0.00  -0.01   0.00  -0.04  -0.11  -0.00   0.04   0.25   0.01  -0.21   0.00   1.46  26.63
     62:    0.00   0.00   0.08  -0.00   0.51   0.01   0.00  -0.01  -0.00  -0.00   0.40   6.48   0.27   0.23


 Summation over all MOs, multiplied by occupation: Total SFO Gross Populations in this Irrep
 ===========================================================================================

     2.00    2.00    2.00    2.00    2.00    2.00    1.95    2.00    2.00    0.41    0.04    0.00
     0.01    0.01    0.01    0.01    0.00    0.00    0.00    0.02    0.01    0.01   -0.01    0.00
     0.00    0.00    0.00    0.00    0.00    0.00   -0.00    0.00    0.00    0.00   -0.00    0.00
     0.00    0.00    0.00   -0.00    0.00    0.00    0.00    0.00    0.00    2.00    2.00    2.00
     2.00    2.00    1.95    1.98    1.96    1.65   -0.00   -0.00    0.00    0.00    0.00    0.00
     0.00    0.01    0.00    0.00    0.00    0.00    0.00    0.00    0.00    0.00   -0.00    0.00
     0.00   -0.00    0.00   -0.00   -0.00   -0.00    0.00



 List of all MOs, ordered by energy, with the most significant SFO gross populations
 ===================================================================================

 Each percentage contribution in the table below corresponds to the indicated SFO.
 In general, a SFO may be a linear combination of several Fragment Orbitals on the same,
 or on symmetry-related Fragments. Only the first 'member' of such a combination is
 specified here. A full definition of all SFOs is given in an earlier part of the output.
 The numbering of the SFOs in this table does NOT include the Core Orbitals, and starts
 from one for each symmetry representation, as in the SFO definition list earlier.

       E(eV)  Occ       MO           %     SFO (first member)   E(eV)  Occ   Fragment
 -------------------------------------------------------------------------------------

     -14.218  2.00    11 A         52.34%     6 A             -20.101  2.00     1 ClH
                                   45.06%     6 A             -10.473  2.00     2 Cl
                                    1.35%    10 A              -3.177  0.00     1 ClH
     -13.438  2.00    12 A         49.48%     6 A             -10.473  2.00     2 Cl
                                   47.26%     6 A             -20.101  2.00     1 ClH
                                    1.72%     7 A             -10.706  2.00     1 ClH
                                    1.34%    10 A              -3.177  0.00     1 ClH
      -5.331  2.00    13 A         62.91%     7 A             -10.706  2.00     1 ClH
                                   30.97%     9 A               0.909  2.00     2 Cl
                                    3.02%     6 A             -10.473  2.00     2 Cl
                                    1.59%     8 A               0.909  2.00     2 Cl
      -2.008  2.00    14 A         49.59%     8 A              -7.726  2.00     1 ClH
                                   42.78%     8 A               0.909  2.00     2 Cl
                                    2.81%     9 A               0.909  2.00     2 Cl
                                    2.71%     7 A               0.909  2.00     2 Cl
                                    1.65%     9 A              -7.726  2.00     1 ClH
      -2.008  2.00    15 A         49.59%     9 A              -7.726  2.00     1 ClH
                                   44.94%     7 A               0.909  2.00     2 Cl
                                    3.20%     8 A               0.909  2.00     2 Cl
                                    1.65%     8 A              -7.726  2.00     1 ClH
      -1.708  2.00    16 A         44.87%     9 A               0.909  2.00     2 Cl
                                   32.13%     7 A             -10.706  2.00     1 ClH
                                   17.07%    10 A              -3.177  0.00     1 ClH
                                    2.29%     8 A               0.909  2.00     2 Cl
                                    1.76%    11 A               1.660  0.00     1 ClH
      -1.612  2.00    17 A         47.60%     8 A              -7.726  2.00     1 ClH
                                   43.97%     8 A               0.909  2.00     2 Cl
                                    3.73%     7 A               0.909  2.00     2 Cl
                                    3.00%     9 A               0.909  2.00     2 Cl
                                    1.00%     9 A              -7.726  2.00     1 ClH
      -1.612  2.00    18 A         47.60%     9 A              -7.726  2.00     1 ClH
                                   46.28%     7 A               0.909  2.00     2 Cl
                                    4.30%     8 A               0.909  2.00     2 Cl
                                    1.00%     8 A              -7.726  2.00     1 ClH
       5.067  0.00    19 A         69.98%    10 A              -3.177  0.00     1 ClH
                                   41.95%    11 A               1.660  0.00     1 ClH
                                  -18.31%    10 A              12.914  0.00     2 Cl
                                    5.66%     9 A               0.909  2.00     2 Cl
                                    3.39%     7 A             -10.706  2.00     1 ClH
                                   -3.06%    11 A              13.299  0.00     2 Cl
                                    1.92%    12 A               5.711  0.00     1 ClH
                                   -1.70%    23 A              27.439  0.00     1 ClH
                                   -1.49%    12 A              13.299  0.00     2 Cl
       6.692  0.00    20 A         64.15%    11 A               1.660  0.00     1 ClH
                                   15.66%    10 A              -3.177  0.00     1 ClH
                                   10.34%     9 A               0.909  2.00     2 Cl
                                    6.48%    17 A              20.162  0.00     2 Cl
                                    1.02%    12 A               5.711  0.00     1 ClH
      10.454  0.00    21 A         52.14%    12 A               5.711  0.00     1 ClH
                                   21.60%    11 A              13.299  0.00     2 Cl
                                   13.69%    10 A              12.914  0.00     2 Cl
                                   10.51%    12 A              13.299  0.00     2 Cl
                                    1.46%    13 A              13.299  0.00     2 Cl



 =======================================================================
 Electrostatic potential at the Nuclei due to electrons and other nuclei
 =======================================================================
  
         Atom                  Potential
         ----                  ---------
     1)   Cl                 64.66607765
     2)   H                   1.16152517
     3)   Cl                 64.66641390
 
 
 ========================
 No memory problems found
 ========================
 
 Maximum number of active allocate calls:         562
 
 *******************************************************************************

                             A D F   E X I T
 NORMAL TERMINATION



 =================
 Timing Statistics
 =================
  
 Total Used :                     CPU=        4.75      System=        0.17     Elapsed=        5.32

 Calls  Section                     ( Mean, Percentage )
 ---------------------------------------------------------------------------------------------------
     3  ><      ................      0.00    0.02             0.00    0.00             0.00    0.03
     1  INIT    ................      0.46    9.70             0.03   17.16             0.49    9.26
     1  GEOMET  ................      0.03    0.61             0.01    3.55             0.38    7.14
     1  FRAGM   ................      0.01    0.25             0.01    3.55             0.03    0.53
     1  INPUTA  ................      0.00    0.00             0.00    0.00             0.00    0.01
     1  ATDEN   ................      0.00    0.06             0.00    0.59             0.00    0.09
     1  MAINSY  ................      0.01    0.17             0.00    1.77             0.01    0.24
     1  SYMFIT  ................      0.00    0.02             0.00    0.59             0.00    0.04
     1  CORORT  ................      0.00    0.02             0.00    0.00             0.00    0.01
     1  SYMORB  ................      0.00    0.06             0.00    0.00             0.00    0.06
     1  CLSMAT  ................      0.01    0.15             0.00    0.00             0.01    0.13
     1  ORTHON  ................      0.01    0.13             0.00    0.59             0.01    0.13
     1  GENPT   ................      0.10    2.21             0.00    1.18             0.11    2.03
     1  PTBAS   ................      0.02    0.53             0.00    1.18             0.03    0.50
    12  FOCKY   ................      0.10   25.28             0.00    8.88             0.10   22.96
    12  FOCKTR  ................      0.00    0.29             0.00    0.00             0.00    0.40
    12  SDIIS   ................      0.00    1.03             0.00    0.59             0.00    0.84
     1  COREPS  ................      0.09    1.83             0.00    0.00             0.09    1.67
     1  TOTEN   ................      0.25    5.28             0.01    3.55             0.26    4.83
     1  POPAN   ................      0.00    0.02             0.00    1.18             0.01    0.13
     1  DEBYE   ................      0.00    0.06             0.00    0.00             0.00    0.05
     1  INPUTE  ................      0.00    0.00             0.00    0.00             0.00    0.02
     1  SYMORE  ................      0.00    0.02             0.00    0.00             0.00    0.02
     1  METS    ................      0.00    0.02             0.00    0.00             0.00    0.01
     1  CETS    ................      0.01    0.13             0.00    0.59             0.02    0.31
     1  POPUL   ................      2.45   51.53             0.09   53.25             2.55   47.98
     1  EXIT PROCEDURE .........      0.03    0.57             0.00    1.77             0.03    0.57


 Currently Open Files (EXIT00)
 ====================

 Unit    Access Format  Status   Type       Ident (file)
 -------------------------------------------------------
   3      SEQ    FORM   TRANSP  NORMAL      LOGFILE
                                          ( logfile )


 Buffered I/O statistics
 =======================
 Memory available:                     67108864
 Number of records fitting in memory:     16131
 Input :   1.5% of                        43289  *4k bytes
 Output:  12.3% of                         3373  *4k bytes
 Records from serial files evicted:           0
                    others evicted:           0
 Hash table lookups:     121766 with          0 conflicts (  0.00%)

 ***************************************************************************************************
 (LOGFILE)
 <May09-2019> <17:23:41>  ADF 2017  RunTime: May09-2019 17:23:41  Nodes: 1  Procs: 12
 <May09-2019> <17:23:41>  *** (NO TITLE) ***
 <May09-2019> <17:23:41>  RunType   : SINGLE POINT
 <May09-2019> <17:23:42>  Net Charge: -1 (Nuclei minus Electrons)
 <May09-2019> <17:23:42>  Symmetry  : NOSYM
 <May09-2019> <17:23:42>  >>>> FRAGM
  Coordinates
    Atom         X           Y           Z   (Angstrom)
    1.Cl       -3.903580   -0.149383   -0.058781
    2.H        -2.627414    0.379048    0.729716
    3.Cl       -1.349501    0.908203    1.519293
 <May09-2019> <17:23:42>  >>>> CORORT
 <May09-2019> <17:23:42>  >>>> CLSMAT
 <May09-2019> <17:23:42>  >>>> ORTHON
 <May09-2019> <17:23:42>  >>>> GENPT
 <May09-2019> <17:23:42>  Block Length= 128
 <May09-2019> <17:23:42>  >>>> PTBAS
 <May09-2019> <17:23:42>  >>>> CYCLE
 <May09-2019> <17:23:42>              |Error|         MaxErr       Wt(A-DIIS)
 <May09-2019> <17:23:42>      1      0.81879864      0.50717452
 <May09-2019> <17:23:42>      2      0.33517126      0.09907167    100.0
 <May09-2019> <17:23:42>      3      0.15807379      0.04995888    100.0
 <May09-2019> <17:23:42>      4      0.29713471      0.08581137    100.0
 <May09-2019> <17:23:42>      5      0.04157289      0.01142905     10.5
 <May09-2019> <17:23:42>      6      0.00804293      0.00285340      1.9
 <May09-2019> <17:23:43>      7      0.00157568      0.00055629      0.0
 <May09-2019> <17:23:43>      8      0.00039695      0.00013429      0.0
 <May09-2019> <17:23:43>      9      0.00007627      0.00002715      0.0
 <May09-2019> <17:23:43>     10      0.00000681      0.00000137      0.0
 <May09-2019> <17:23:43>     11      0.00000183      0.00000049      0.0
 <May09-2019> <17:23:43>  SCF converged
 <May09-2019> <17:23:43>     12      0.00000024      0.00000007      0.0
 <May09-2019> <17:23:43>  >>>> TOTEN
 <May09-2019> <17:23:43>  >>>> POPAN
 <May09-2019> <17:23:43>  >>>> DEBYE
 <May09-2019> <17:23:43>  >>>> AMETS
 <May09-2019> <17:23:46>   Bond Energy          -0.07705360 a.u.
 <May09-2019> <17:23:46>   Bond Energy          -2.09673512 eV
 <May09-2019> <17:23:46>   Bond Energy         -48.35       kcal/mol
 <May09-2019> <17:23:46>  >>>> POPUL
 <May09-2019> <17:23:46>  NORMAL TERMINATION
 <May09-2019> <17:23:46>  END
