
Create Cl   file=TZ2P-Cl
XC
  GGA blyp
  DISPERSION Grimme3 BJDAMP
End
End Input

 *******************************************************************************
 *                                                                             *
 *  -------------------------------------                                      *
 *   Amsterdam Density Functional  (ADF)         development version           *
 *  -------------------------------------                                      *
 *                                               r61132 2017-09-08             *
 *                                                                             *
 *                                                                             *
 *                              =================                              *
 *                              |               |                              *
 *                              |     A D F     |                              *
 *                              |               |                              *
 *                              =================                              *
 *                                                                             *
 *                                                                             *
 *   Online information and documentation:  https://www.scm.com/support/       *
 *   E-mail:  support@scm.com   info@scm.com                                   *
 *                                                                             *
 *   Scientific publications using ADF results must be properly referenced     *
 *   See the User Manuals (or the web site) for recommended citations          *
 *   The terms and conditions of the End User License Agreement apply to       *
 *   the use of ADF, https://www.scm.com/license-terms/                        *
 *                                                                             *
 **********************  x86_64_linux_intel / intelmpi  ************************
 
 Licensed to: VU/FEW (+ SARA) / ALGEMEEN / Amsterdam / THE NETHERLANDS
 SCM User ID: u7668
  
 ADF development version  RunTime: Apr18-2019 21:31:42  Nodes: 1  Procs: 1

 Temporary files are created in /local/datastore0/tcst25/186801/kid_0.0Ry166

 Chlorine (TZ2P)



 ===========================
 A T T A C H E D   F I L E S
 ===========================
  
 CREATE - Data File:    TZ2P-Cl
                        Chlorine (TZ2P)



 ===============================
 M O D E L   P A R A M E T E R S
 ===============================
  
 DENSITY FUNCTIONAL POTENTIAL (scf)
    LDA:                               Exchange only                           == Not Default ==
    Gradient Corrections:              Becke88 LYP                             == Not Default ==

 SPIN  (restricted / unrestr.)
    Molecule:                          Restricted                               

 OTHER ASPECTS
    Relativistic Corrections:          ---                                      

    Nuclear Charge Density Model:      Point Charge Nuclei                      
    Core Treatment:                    Frozen Orbital(s)                        

    Hyperfine or Zeeman Interaction:   ---                                      

 Settings for Grimme 3 dispersion correction

      damping                        BJ
      s6                          1.000
      a1                          0.430
      s8                          2.700
      a2                          4.236

 Other (technical) parameters

      alpha                      14.000
      version                         4
 



 =====================================
 S Y M M E T R Y ,   E L E C T R O N S
 =====================================
  
 Symmetry: ATOM

 Irreducible Representations, including subspecies
 -------------------------------------------------
 S
 P:x  P:y  P:z
 D:z2  D:x2-y2  D:xy  D:xz  D:yz
 F:z3  F:z  F:xyz  F:z2x  F:z2y  F:x  F:y


 Configuration of Valence Electrons
 ==================================

          Occupation Numbers
          -------------------------------------------------
 S        3*2
 P        6 5
 D        0
 F        0
          -------------------------------------------------

 Total:   17

 Net Charge: 0 (Nuclei minus Electrons)

 Preset values for MO occupations will be applied through SCF cycle no. 1000000
 Thereafter, the program will assign electrons to MOs that are spatially
 similar to the occupied MOs in a "reference" cycle ("KeepOrbitals").
 The reference cycle is always the PREVIOUS cycle: it will evolve with
 the SCF procedure.



 ================================
 (Slater-type)  F U N C T I O N S  ***  (Basis and Fit)  ***
 ================================
  

 Atom Type    1  (Cl)
 ==============

 Valence Basis Sets:  14
 -----------------------
   1 S   20.300000
   1 S   15.250000
   2 S    6.250000
   2 S    4.450000
   2 P    8.850000
   2 P    5.050000
   3 S    3.450000
   3 S    2.300000
   3 S    1.600000
   3 P    3.350000
   3 P    2.050000
   3 P    1.200000
   3 D    2.000000
   4 F    2.000000


 BAS: List of all Elementary Cartesian Basis Functions
 =====================================================

 The numbering in the list below (to the right of the function characteristics) is referred
 to in print-outs of MO eigenvectors and Mulliken populations in the BAS representation
 (as contrasted to the SFO representation).

 Notes:
 1. The functions are characterized by a polynomial prefactor (powers of x,y,z and r) and
    an exponential decay factor alpha.
 2. Since the basis sets are specific for an atom TYPE, the individual functions occur on
    all atoms of that type.
 3. The word 'Core' in the left margin signals that it is a Core Function (CF) : not a
    degree of freedom in the valence set, but only used to ensure orthogonalization of
    the other valence basis functions on the frozen Core Orbitals.


 (power of) X  Y  Z  R     Alpha  on Atom
            ==========     =====     ==========

 Cl                                   1
                                  ---------------------------------------------------------------------------
            0  0  0  0    20.300      1
            0  0  0  0    15.250      2
            0  0  0  1     6.250      3
            0  0  0  1     4.450      4
            1  0  0  0     8.850      5
            0  1  0  0     8.850      6
            0  0  1  0     8.850      7
            1  0  0  0     5.050      8
            0  1  0  0     5.050      9
            0  0  1  0     5.050     10
            0  0  0  2     3.450     11
            0  0  0  2     2.300     12
            0  0  0  2     1.600     13
            1  0  0  1     3.350     14
            0  1  0  1     3.350     15
            0  0  1  1     3.350     16
            1  0  0  1     2.050     17
            0  1  0  1     2.050     18
            0  0  1  1     2.050     19
            1  0  0  1     1.200     20
            0  1  0  1     1.200     21
            0  0  1  1     1.200     22
            2  0  0  0     2.000     23
            1  1  0  0     2.000     24
            1  0  1  0     2.000     25
            0  2  0  0     2.000     26
            0  1  1  0     2.000     27
            0  0  2  0     2.000     28
            3  0  0  0     2.000     29
            2  1  0  0     2.000     30
            2  0  1  0     2.000     31
            1  2  0  0     2.000     32
            1  1  1  0     2.000     33
            1  0  2  0     2.000     34
            0  3  0  0     2.000     35
            0  2  1  0     2.000     36
            0  1  2  0     2.000     37
            0  0  3  0     2.000     38

 Total number of charge fitting functions (nprimf)       106
 Total number of Cartesian basis functions (naos)         38
 Total number of Cartesian core functions  (ncos)          0



 BAS: List of all Elementary Cartesian Basis Functions
 =====================================================

 The numbering in the list below (to the right of the function characteristics) is referred
 to in print-outs of MO eigenvectors and Mulliken populations in the BAS representation
 (as contrasted to the SFO representation).

 Notes:
 1. The functions are characterized by a polynomial prefactor (powers of x,y,z and r) and
    an exponential decay factor alpha.
 2. Since the basis sets are specific for an atom TYPE, the individual functions occur on
    all atoms of that type.
 3. The word 'Core' in the left margin signals that it is a Core Function (CF) : not a
    degree of freedom in the valence set, but only used to ensure orthogonalization of
    the other valence basis functions on the frozen Core Orbitals.


 (power of) X  Y  Z  R     Alpha  on Atom
            ==========     =====     ==========

 Cl                                   1
                                  ---------------------------------------------------------------------------
            0  0  0  0    20.300      1
            0  0  0  0    15.250      2
            0  0  0  1     6.250      3
            0  0  0  1     4.450      4
            1  0  0  0     8.850      5
            0  1  0  0     8.850      6
            0  0  1  0     8.850      7
            1  0  0  0     5.050      8
            0  1  0  0     5.050      9
            0  0  1  0     5.050     10
            0  0  0  2     3.450     11
            0  0  0  2     2.300     12
            0  0  0  2     1.600     13
            1  0  0  1     3.350     14
            0  1  0  1     3.350     15
            0  0  1  1     3.350     16
            1  0  0  1     2.050     17
            0  1  0  1     2.050     18
            0  0  1  1     2.050     19
            1  0  0  1     1.200     20
            0  1  0  1     1.200     21
            0  0  1  1     1.200     22
            2  0  0  0     2.000     23
            1  1  0  0     2.000     24
            1  0  1  0     2.000     25
            0  2  0  0     2.000     26
            0  1  1  0     2.000     27
            0  0  2  0     2.000     28
            3  0  0  0     2.000     29
            2  1  0  0     2.000     30
            2  0  1  0     2.000     31
            1  2  0  0     2.000     32
            1  1  1  0     2.000     33
            1  0  2  0     2.000     34
            0  3  0  0     2.000     35
            0  2  1  0     2.000     36
            0  1  2  0     2.000     37
            0  0  3  0     2.000     38
1
 ***************************************************************************************************



                                              ***********************
                                              *  T E C H N I C A L  *
                                              ***********************
  



 =============================================================
 P A R A L L E L I Z A T I O N  and  V E C T O R I Z A T I O N
 =============================================================
  
 Nr of parallel processes:                                1
 Maximum vector length in NumInt loops:                 128

 IO buffersize (Mb):                                     64.000000



 =====================
 S C F   U P D A T E S
 =====================
  
 Max. nr. of cycles:                               300
 Convergence criterion:                              0.0000000100
   secondary criterion:                              0.0000000100

 Mix parameter (when DIIS does not apply):           0.2000000000
 Special mix parameter for the first cycle:          1.0000000000
 Mixed ADIIS+DIIS will be used
    Max number of expansion vectors:                10
    Pure ADIIS when Max([F,P]) is above              0.1000000000
    Pure DIIS when Max([F,P]) is below               0.0010000000
 Automatic ElectronSmearing (in case of problematic SCF convergence) disabled



 =================
 P R E C I S I O N  ***  (General: NumInt, NeglectFunctionTails, ...)  ***
 =================
  

 NumInt:           Target precision:                12.0000000000
 -------           Initial precision:               10.0000000000
                   Min. precision (optimization):   10.0000000000

 Neglect Functions:          Basis functions:        0.1000000000E-13
 ------------------          Fit functions:          0.1000000000E-13



 ===========================
 L I N E A R   S C A L I N G
 ===========================
  

 Cut-off radii density fit:                        0.1000000000E-97
 Overlap cut-off criterion AO matrix elements:     0.1000000000E-97
 Cut-offs for Coulomb potential and fitted density:0.1000000000E-97
 Cut-off criterion for Coulomb multipole terms:    0.1000000000E-97
 Progressive Convergence parameter:                 0.000000000    
1
 ***************************************************************************************************



                                            ***************************
                                            *  C O M P U T A T I O N  *
                                            ***************************
  

 Number of elements of the density matrix on this node (used, total):       741       741



 ===========================================
 Numerical Integration : Fuzzy Cells (Becke)
 ===========================================
  
 Becke grid quality: VERYGOOD       
  
 Lebedev angular grid order:             min:  13 max:  41
 Nr. of radial points:                   min:  93 max:  93

 Total nr. of points:         93
 Nr. of blocks:                1
 Block length:                93
 Nr. of dummy points:          0


 Test of Precision of the Numerical Integration Grid
 ===================================================

 Integral of the Total Core Density:                   0.00000000000000



 ========================
 Density Fitting (zlmFit)
 ========================
  
 ZlmFit Fit Quality: VERYGOOD       
  
 Max L-expansion:                        min:   0 max:   0
 Nr. of radial interpolation points:     min: 200 max: 200



 =====
 S C F  ***  ScaSCF  ***
 =====
  

 CYCLE    1
 SCF Error: norm([F,P])=      0.000000000000, max([F,P])=      0.000000000000
 orbitals (Q,E):
 ---------------
 S :1...7            ( 2.00  -144.4893)  ( 2.00   -36.0966)  ( 2.00   -16.0338)  ( 0.00    -8.9253)
                     ( 0.00    -5.5262)  ( 0.00    -3.6296)  ( 0.00   175.9783)
 P :1...5            ( 6.00   -36.1179)  ( 5.00   -15.7666)  ( 0.00    -8.4199)  ( 0.00    -4.8064)
                     ( 0.00    -2.9092)
 D :1...1            ( 0.00    -9.3333)
 F :1...1            ( 0.00    -6.5000)

 CYCLE    2
  SDIIS (wt  0.000):  1.0000 -0.0000
 A-DIIS (wt  1.000):  0.0000  1.0000
  DIIS coefficients:  0.0000  1.0000
 SCF Error: norm([F,P])=     37.918093115371, max([F,P])=     10.754162001971
 orbitals (Q,E):
 ---------------
 S :1...4            ( 2.00   -86.3665)  ( 2.00    -3.0042)  ( 2.00     0.0879)  ( 0.00     0.9074)
 P :1...3            ( 6.00    -0.5941)  ( 5.00     0.2005)  ( 0.00     1.0624)
 D :1...1            ( 0.00     1.3908)
 F :1...1            ( 0.00     1.7118)

 CYCLE    3
  SDIIS (wt  0.000):  0.2468  0.7532
 A-DIIS (wt  1.000):  0.2184  0.7816
  DIIS coefficients:  0.2184  0.7816
 SCF Error: norm([F,P])=     20.757708249348, max([F,P])=      6.871796656039
 orbitals (Q,E):
 ---------------
 S :1...4            ( 2.00  -105.5772)  ( 2.00   -12.2185)  ( 2.00    -1.9200)  ( 0.00    -0.1982)
 P :1...3            ( 6.00   -10.2793)  ( 5.00    -1.3974)  ( 0.00    -0.0873)
 D :1...1            ( 0.00    -0.4679)
 F :1...1            ( 0.00     0.6062)

 CYCLE    4
  SDIIS (wt  0.000): -0.0788  0.1328  0.9460
 A-DIIS (wt  1.000):  0.0000  0.0000  1.0000
  DIIS coefficients:  0.0000  0.0000  1.0000
 SCF Error: norm([F,P])=      6.021405452047, max([F,P])=      2.061487593708
 orbitals (Q,E):
 ---------------
 S :1...4            ( 2.00   -97.6728)  ( 2.00    -7.4155)  ( 2.00    -0.2425)  ( 0.00     0.4293)
 P :1...3            ( 6.00    -5.1248)  ( 5.00     0.0322)  ( 0.00     0.5151)
 D :1...1            ( 0.00     0.8498)
 F :1...1            ( 0.00     1.4674)

 CYCLE    5
  SDIIS (wt  0.000): -0.0198 -0.0624  0.3895  0.6927
 A-DIIS (wt  1.000):  0.0000  0.0000  0.4691  0.5309
  DIIS coefficients:  0.0000  0.0000  0.4691  0.5309
 SCF Error: norm([F,P])=      4.122826282833, max([F,P])=      1.762338952725
 orbitals (Q,E):
 ---------------
 S :1...4            ( 2.00  -100.7640)  ( 2.00    -9.3467)  ( 2.00    -0.9097)  ( 0.00     0.1217)
 P :1...3            ( 6.00    -7.1584)  ( 5.00    -0.4570)  ( 0.00     0.1672)
 D :1...1            ( 0.00     0.2335)
 F :1...1            ( 0.00     1.0657)

 CYCLE    6
  SDIIS (wt  0.000): -0.0001 -0.0138  0.0424  0.0981  0.8734
 A-DIIS (wt  1.000):  0.0000  0.0000  0.0000  0.0000  1.0000
  DIIS coefficients:  0.0000  0.0000  0.0000  0.0000  1.0000
 SCF Error: norm([F,P])=      0.297134459880, max([F,P])=      0.111907135573
 orbitals (Q,E):
 ---------------
 S :1...4            ( 2.00  -100.6199)  ( 2.00    -9.0705)  ( 2.00    -0.6673)  ( 0.00     0.2275)
 P :1...3            ( 6.00    -6.8928)  ( 5.00    -0.2439)  ( 0.00     0.2570)
 D :1...1            ( 0.00     0.4575)
 F :1...1            ( 0.00     1.2382)

 CYCLE    7
  SDIIS (wt  0.000): -0.0002  0.0003  0.0119 -0.0199  0.3831  0.6249
 A-DIIS (wt  1.000):  0.0000  0.0000  0.0000  0.0000  0.4431  0.5569
  DIIS coefficients:  0.0000  0.0000  0.0000  0.0000  0.4431  0.5569
 SCF Error: norm([F,P])=      0.268270877863, max([F,P])=      0.112251171075
 orbitals (Q,E):
 ---------------
 S :1...4            ( 2.00  -100.8158)  ( 2.00    -9.2442)  ( 2.00    -0.7560)  ( 0.00     0.1940)
 P :1...3            ( 6.00    -7.0691)  ( 5.00    -0.3171)  ( 0.00     0.2236)
 D :1...1            ( 0.00     0.3804)
 F :1...1            ( 0.00     1.1860)

 CYCLE    8
  SDIIS (wt  0.746):  0.0001 -0.0001 -0.0028  0.0035  0.0906  0.1300  0.7787
 A-DIIS (wt  0.254):  0.0000  0.0000  0.0000  0.0000  0.0000  0.0000  1.0000
  DIIS coefficients:  0.0000 -0.0001 -0.0021  0.0026  0.0676  0.0969  0.8350
 SCF Error: norm([F,P])=      0.071559445743, max([F,P])=      0.026187079053
 orbitals (Q,E):
 ---------------
 S :1...4            ( 2.00  -100.7523)  ( 2.00    -9.2108)  ( 2.00    -0.7461)  ( 0.00     0.1973)
 P :1...3            ( 6.00    -7.0328)  ( 5.00    -0.3089)  ( 0.00     0.2267)
 D :1...1            ( 0.00     0.3881)
 F :1...1            ( 0.00     1.1908)

 CYCLE    9
  SDIIS (wt  0.957):  0.0000 -0.0000 -0.0001  0.0003  0.0037 -0.0063  0.1578  0.8445
 A-DIIS (wt  0.043):  0.0000  0.0000  0.0000  0.0000  0.0000  0.0000  0.0000  1.0000
  DIIS coefficients:  0.0000 -0.0000 -0.0001  0.0003  0.0036 -0.0060  0.1511  0.8511
 SCF Error: norm([F,P])=      0.013066268529, max([F,P])=      0.005220141314
 orbitals (Q,E):
 ---------------
 S :1...4            ( 2.00  -100.7623)  ( 2.00    -9.2169)  ( 2.00    -0.7484)  ( 0.00     0.1965)
 P :1...3            ( 6.00    -7.0393)  ( 5.00    -0.3108)  ( 0.00     0.2259)
 D :1...1            ( 0.00     0.3862)
 F :1...1            ( 0.00     1.1896)

 CYCLE   10
  SDIIS (wt  1.000):  0.0000  0.0000 -0.0000 -0.0000  0.0002  0.0011 -0.0030  0.0039  0.9977
  DIIS coefficients:  0.0000  0.0000 -0.0000 -0.0000  0.0002  0.0011 -0.0030  0.0039  0.9977
 SCF Error: norm([F,P])=      0.000485727205, max([F,P])=      0.000202934402
 orbitals (Q,E):
 ---------------
 S :1...4            ( 2.00  -100.7620)  ( 2.00    -9.2166)  ( 2.00    -0.7483)  ( 0.00     0.1965)
 P :1...3            ( 6.00    -7.0390)  ( 5.00    -0.3107)  ( 0.00     0.2259)
 D :1...1            ( 0.00     0.3863)
 F :1...1            ( 0.00     1.1896)

 CYCLE   11
  SDIIS (wt  1.000):  0.0000  0.0000  0.0000  0.0000 -0.0002 -0.0009  0.0045  0.9965
  DIIS coefficients:  0.0000  0.0000  0.0000  0.0000 -0.0002 -0.0009  0.0045  0.9965
 SCF Error: norm([F,P])=      0.000002451026, max([F,P])=      0.000000874874
 orbitals (Q,E):
 ---------------
 S :1...4            ( 2.00  -100.7620)  ( 2.00    -9.2166)  ( 2.00    -0.7483)  ( 0.00     0.1965)
 P :1...3            ( 6.00    -7.0390)  ( 5.00    -0.3107)  ( 0.00     0.2259)
 D :1...1            ( 0.00     0.3863)
 F :1...1            ( 0.00     1.1896)

 CYCLE   12
  SDIIS (wt  1.000):  0.0000  0.0000 -0.0000 -0.0000  0.0001  0.0049  0.9950
  DIIS coefficients:  0.0000  0.0000 -0.0000 -0.0000  0.0001  0.0049  0.9950
 SCF Error: norm([F,P])=      0.000000029116, max([F,P])=      0.000000011194
 orbitals (Q,E):
 ---------------
 S :1...4            ( 2.00  -100.7620)  ( 2.00    -9.2166)  ( 2.00    -0.7483)  ( 0.00     0.1965)
 P :1...3            ( 6.00    -7.0390)  ( 5.00    -0.3107)  ( 0.00     0.2259)
 D :1...1            ( 0.00     0.3863)
 F :1...1            ( 0.00     1.1896)

 CYCLE   13
  SDIIS (wt  1.000):  0.0000 -0.0004  0.0111  0.9893
  DIIS coefficients:  0.0000 -0.0004  0.0111  0.9893
 SCF Error: norm([F,P])=      0.000000001290, max([F,P])=      0.000000000495
 orbitals (Q,E):
 ---------------
 S :1...4            ( 2.00  -100.7620)  ( 2.00    -9.2166)  ( 2.00    -0.7483)  ( 0.00     0.1965)
 P :1...3            ( 6.00    -7.0390)  ( 5.00    -0.3107)  ( 0.00     0.2259)
 D :1...1            ( 0.00     0.3863)
 F :1...1            ( 0.00     1.1896)

 SCF CONVERGED

 CYCLE   14
1
 ***************************************************************************************************



                                                *******************
                                                *  R E S U L T S  *
                                                *******************
  
 *** Setting up for NEW gradients in Focky
 *** Using FIT density in Focky

 Orbital Energies, per Irrep and Spin:
 ======================================
                        Occup              E (au)              E (eV)       Diff (eV) with prev. cycle
                        -----      --------------------        ------       --------------------------
 S
               1        2.000     -0.10076196025470E+03     -2741.872               4.83E-10
               2        2.000     -0.92166234791376E+01      -250.797               4.96E-10
               3        2.000     -0.74829309878317E+00       -20.362               4.12E-10
               4        0.000      0.19650378945431E+00         5.347
               5        0.000      0.20105214794381E+01        54.709
               6        0.000      0.12737820956871E+02       346.614
               7        0.000      0.21467502602048E+03      5841.605
 P
               1        6.000     -0.70390087591571E+01      -191.541               4.92E-10
               2        5.000     -0.31074821072056E+00        -8.456               3.59E-10
               3        0.000      0.22590803353600E+00         6.147
               4        0.000      0.21023976914888E+01        57.209
               5        0.000      0.18828233069566E+02       512.342
 D
               1        0.000      0.38627333037828E+00        10.511
 F
               1        0.000      0.11896264283968E+01        32.371


 Partially Occupied:
               2 P                -0.31074821072056E+00
  
 HOMO :        3 S                -0.74829309878317E+00
 LUMO :        4 S                 0.19650378945431E+00
  


 Orbital Energies, all Irreps
 ========================================

 Irrep        no.  (spin)   Occup              E (au)                E (eV)
 ---------------------------------------------------------------------------
 S             1             2.00       -0.10076196025470E+03     -2741.8724
 S             2             2.00       -0.92166234791376E+01      -250.7971
 P             1             6.00       -0.70390087591571E+01      -191.5412
 S             3             2.00       -0.74829309878317E+00       -20.3621
 P             2             5.00       -0.31074821072056E+00        -8.4559
 S             4             0.00        0.19650378945431E+00         5.3471
 P             3             0.00        0.22590803353600E+00         6.1473
 D             1             0.00        0.38627333037828E+00        10.5110
 F             1             0.00        0.11896264283968E+01        32.3714
 S             5             0.00        0.20105214794381E+01        54.7091
 P             4             0.00        0.21023976914888E+01        57.2092
 S             6             0.00        0.12737820956871E+02       346.6137
 P             5             0.00        0.18828233069566E+02       512.3423
 S             7             0.00        0.21467502602048E+03      5841.6047


 All Electron Calculation, thus no Orbital Energies of the Core Orbitals are calculated



 =======================================
 M U L L I K E N   P O P U L A T I O N S
 =======================================
  
 The survey below gives for each atom:
 a) the total charge (Z minus electrons)
 b) the net spin polarization (nr of electrons spin-A minus spin-B)
 c) for each spin the atomic electron valence density (integrated) per L-value.

 Atom              Charge    Spin density          S         P         D         F
 ----              ------    ------------       ------    ------    ------    ------
 1 Cl              0.0000                       6.0000   11.0000    0.0000    0.0000

 Populations of individual BAS functions
 ----------------------------------------
 1 Cl           0.5041  1.4544  1.7124  0.2493  0.7286  0.7286  0.7286  1.2681  1.2681  1.2681
                0.6256  1.0927  0.3615  0.2681  0.2681  0.2681  1.0016  1.0016  1.0016  0.4002
                0.4002  0.4002  0.0000  0.0000  0.0000  0.0000  0.0000  0.0000  0.0000  0.0000
                0.0000  0.0000  0.0000  0.0000  0.0000  0.0000  0.0000  0.0000

 Gross Charges per Atom (Z minus electrons)
 ==========================================
             0.0000
 Net Total:  0.00000000



 =======================================================================
 Electrostatic potential at the Nuclei due to electrons and other nuclei
 =======================================================================
  
         Atom                  Potential
         ----                  ---------
     1)   Cl                 64.38336388
 
 
 ========================
 No memory problems found
 ========================
 
 Maximum number of active allocate calls:         447
 
 *******************************************************************************

                             A D F   E X I T
 NORMAL TERMINATION



 =================
 Timing Statistics
 =================
  
 Total Used :                     CPU=        0.63      System=        0.03     Elapsed=        0.66

 Calls  Section                     ( Mean, Percentage )
 ---------------------------------------------------------------------------------------------------
     3  ><      ................      0.00    0.00             0.00    0.00             0.00    0.12
     1  INIT    ................      0.01    1.27             0.02   57.14             0.03    3.84
     1  GEOMET  ................      0.01    1.11             0.00    7.14             0.01    1.29
     1  INPUTA  ................      0.00    0.32             0.00    0.00             0.00    0.24
     1  MAINSY  ................      0.00    0.48             0.00   10.71             0.01    0.90
     1  SYMFIT  ................      0.00    0.16             0.00    0.00             0.00    0.12
     1  CORORT  ................      0.00    0.00             0.00    0.00             0.00    0.04
     1  SYMORB  ................      0.00    0.00             0.00    3.57             0.00    0.11
     1  CLSMAT  ................      0.00    0.79             0.00    0.00             0.01    0.79
     1  ORTHON  ................      0.00    0.16             0.00    0.00             0.00    0.23
     1  GENPT   ................      0.02    2.86             0.00    3.57             0.02    2.87
     1  PTBAS   ................      0.00    0.63             0.00    0.00             0.00    0.53
    14  FOCKY   ................      0.04   79.05             0.00    7.14             0.04   75.82
    14  FOCKTR  ................      0.00    1.75             0.00    3.57             0.00    1.82
    14  SDIIS   ................      0.00    3.49             0.00    3.57             0.00    3.47
     1  COREPS  ................      0.03    4.13             0.00    0.00             0.03    4.04
     1  POPAN   ................      0.01    0.95             0.00    0.00             0.01    0.79
     1  DEBYE   ................      0.00    0.00             0.00    0.00             0.00    0.09
     1  EXIT PROCEDURE .........      0.02    2.86             0.00    3.57             0.02    2.90


 Currently Open Files (EXIT00)
 ====================

 Unit    Access Format  Status   Type       Ident (file)
 -------------------------------------------------------
   3      SEQ    FORM   TRANSP  NORMAL      LOGFILE
                                          ( logfile )


 Buffered I/O statistics
 =======================
 Memory available:                     67108864
 Number of records fitting in memory:     16131
 Input :   0.1% of                        29192  *4k bytes
 Output:  12.9% of                         1456  *4k bytes
 Records from serial files evicted:           0
                    others evicted:           0
 Hash table lookups:      75541 with          0 conflicts (  0.00%)

 ***************************************************************************************************
 (LOGFILE)
 <Apr18-2019> <21:31:42>  ADF development version  RunTime: Apr18-2019 21:31:42  Nodes: 1  Procs: 1
 <Apr18-2019> <21:31:42>  Chlorine (TZ2P)
 <Apr18-2019> <21:31:42>  RunType   : CREATE
 <Apr18-2019> <21:31:42>  Net Charge: 0 (Nuclei minus Electrons)
 <Apr18-2019> <21:31:42>  Symmetry  : ATOM
  Coordinates
    Atom         X           Y           Z   (Angstrom)
    1.Cl        0.000000    0.000000    0.000000
 <Apr18-2019> <21:31:42>  >>>> CORORT
 <Apr18-2019> <21:31:42>  >>>> CLSMAT
 <Apr18-2019> <21:31:42>  >>>> ORTHON
 <Apr18-2019> <21:31:42>  >>>> GENPT
 <Apr18-2019> <21:31:42>  Block Length=  93
 <Apr18-2019> <21:31:42>  >>>> PTBAS
 <Apr18-2019> <21:31:42>  >>>> CYCLE
 <Apr18-2019> <21:31:42>              |Error|         MaxErr       Wt(A-DIIS)
 <Apr18-2019> <21:31:42>      1      0.00000000      0.00000000
 <Apr18-2019> <21:31:42>      2     37.91809312     10.75416200    100.0
 <Apr18-2019> <21:31:42>      3     20.75770825      6.87179666    100.0
 <Apr18-2019> <21:31:42>      4      6.02140545      2.06148759    100.0
 <Apr18-2019> <21:31:42>      5      4.12282628      1.76233895    100.0
 <Apr18-2019> <21:31:42>      6      0.29713446      0.11190714    100.0
 <Apr18-2019> <21:31:42>      7      0.26827088      0.11225117    100.0
 <Apr18-2019> <21:31:42>      8      0.07155945      0.02618708     25.4
 <Apr18-2019> <21:31:42>      9      0.01306627      0.00522014      4.3
 <Apr18-2019> <21:31:42>     10      0.00048573      0.00020293      0.0
 <Apr18-2019> <21:31:42>     11      0.00000245      0.00000087      0.0
 <Apr18-2019> <21:31:42>     12      0.00000003      0.00000001      0.0
 <Apr18-2019> <21:31:42>     13      0.00000000      0.00000000      0.0
 <Apr18-2019> <21:31:42>  SCF converged
 <Apr18-2019> <21:31:42>     14      0.00000000      0.00000000      0.0
 <Apr18-2019> <21:31:42>  >>>> POPAN
 <Apr18-2019> <21:31:42>  >>>> DEBYE
 <Apr18-2019> <21:31:42>  NORMAL TERMINATION
 <Apr18-2019> <21:31:42>  END


 Parallel Execution: Process Information
 ==============================================================================
 Rank   Node Name                              NodeID   MyNodeRank  NodeMaster
    0   BAZIS-cn076                               0          0          0
    1   BAZIS-cn076                               0          1         -1
    2   BAZIS-cn076                               0          2         -1
    3   BAZIS-cn076                               0          3         -1
    4   BAZIS-cn076                               0          4         -1
    5   BAZIS-cn076                               0          5         -1
    6   BAZIS-cn076                               0          6         -1
    7   BAZIS-cn076                               0          7         -1
    8   BAZIS-cn076                               0          8         -1
    9   BAZIS-cn076                               0          9         -1
   10   BAZIS-cn076                               0         10         -1
   11   BAZIS-cn076                               0         11         -1
 ==============================================================================


May use up to 30736MB of RAM as shared memory on node 0


XC
  GGA blyp
  DISPERSION Grimme3 BJDAMP
END

ANALYTICALFREQ
END

SCF
  iterations 250
END

SYMMETRY nosym
CHARGE -1

ZLMFIT
  Quality normal
END

BECKEGRID
  Quality good
End

ATOMS
    3.Cl       -1.349501    0.908203    1.519293
END

Fragments
Cl t21.Cl
End
end input

 *******************************************************************************
 *                                                                             *
 *  -------------------------------------                                      *
 *   Amsterdam Density Functional  (ADF)         development version           *
 *  -------------------------------------                                      *
 *                                               r61132 2017-09-08             *
 *                                                                             *
 *                                                                             *
 *                              =================                              *
 *                              |               |                              *
 *                              |     A D F     |                              *
 *                              |               |                              *
 *                              =================                              *
 *                                                                             *
 *                                                                             *
 *   Online information and documentation:  https://www.scm.com/support/       *
 *   E-mail:  support@scm.com   info@scm.com                                   *
 *                                                                             *
 *   Scientific publications using ADF results must be properly referenced     *
 *   See the User Manuals (or the web site) for recommended citations          *
 *   The terms and conditions of the End User License Agreement apply to       *
 *   the use of ADF, https://www.scm.com/license-terms/                        *
 *                                                                             *
 **********************  x86_64_linux_intel / intelmpi  ************************
 
 Licensed to: VU/FEW (+ SARA) / ALGEMEEN / Amsterdam / THE NETHERLANDS
 SCM User ID: u7668
  
 ADF development version  RunTime: Apr18-2019 21:31:42  Nodes: 1  Procs: 12

 Temporary files are created in /local/datastore0/tcst25/186801/kid_0.SAVHBZ


Communication costs MPI_COMM_WORLD:      2.494 usec per message,   0.0133 usec per 8-byte item
Communication costs for intra-node:      2.493 usec per message,   0.0133 usec per 8-byte item

 *** (NO TITLE) ***



 ===========================
 A T T A C H E D   F I L E S
 ===========================
  



 ===============================
 M O D E L   P A R A M E T E R S
 ===============================
  
 DENSITY FUNCTIONAL POTENTIAL (scf)
    LDA:                               Exchange only                           == Not Default ==
    Gradient Corrections:              Becke88 LYP                             == Not Default ==

 SPIN  (restricted / unrestr.)
    Molecule:                          Restricted                               
    Fragments:                         Restricted                               

 OTHER ASPECTS
    Relativistic Corrections:          ---                                      

    Nuclear Charge Density Model:      Point Charge Nuclei                      
    Core Treatment:                    Frozen Orbital(s)                        

    Hyperfine or Zeeman Interaction:   ---                                      

 Settings for Grimme 3 dispersion correction

      damping                        BJ
      s6                          1.000
      a1                          0.430
      s8                          2.700
      a2                          4.236

 Other (technical) parameters

      alpha                      14.000
      version                         4
 


 Fragment File(s)
 ----------------
 Cl:
         file : t21.Cl
         jobid: ADF development version  RunTime: Apr18-2019 21:31:42  Nodes: 1  Procs: 1
         title: Chlorine (TZ2P)

 *******************************************************************************

 ADF EXIT called
 wrong nr. of rigids

 *******************************************************************************
 *******************************************************************************

                             A D F   E X I T
 
 ============
 Timer stack:
 ------------
  1555615902.83  ADF                                                             
  1555615903.40  Geomet                                                          
 ============

 wrong nr. of rigids


 Current Execution Stack has  4 elements
 Last to be Executed : ADF

 Stack of Active SubPrograms:
 ----------------------------
 RIGIDS                        
 FREQIN                        
 GEOMET                        
 ADF                           



 =================
 Timing Statistics
 =================
  
 Total Used :                     CPU=        0.50      System=        0.02     Elapsed=        0.52

 Calls  Section                     ( Mean, Percentage )
 ---------------------------------------------------------------------------------------------------
     2  ><      ................      0.00    0.00             0.00    0.00             0.00    0.00
     1  INIT    ................      0.48   96.38             0.02   76.00             0.50   95.48
     1  EXIT PROCEDURE .........      0.02    3.62             0.01   24.00             0.02    4.52


 Currently Open Files (EXIT00)
 ====================

 Unit    Access Format  Status   Type       Ident (file)
 -------------------------------------------------------
   3      SEQ    FORM   TRANSP  NORMAL      LOGFILE
                                          ( logfile )


 Buffered I/O statistics
 =======================
 Memory available:                     67108864
 Number of records fitting in memory:     16131
 Input :  11.3% of                         2114  *4k bytes
 Output:  34.5% of                          145  *4k bytes
 Records from serial files evicted:           0
                    others evicted:           0
 Hash table lookups:       5529 with          0 conflicts (  0.00%)

 ***************************************************************************************************
 (LOGFILE)
 <Apr18-2019> <21:31:42>  ADF development version  RunTime: Apr18-2019 21:31:42  Nodes: 1  Procs: 1
 <Apr18-2019> <21:31:42>  Chlorine (TZ2P)
 <Apr18-2019> <21:31:42>  RunType   : CREATE
 <Apr18-2019> <21:31:42>  Net Charge: 0 (Nuclei minus Electrons)
 <Apr18-2019> <21:31:42>  Symmetry  : ATOM
  Coordinates
    Atom         X           Y           Z   (Angstrom)
    1.Cl        0.000000    0.000000    0.000000
 <Apr18-2019> <21:31:42>  >>>> CORORT
 <Apr18-2019> <21:31:42>  >>>> CLSMAT
 <Apr18-2019> <21:31:42>  >>>> ORTHON
 <Apr18-2019> <21:31:42>  >>>> GENPT
 <Apr18-2019> <21:31:42>  Block Length=  93
 <Apr18-2019> <21:31:42>  >>>> PTBAS
 <Apr18-2019> <21:31:42>  >>>> CYCLE
 <Apr18-2019> <21:31:42>              |Error|         MaxErr       Wt(A-DIIS)
 <Apr18-2019> <21:31:42>      1      0.00000000      0.00000000
 <Apr18-2019> <21:31:42>      2     37.91809312     10.75416200    100.0
 <Apr18-2019> <21:31:42>      3     20.75770825      6.87179666    100.0
 <Apr18-2019> <21:31:42>      4      6.02140545      2.06148759    100.0
 <Apr18-2019> <21:31:42>      5      4.12282628      1.76233895    100.0
 <Apr18-2019> <21:31:42>      6      0.29713446      0.11190714    100.0
 <Apr18-2019> <21:31:42>      7      0.26827088      0.11225117    100.0
 <Apr18-2019> <21:31:42>      8      0.07155945      0.02618708     25.4
 <Apr18-2019> <21:31:42>      9      0.01306627      0.00522014      4.3
 <Apr18-2019> <21:31:42>     10      0.00048573      0.00020293      0.0
 <Apr18-2019> <21:31:42>     11      0.00000245      0.00000087      0.0
 <Apr18-2019> <21:31:42>     12      0.00000003      0.00000001      0.0
 <Apr18-2019> <21:31:42>     13      0.00000000      0.00000000      0.0
 <Apr18-2019> <21:31:42>  SCF converged
 <Apr18-2019> <21:31:42>     14      0.00000000      0.00000000      0.0
 <Apr18-2019> <21:31:42>  >>>> POPAN
 <Apr18-2019> <21:31:42>  >>>> DEBYE
 <Apr18-2019> <21:31:42>  NORMAL TERMINATION
 <Apr18-2019> <21:31:42>  END
 <Apr18-2019> <21:31:42>  ADF development version  RunTime: Apr18-2019 21:31:42  Nodes: 1  Procs: 12
 <Apr18-2019> <21:31:43>  *** (NO TITLE) ***
 <Apr18-2019> <21:31:43>  RunType   : SINGLE POINT
 <Apr18-2019> <21:31:43>  ERROR DETECTED: wrong nr. of rigids
 <Apr18-2019> <21:31:43>  END
