

 Parallel Execution: Process Information
 ==============================================================================
 Rank   Node Name                              NodeID   MyNodeRank  NodeMaster
    0   BAZIS-cn076                               0          0          0
    1   BAZIS-cn076                               0          1         -1
    2   BAZIS-cn076                               0          2         -1
    3   BAZIS-cn076                               0          3         -1
    4   BAZIS-cn076                               0          4         -1
    5   BAZIS-cn076                               0          5         -1
    6   BAZIS-cn076                               0          6         -1
    7   BAZIS-cn076                               0          7         -1
    8   BAZIS-cn076                               0          8         -1
    9   BAZIS-cn076                               0          9         -1
   10   BAZIS-cn076                               0         10         -1
   11   BAZIS-cn076                               0         11         -1
 ==============================================================================


May use up to 30736MB of RAM as shared memory on node 0


XC
    GGA BP86
END

SCF
    iterations 250
END

EPRINT
    SFO Eig Ovl
END

ZLMFIT
    Quality normal
END

BECKEGRID
    Quality good
End

SYMMETRY nosym
CHARGE -1

ATOMS
1.Br       -4.027263   -0.191029   -0.137330 f=BrH
2.H        -2.626210    0.379253    0.729122 f=BrH
3.Br       -1.227022    0.949645    1.598436 f=Br
END

Fragments
BrH /home/tcst25/advanced_comp_chemistry/exercise2/hydrogen/BrHBr/frag1_BrH.t21
Br /home/tcst25/advanced_comp_chemistry/exercise2/hydrogen/BrHBr/frag2_Br.t21
End
end input

 *******************************************************************************
 *                                                                             *
 *  -------------------------------------                                      *
 *   Amsterdam Density Functional  (ADF)         2017                          *
 *  -------------------------------------                                      *
 *                                               r58813 2017-04-12             *
 *                                                                             *
 *                                                                             *
 *                              =================                              *
 *                              |               |                              *
 *                              |     A D F     |                              *
 *                              |               |                              *
 *                              =================                              *
 *                                                                             *
 *                                                                             *
 *   Online information and documentation:  https://www.scm.com/support/       *
 *   E-mail:  support@scm.com   info@scm.com                                   *
 *                                                                             *
 *   Scientific publications using ADF results must be properly referenced     *
 *   See the User Manuals (or the web site) for recommended citations          *
 *   The terms and conditions of the End User License Agreement apply to       *
 *   the use of ADF, https://www.scm.com/license-terms/                        *
 *                                                                             *
 **********************  x86_64_linux_intel / intelmpi  ************************
 
 Licensed to: VU/FEW (+ SARA) / ALGEMEEN / Amsterdam / THE NETHERLANDS
 SCM User ID: u7668
  
 ADF 2017  RunTime: May09-2019 17:23:36  Nodes: 1  Procs: 12

 Temporary files are created in /local/datastore0/tcst25/189810/kid_0.9Azmg6


Communication costs MPI_COMM_WORLD:      2.510 usec per message,   0.0110 usec per 8-byte item
Communication costs for intra-node:      2.506 usec per message,   0.0110 usec per 8-byte item

 *** (NO TITLE) ***



 ===========================
 A T T A C H E D   F I L E S
 ===========================
  



 ===============================
 M O D E L   P A R A M E T E R S
 ===============================
  
 DENSITY FUNCTIONAL POTENTIAL (scf)
    LDA:                               VWN                                      
    Gradient Corrections:              Becke88 Perdew86                        == Not Default ==

 SPIN  (restricted / unrestr.)
    Molecule:                          Restricted                               
    Fragments:                         Restricted                               

 OTHER ASPECTS
    Relativistic Corrections:          ---                                      

    Nuclear Charge Density Model:      Point Charge Nuclei                      
    Core Treatment:                    Frozen Orbital(s)                        

    Hyperfine or Zeeman Interaction:   ---                                      


 Fragment File(s)
 ----------------
 BrH:
         file : /home/tcst25/advanced_comp_chemistry/exercise2/hydrogen/BrHBr/frag1_BrH.t21
         jobid: ADF 2017  RunTime: May09-2019 17:12:32  Nodes: 1  Procs: 12
         title: *** (NO TITLE) ***
 Br:
         file : /home/tcst25/advanced_comp_chemistry/exercise2/hydrogen/BrHBr/frag2_Br.t21
         jobid: ADF 2017  RunTime: May09-2019 17:12:32  Nodes: 1  Procs: 12
         title: *** (NO TITLE) ***



                                        ************************************
                                        *  R U N   T Y P E : SINGLE POINT  *
                                        ************************************
  



 ===============
 G E O M E T R Y  ***  Planar Molecule  ***
 ===============
  

 ATOMS
 =====                            X Y Z                    CHARGE
                                (Angstrom)             Nucl     +Core       At.Mass
                       --------------------------    ----------------       -------
    1  Br             -4.0273   -0.1910   -0.1373     35.00     35.00       78.9183
    2  H              -2.6262    0.3793    0.7291      1.00      1.00        1.0078
    3  Br             -1.2270    0.9496    1.5984     35.00     35.00       78.9183


 FRAGMENTS
 =========                                     Atoms in this Fragment     Cart. coord.s (Angstrom)
                                               -------------------------------------------------------
    1  BrH                                               1  Br          -4.0273   -0.1910   -0.1373
                                                         2  H           -2.6262    0.3793    0.7291
    2  Br                                                3  Br          -1.2270    0.9496    1.5984


 Interatomic Distance Matrix (Angstrom)
 --------------------------------------

   1)     0.000
   2)     1.743   0.000
   3)     3.486   1.743   0.000

 Min. Distance =    1.7432
 Max. Distance =    3.4865



 =====================================
 S Y M M E T R Y ,   E L E C T R O N S
 =====================================
  
 Symmetry: NOSYM

 Irreducible Representations, including subspecies
 -------------------------------------------------
 A


 Configuration of Valence Electrons
 ==================================
 ( determined in the SCF procedure )

 Total:   72

 Net Charge: -1 (Nuclei minus Electrons)

 Aufbau principle for MO occupations will be applied through SCF cycle no.     125
 Thereafter, the program will assign electrons to MOs that are spatially
 similar to the occupied MOs in a "reference" cycle ("KeepOrbitals").
 The reference cycle is always the PREVIOUS cycle: it will evolve with
 the SCF procedure.
1
 ***************************************************************************************************



                                      ****************************************
                                      *  B U I L D : (Fragments, Functions)  *
                                      ****************************************
  

 The individual fragments are copies of the corresponding 'Master' fragments defined on the fragment files.
 However, they may have been rotated (and translated) with respect to the Master. The local coordinate axes
 of each fragment (which define for instance the spatial orientation in the current molecule of a fragment
 P:x orbital) are not necessarily those of the molecule.
 The local frame (if different from the molecular one) is printed to enable an interpretation of the expan-
 sion of an MO in Fragment Orbitals.



                                             *************************
                                             *  Fragment Type : BrH  *
                                             *************************
  

 Fragment no.    1   (in the list of all fragments)
 -----------------
 The local coordinate frame is identical to the molecular frame.

 Check Atomic Coordinates:

                  Master (on file)          After Computed Tranformation               As specified on Input
           ----------------------------     ----------------------------     ---------------------------------
     1)    -4.02726  -0.19103  -0.13733     -4.02726  -0.19103  -0.13733       1  -4.02726  -0.19103  -0.13733
     2)    -2.62621   0.37925   0.72912     -2.62621   0.37925   0.72912       2  -2.62621   0.37925   0.72912



                                              ************************
                                              *  Fragment Type : Br  *
                                              ************************
  

 Fragment no.    2   (in the list of all fragments)
 -----------------
 The local coordinate frame is identical to the molecular frame.

 Check Atomic Coordinates:

                  Master (on file)          After Computed Tranformation               As specified on Input
           ----------------------------     ----------------------------     ---------------------------------
     1)    -1.22702   0.94964   1.59844     -1.22702   0.94964   1.59844       3  -1.22702   0.94964   1.59844



 =======
 S F O s  ***  (Symmetrized Fragment Orbitals)  ***
 =======
  
 SFOs are linear combinations of (valence) Fragment Orbitals (FOs), such that the SFOs transform as the
 irreducible representations of the (molecular) symmetry group. Each SFO is therefore characterized by
 an irrep of the molecule and by a few (or only one) generating FOs.
 The SFOs constitute a symmetry-adapted basis for the Fock matrix. The MO eigenvector coefficients in
 this basis provide a direct interpretation of the MOs in terms of Frontier Orbital Theory.

 The SFOs are combined with auxiliary Core Functions (CFs) to ensure orthogonalization on the (frozen)
 Core Orbitals (COs). The Core-orthogonalized SFOs (CSFOs) constitute the true Fock basis.

 The FOs, and hence also the (C)SFOs are combinations of the elementary basis functions (BAS). The basis
 functions that participate in the description of the SFOs depend on the irrep. The indices of the
 involved functions are printed below for each irrep.
 (The complete list of primitive basis functions is printed in another section)

 Total nr. of (C)SFOs (summation over all irreps) :   123

 NOTE: a (C)SFO that is defined as a combination of more than one FO is usually NOT normalized.



                                       === A ===
 Nr. of SFOs :  123
 Cartesian basis functions that participate in this irrep (total number =   138) :
      1     2     3    10    11    36    37    38     4     7
     12    15    39    42    45     5     8    13    16    40
     43    46     6     9    14    17    41    44    47    18
     24    30    48    19    25    31    49    20    26    32
     50    21    27    33    51    22    28    34    52    23
     29    35    53    54    55    56    57    58    59    60
     61    62    63    64    65    66    67    68    69    70
     71    72    73    74    75    76    77    78    85    86
    111   112   113    79    82    87    90   114   117   120
     80    83    88    91   115   118   121    81    84    89
     92   116   119   122    93    99   105   123    94   100
    106   124    95   101   107   125    96   102   108   126
     97   103   109   127    98   104   110   128   129   130
    131   132   133   134   135   136   137   138

    SFO  (index         Fragment          Generating    Expansion in Fragment Orbitals
  indx  incl.CFs)   Occup   Orb.Energy   FragmentType  Coeff.   Orbital     on Fragment
 --------------------------------------------------------------------------------------
     1       1      2.000    -481.011 au  BrH           1.00      1 A               1
                        (  -13088.982 eV)
     2       2      2.000     -61.767 au  BrH           1.00      2 A               1
                        (   -1680.761 eV)
     3       3      2.000     -55.700 au  BrH           1.00      3 A               1
                        (   -1515.676 eV)
     4       4      2.000     -55.695 au  BrH           1.00      4 A               1
                        (   -1515.535 eV)
     5       5      2.000     -55.695 au  BrH           1.00      5 A               1
                        (   -1515.535 eV)
     6       6      2.000      -8.387 au  BrH           1.00      6 A               1
                        (    -228.223 eV)
     7       7      2.000      -6.296 au  BrH           1.00      7 A               1
                        (    -171.332 eV)
     8       8      2.000      -6.282 au  BrH           1.00      8 A               1
                        (    -170.936 eV)
     9       9      2.000      -6.282 au  BrH           1.00      9 A               1
                        (    -170.936 eV)
    10      10      2.000      -2.501 au  BrH           1.00     10 A               1
                        (     -68.069 eV)
    11      11      2.000      -2.498 au  BrH           1.00     11 A               1
                        (     -67.971 eV)
    12      12      2.000      -2.498 au  BrH           1.00     12 A               1
                        (     -67.971 eV)
    13      13      2.000      -2.487 au  BrH           1.00     13 A               1
                        (     -67.682 eV)
    14      14      2.000      -2.487 au  BrH           1.00     14 A               1
                        (     -67.682 eV)
    15      15      2.000      -0.702 au  BrH           1.00     15 A               1
                        (     -19.109 eV)
    16      16      2.000      -0.373 au  BrH           1.00     16 A               1
                        (     -10.163 eV)
    17      17      2.000      -0.266 au  BrH           1.00     17 A               1
                        (      -7.245 eV)
    18      18      2.000      -0.266 au  BrH           1.00     18 A               1
                        (      -7.245 eV)
    19      19       --        -0.124 au  BrH           1.00     19 A               1
                        (      -3.385 eV)
    20      20       --         0.054 au  BrH           1.00     20 A               1
                        (       1.479 eV)
    21      21       --         0.130 au  BrH           1.00     21 A               1
                        (       3.528 eV)
    22      22       --         0.141 au  BrH           1.00     22 A               1
                        (       3.830 eV)
    23      23       --         0.141 au  BrH           1.00     23 A               1
                        (       3.831 eV)
    24      24       --         0.221 au  BrH           1.00     24 A               1
                        (       6.025 eV)
    25      25       --         0.221 au  BrH           1.00     25 A               1
                        (       6.025 eV)
    26      26       --         0.283 au  BrH           1.00     26 A               1
                        (       7.701 eV)
    27      27       --         0.283 au  BrH           1.00     27 A               1
                        (       7.701 eV)
    28      28       --         0.335 au  BrH           1.00     28 A               1
                        (       9.118 eV)
    29      29       --         0.445 au  BrH           1.00     29 A               1
                        (      12.123 eV)
    30      30       --         0.580 au  BrH           1.00     30 A               1
                        (      15.788 eV)
    31      31       --         0.580 au  BrH           1.00     31 A               1
                        (      15.788 eV)
    32      32       --         0.840 au  BrH           1.00     32 A               1
                        (      22.844 eV)
    33      33       --         0.854 au  BrH           1.00     33 A               1
                        (      23.248 eV)
    34      34       --         0.854 au  BrH           1.00     34 A               1
                        (      23.249 eV)
    35      35       --         0.874 au  BrH           1.00     35 A               1
                        (      23.771 eV)
    36      36       --         0.874 au  BrH           1.00     36 A               1
                        (      23.771 eV)
    37      37       --         1.055 au  BrH           1.00     37 A               1
                        (      28.718 eV)
    38      38       --         1.055 au  BrH           1.00     38 A               1
                        (      28.718 eV)
    39      39       --         1.080 au  BrH           1.00     39 A               1
                        (      29.397 eV)
    40      40       --         1.235 au  BrH           1.00     40 A               1
                        (      33.611 eV)
    41      41       --         1.235 au  BrH           1.00     41 A               1
                        (      33.611 eV)
    42      42       --         1.583 au  BrH           1.00     42 A               1
                        (      43.082 eV)
    43      43       --         1.989 au  BrH           1.00     43 A               1
                        (      54.116 eV)
    44      44       --         2.593 au  BrH           1.00     44 A               1
                        (      70.549 eV)
    45      45       --         2.593 au  BrH           1.00     45 A               1
                        (      70.549 eV)
    46      46       --         2.605 au  BrH           1.00     46 A               1
                        (      70.873 eV)
    47      47       --         2.728 au  BrH           1.00     47 A               1
                        (      74.241 eV)
    48      48       --         2.728 au  BrH           1.00     48 A               1
                        (      74.242 eV)
    49      49       --         2.778 au  BrH           1.00     49 A               1
                        (      75.590 eV)
    50      50       --         2.778 au  BrH           1.00     50 A               1
                        (      75.590 eV)
    51      51       --         3.301 au  BrH           1.00     51 A               1
                        (      89.813 eV)
    52      52       --         3.301 au  BrH           1.00     52 A               1
                        (      89.815 eV)
    53      53       --         3.372 au  BrH           1.00     53 A               1
                        (      91.764 eV)
    54      54       --         4.142 au  BrH           1.00     54 A               1
                        (     112.696 eV)
    55      55       --         8.866 au  BrH           1.00     55 A               1
                        (     241.251 eV)
    56      56       --         8.866 au  BrH           1.00     56 A               1
                        (     241.251 eV)
    57      57       --         9.195 au  BrH           1.00     57 A               1
                        (     250.208 eV)
    58      58       --        14.699 au  BrH           1.00     58 A               1
                        (     399.967 eV)
    59      59       --        20.633 au  BrH           1.00     59 A               1
                        (     561.460 eV)
    60      60       --        20.633 au  BrH           1.00     60 A               1
                        (     561.461 eV)
    61      61       --        20.791 au  BrH           1.00     61 A               1
                        (     565.742 eV)
    62      62       --        20.791 au  BrH           1.00     62 A               1
                        (     565.742 eV)
    63      63       --        21.394 au  BrH           1.00     63 A               1
                        (     582.173 eV)
    64      64       --       100.909 au  BrH           1.00     64 A               1
                        (    2745.862 eV)
    65      65       --       100.909 au  BrH           1.00     65 A               1
                        (    2745.863 eV)
    66      66       --       101.644 au  BrH           1.00     66 A               1
                        (    2765.887 eV)
    67      67       --       748.244 au  BrH           1.00     67 A               1
                        (   20360.749 eV)
    68      68      2.000    -480.688 au  Br            1.00      1 A               2
                        (  -13080.195 eV)
    69      69      2.000     -61.445 au  Br            1.00      2 A               2
                        (   -1672.008 eV)
    70      70      2.000     -55.375 au  Br            1.00      3 A               2
                        (   -1506.824 eV)
    71      71      2.000     -55.375 au  Br            1.00      4 A               2
                        (   -1506.824 eV)
    72      72      2.000     -55.375 au  Br            1.00      5 A               2
                        (   -1506.824 eV)
    73      73      2.000      -8.066 au  Br            1.00      6 A               2
                        (    -219.480 eV)
    74      74      2.000      -5.966 au  Br            1.00      7 A               2
                        (    -162.330 eV)
    75      75      2.000      -5.966 au  Br            1.00      8 A               2
                        (    -162.330 eV)
    76      76      2.000      -5.966 au  Br            1.00      9 A               2
                        (    -162.330 eV)
    77      77      2.000      -2.173 au  Br            1.00     10 A               2
                        (     -59.143 eV)
    78      78      2.000      -2.173 au  Br            1.00     11 A               2
                        (     -59.143 eV)
    79      79      2.000      -2.173 au  Br            1.00     12 A               2
                        (     -59.143 eV)
    80      80      2.000      -2.173 au  Br            1.00     13 A               2
                        (     -59.143 eV)
    81      81      2.000      -2.173 au  Br            1.00     14 A               2
                        (     -59.143 eV)
    82      82      2.000      -0.386 au  Br            1.00     15 A               2
                        (     -10.500 eV)
    83      83      2.000       0.016 au  Br            1.00     16 A               2
                        (       0.447 eV)
    84      84      2.000       0.016 au  Br            1.00     17 A               2
                        (       0.447 eV)
    85      85      2.000       0.016 au  Br            1.00     18 A               2
                        (       0.447 eV)
    86      86       --         0.352 au  Br            1.00     19 A               2
                        (       9.589 eV)
    87      87       --         0.352 au  Br            1.00     20 A               2
                        (       9.589 eV)
    88      88       --         0.352 au  Br            1.00     21 A               2
                        (       9.589 eV)
    89      89       --         0.501 au  Br            1.00     22 A               2
                        (      13.634 eV)
    90      90       --         0.551 au  Br            1.00     23 A               2
                        (      15.005 eV)
    91      91       --         0.551 au  Br            1.00     24 A               2
                        (      15.005 eV)
    92      92       --         0.551 au  Br            1.00     25 A               2
                        (      15.005 eV)
    93      93       --         0.551 au  Br            1.00     26 A               2
                        (      15.005 eV)
    94      94       --         0.551 au  Br            1.00     27 A               2
                        (      15.005 eV)
    95      95       --         1.141 au  Br            1.00     28 A               2
                        (      31.038 eV)
    96      96       --         1.141 au  Br            1.00     29 A               2
                        (      31.038 eV)
    97      97       --         1.141 au  Br            1.00     30 A               2
                        (      31.038 eV)
    98      98       --         1.141 au  Br            1.00     31 A               2
                        (      31.038 eV)
    99      99       --         1.141 au  Br            1.00     32 A               2
                        (      31.038 eV)
   100     100       --         1.141 au  Br            1.00     33 A               2
                        (      31.038 eV)
   101     101       --         1.141 au  Br            1.00     34 A               2
                        (      31.038 eV)
   102     102       --         1.505 au  Br            1.00     35 A               2
                        (      40.949 eV)
   103     103       --         1.505 au  Br            1.00     36 A               2
                        (      40.949 eV)
   104     104       --         1.505 au  Br            1.00     37 A               2
                        (      40.949 eV)
   105     105       --         2.776 au  Br            1.00     38 A               2
                        (      75.551 eV)
   106     106       --         3.002 au  Br            1.00     39 A               2
                        (      81.690 eV)
   107     107       --         3.002 au  Br            1.00     40 A               2
                        (      81.690 eV)
   108     108       --         3.002 au  Br            1.00     41 A               2
                        (      81.690 eV)
   109     109       --         3.002 au  Br            1.00     42 A               2
                        (      81.690 eV)
   110     110       --         3.002 au  Br            1.00     43 A               2
                        (      81.690 eV)
   111     111       --         9.163 au  Br            1.00     44 A               2
                        (     249.341 eV)
   112     112       --         9.163 au  Br            1.00     45 A               2
                        (     249.341 eV)
   113     113       --         9.163 au  Br            1.00     46 A               2
                        (     249.341 eV)
   114     114       --        14.623 au  Br            1.00     47 A               2
                        (     397.911 eV)
   115     115       --        20.941 au  Br            1.00     48 A               2
                        (     569.821 eV)
   116     116       --        20.941 au  Br            1.00     49 A               2
                        (     569.821 eV)
   117     117       --        20.941 au  Br            1.00     50 A               2
                        (     569.821 eV)
   118     118       --        20.941 au  Br            1.00     51 A               2
                        (     569.821 eV)
   119     119       --        20.941 au  Br            1.00     52 A               2
                        (     569.821 eV)
   120     120       --       101.209 au  Br            1.00     53 A               2
                        (    2754.029 eV)
   121     121       --       101.209 au  Br            1.00     54 A               2
                        (    2754.029 eV)
   122     122       --       101.209 au  Br            1.00     55 A               2
                        (    2754.029 eV)
   123     123       --       746.807 au  Br            1.00     56 A               2
                        (   20321.657 eV)



 ================================
 (Slater-type)  F U N C T I O N S  ***  (Basis and Fit)  ***
 ================================
  

 Atom Type    1  (Br)
 ==============

 Valence Basis Sets:  20
 -----------------------
   1 S   41.300000
   1 S   32.800000
   2 S   13.900000
   2 P   19.450000
   2 P   13.100000
   3 S    7.200000
   3 S    4.950000
   3 P    7.900000
   3 P    5.050000
   3 D   10.900000
   3 D    6.050000
   3 D    3.500000
   4 S    4.500000
   4 S    2.800000
   4 S    1.800000
   4 P    3.250000
   4 P    1.950000
   4 P    1.200000
   4 D    1.800000
   4 F    1.800000

 Atom Type    2  (H)
 ==============

 Valence Basis Sets:   5
 -----------------------
   1 S    0.690000
   1 S    0.920000
   1 S    1.580000
   2 P    1.250000
   3 D    2.500000

 Atom Type    3  (Br)
 ==============

 Valence Basis Sets:  20
 -----------------------
   1 S   41.300000
   1 S   32.800000
   2 S   13.900000
   2 P   19.450000
   2 P   13.100000
   3 S    7.200000
   3 S    4.950000
   3 P    7.900000
   3 P    5.050000
   3 D   10.900000
   3 D    6.050000
   3 D    3.500000
   4 S    4.500000
   4 S    2.800000
   4 S    1.800000
   4 P    3.250000
   4 P    1.950000
   4 P    1.200000
   4 D    1.800000
   4 F    1.800000


 BAS: List of all Elementary Cartesian Basis Functions
 =====================================================

 The numbering in the list below (to the right of the function characteristics) is referred
 to in print-outs of MO eigenvectors and Mulliken populations in the BAS representation
 (as contrasted to the SFO representation).

 Notes:
 1. The functions are characterized by a polynomial prefactor (powers of x,y,z and r) and
    an exponential decay factor alpha.
 2. Since the basis sets are specific for an atom TYPE, the individual functions occur on
    all atoms of that type.
 3. The word 'Core' in the left margin signals that it is a Core Function (CF) : not a
    degree of freedom in the valence set, but only used to ensure orthogonalization of
    the other valence basis functions on the frozen Core Orbitals.


 (power of) X  Y  Z  R     Alpha  on Atom
            ==========     =====     ==========

 Br                                   1
                                  ---------------------------------------------------------------------------
            0  0  0  0    41.300      1
            0  0  0  0    32.800      2
            0  0  0  1    13.900      3
            1  0  0  0    19.450      4
            0  1  0  0    19.450      5
            0  0  1  0    19.450      6
            1  0  0  0    13.100      7
            0  1  0  0    13.100      8
            0  0  1  0    13.100      9
            0  0  0  2     7.200     10
            0  0  0  2     4.950     11
            1  0  0  1     7.900     12
            0  1  0  1     7.900     13
            0  0  1  1     7.900     14
            1  0  0  1     5.050     15
            0  1  0  1     5.050     16
            0  0  1  1     5.050     17
            2  0  0  0    10.900     18
            1  1  0  0    10.900     19
            1  0  1  0    10.900     20
            0  2  0  0    10.900     21
            0  1  1  0    10.900     22
            0  0  2  0    10.900     23
            2  0  0  0     6.050     24
            1  1  0  0     6.050     25
            1  0  1  0     6.050     26
            0  2  0  0     6.050     27
            0  1  1  0     6.050     28
            0  0  2  0     6.050     29
            2  0  0  0     3.500     30
            1  1  0  0     3.500     31
            1  0  1  0     3.500     32
            0  2  0  0     3.500     33
            0  1  1  0     3.500     34
            0  0  2  0     3.500     35
            0  0  0  3     4.500     36
            0  0  0  3     2.800     37
            0  0  0  3     1.800     38
            1  0  0  2     3.250     39
            0  1  0  2     3.250     40
            0  0  1  2     3.250     41
            1  0  0  2     1.950     42
            0  1  0  2     1.950     43
            0  0  1  2     1.950     44
            1  0  0  2     1.200     45
            0  1  0  2     1.200     46
            0  0  1  2     1.200     47
            2  0  0  1     1.800     48
            1  1  0  1     1.800     49
            1  0  1  1     1.800     50
            0  2  0  1     1.800     51
            0  1  1  1     1.800     52
            0  0  2  1     1.800     53
            3  0  0  0     1.800     54
            2  1  0  0     1.800     55
            2  0  1  0     1.800     56
            1  2  0  0     1.800     57
            1  1  1  0     1.800     58
            1  0  2  0     1.800     59
            0  3  0  0     1.800     60
            0  2  1  0     1.800     61
            0  1  2  0     1.800     62
            0  0  3  0     1.800     63

 H                                    2
                                  ---------------------------------------------------------------------------
            0  0  0  0     0.690     64
            0  0  0  0     0.920     65
            0  0  0  0     1.580     66
            1  0  0  0     1.250     67
            0  1  0  0     1.250     68
            0  0  1  0     1.250     69
            2  0  0  0     2.500     70
            1  1  0  0     2.500     71
            1  0  1  0     2.500     72
            0  2  0  0     2.500     73
            0  1  1  0     2.500     74
            0  0  2  0     2.500     75

 Br                                   3
                                  ---------------------------------------------------------------------------
            0  0  0  0    41.300     76
            0  0  0  0    32.800     77
            0  0  0  1    13.900     78
            1  0  0  0    19.450     79
            0  1  0  0    19.450     80
            0  0  1  0    19.450     81
            1  0  0  0    13.100     82
            0  1  0  0    13.100     83
            0  0  1  0    13.100     84
            0  0  0  2     7.200     85
            0  0  0  2     4.950     86
            1  0  0  1     7.900     87
            0  1  0  1     7.900     88
            0  0  1  1     7.900     89
            1  0  0  1     5.050     90
            0  1  0  1     5.050     91
            0  0  1  1     5.050     92
            2  0  0  0    10.900     93
            1  1  0  0    10.900     94
            1  0  1  0    10.900     95
            0  2  0  0    10.900     96
            0  1  1  0    10.900     97
            0  0  2  0    10.900     98
            2  0  0  0     6.050     99
            1  1  0  0     6.050    100
            1  0  1  0     6.050    101
            0  2  0  0     6.050    102
            0  1  1  0     6.050    103
            0  0  2  0     6.050    104
            2  0  0  0     3.500    105
            1  1  0  0     3.500    106
            1  0  1  0     3.500    107
            0  2  0  0     3.500    108
            0  1  1  0     3.500    109
            0  0  2  0     3.500    110
            0  0  0  3     4.500    111
            0  0  0  3     2.800    112
            0  0  0  3     1.800    113
            1  0  0  2     3.250    114
            0  1  0  2     3.250    115
            0  0  1  2     3.250    116
            1  0  0  2     1.950    117
            0  1  0  2     1.950    118
            0  0  1  2     1.950    119
            1  0  0  2     1.200    120
            0  1  0  2     1.200    121
            0  0  1  2     1.200    122
            2  0  0  1     1.800    123
            1  1  0  1     1.800    124
            1  0  1  1     1.800    125
            0  2  0  1     1.800    126
            0  1  1  1     1.800    127
            0  0  2  1     1.800    128
            3  0  0  0     1.800    129
            2  1  0  0     1.800    130
            2  0  1  0     1.800    131
            1  2  0  0     1.800    132
            1  1  1  0     1.800    133
            1  0  2  0     1.800    134
            0  3  0  0     1.800    135
            0  2  1  0     1.800    136
            0  1  2  0     1.800    137
            0  0  3  0     1.800    138

 Total number of charge fitting functions (nprimf)       390
 Total number of Cartesian basis functions (naos)        138
 Total number of Cartesian core functions  (ncos)          0

1
 ***************************************************************************************************



                                              ***********************
                                              *  T E C H N I C A L  *
                                              ***********************
  



 =============================================================
 P A R A L L E L I Z A T I O N  and  V E C T O R I Z A T I O N
 =============================================================
  
 Nr of parallel processes:                               12
 Maximum vector length in NumInt loops:                 128

 IO buffersize (Mb):                                     64.000000



 =====================
 S C F   U P D A T E S
 =====================
  
 Max. nr. of cycles:                               250
 Convergence criterion:                              0.0000010000
   secondary criterion:                              0.0010000000

 Mix parameter (when DIIS does not apply):           0.2000000000
 Mixed ADIIS+DIIS will be used
    Max number of expansion vectors:                10
    Pure ADIIS when Max([F,P]) is above              0.1000000000
    Pure DIIS when Max([F,P]) is below               0.0010000000
 Automatic ElectronSmearing (in case of problematic SCF convergence) disabled



 =================
 P R E C I S I O N  ***  (General: NumInt, NeglectFunctionTails, ...)  ***
 =================
  

 NumInt:           Target precision:                 6.0000000000
 -------           Initial precision:                6.0000000000
                   Min. precision (optimization):    6.0000000000

 Neglect Functions:          Basis functions:        0.1000000000E-07
 ------------------          Fit functions:          0.1000000000E-07



 ===========================
 L I N E A R   S C A L I N G
 ===========================
  

 Cut-off radii density fit:                        0.1000000000E-09
 Overlap cut-off criterion AO matrix elements:     0.1000000000E-07
 Cut-offs for Coulomb potential and fitted density:0.1000000000E-09
 Cut-off criterion for Coulomb multipole terms:    0.1000000000E-09
 Progressive Convergence parameter:                 0.000000000    
1
 ***************************************************************************************************



                                            ***************************
                                            *  C O M P U T A T I O N  *
                                            ***************************
  

 Number of elements of the density matrix on this node (used, total):      2016      9591



 ===========================================
 Numerical Integration : Fuzzy Cells (Becke)
 ===========================================
  
 Becke grid quality: GOOD           
  
 Lebedev angular grid order:             min:  11 max:  31
 Nr. of radial points:                   min:  54 max:  90

 Total nr. of points:      50504
 Nr. of blocks:              395
 Block length:               128
 Nr. of dummy points:         56


 Test of Precision of the Numerical Integration Grid
 ===================================================

 Integral of the Total Core Density:                   0.00000000000000



 ========================
 Density Fitting (zlmFit)
 ========================
  
 ZlmFit Fit Quality: NORMAL         
  
 Max L-expansion:                        min:   6 max:   7
 Nr. of radial interpolation points:     min:  39 max:  72



 =====
 S C F  ***  ScaSCF  ***
 =====
  
 Initial density matrix is calculated as sum of fragments

 CYCLE    1
 SCF Error: norm([F,P])=      1.124708338958, max([F,P])=      0.623152837658
 orbitals (Q,E):
 ---------------
 A :27...46          ( 2.00    -2.2240)  ( 2.00    -2.2240)  ( 2.00    -0.5629)  ( 2.00    -0.4464)
                     ( 2.00    -0.2178)  ( 2.00    -0.1331)  ( 2.00    -0.1331)  ( 2.00    -0.0670)
                     ( 2.00    -0.0260)  ( 2.00    -0.0260)  ( 0.00     0.1440)  ( 0.00     0.1989)
                     ( 0.00     0.2618)  ( 0.00     0.2732)  ( 0.00     0.2732)  ( 0.00     0.3305)
                     ( 0.00     0.3305)  ( 0.00     0.3349)  ( 0.00     0.3766)  ( 0.00     0.3766)

 CYCLE    2
   MIX coefficients:  0.8000  0.2000
 SCF Error: norm([F,P])=      0.337077574666, max([F,P])=      0.096819144477
 orbitals (Q,E):
 ---------------
 A :27...37          ( 2.00    -2.2563)  ( 2.00    -2.2563)  ( 2.00    -0.5297)  ( 2.00    -0.4695)
                     ( 2.00    -0.2047)  ( 2.00    -0.1037)  ( 2.00    -0.1037)  ( 2.00    -0.0710)
                     ( 2.00    -0.0478)  ( 2.00    -0.0478)  ( 0.00     0.1469)

 CYCLE    3
  SDIIS (wt  0.000): -0.6364  1.6364
 A-DIIS (wt  1.000):  0.0000  1.0000
  DIIS coefficients:  0.0000  1.0000
 SCF Error: norm([F,P])=      0.155855645286, max([F,P])=      0.050975691540
 orbitals (Q,E):
 ---------------
 A :27...37          ( 2.00    -2.1945)  ( 2.00    -2.1945)  ( 2.00    -0.5277)  ( 2.00    -0.4437)
                     ( 2.00    -0.2013)  ( 2.00    -0.1010)  ( 2.00    -0.1010)  ( 2.00    -0.0556)
                     ( 2.00    -0.0287)  ( 2.00    -0.0287)  ( 0.00     0.1517)

 CYCLE    4
  SDIIS (wt  0.000):  0.2695  0.3049  0.4256
 A-DIIS (wt  1.000):  0.0000  0.7014  0.2986
  DIIS coefficients:  0.0000  0.7014  0.2986
 SCF Error: norm([F,P])=      0.317423762125, max([F,P])=      0.100403886260
 orbitals (Q,E):
 ---------------
 A :27...37          ( 2.00    -2.2608)  ( 2.00    -2.2608)  ( 2.00    -0.5021)  ( 2.00    -0.4756)
                     ( 2.00    -0.1949)  ( 2.00    -0.0769)  ( 2.00    -0.0769)  ( 2.00    -0.0634)
                     ( 2.00    -0.0587)  ( 2.00    -0.0587)  ( 0.00     0.1514)

 CYCLE    5
  SDIIS (wt  0.869): -0.0582  0.4080  0.0626  0.5876
 A-DIIS (wt  0.131):  0.0000  0.0147  0.0000  0.9853
  DIIS coefficients: -0.0506  0.3567  0.0544  0.6395
 SCF Error: norm([F,P])=      0.055810011923, max([F,P])=      0.013919734194
 orbitals (Q,E):
 ---------------
 A :27...37          ( 2.00    -2.2676)  ( 2.00    -2.2676)  ( 2.00    -0.5026)  ( 2.00    -0.4798)
                     ( 2.00    -0.1968)  ( 2.00    -0.0759)  ( 2.00    -0.0759)  ( 2.00    -0.0658)
                     ( 2.00    -0.0632)  ( 2.00    -0.0632)  ( 0.00     0.1503)

 CYCLE    6
  SDIIS (wt  0.987): -0.0549  0.1510 -0.0016  0.2216  0.6838
 A-DIIS (wt  0.013):  0.0000  0.0000  0.0000  0.0000  1.0000
  DIIS coefficients: -0.0542  0.1491 -0.0016  0.2188  0.6878
 SCF Error: norm([F,P])=      0.010047191125, max([F,P])=      0.002257898420
 orbitals (Q,E):
 ---------------
 A :27...37          ( 2.00    -2.2687)  ( 2.00    -2.2687)  ( 2.00    -0.5025)  ( 2.00    -0.4798)
                     ( 2.00    -0.1965)  ( 2.00    -0.0759)  ( 2.00    -0.0759)  ( 2.00    -0.0658)
                     ( 2.00    -0.0632)  ( 2.00    -0.0632)  ( 0.00     0.1504)

 CYCLE    7
  SDIIS (wt  1.000): -0.0132  0.0459  0.0023  0.0819  0.3019  0.5811
  DIIS coefficients: -0.0132  0.0459  0.0023  0.0819  0.3019  0.5811
 SCF Error: norm([F,P])=      0.002461223323, max([F,P])=      0.000548187601
 orbitals (Q,E):
 ---------------
 A :27...37          ( 2.00    -2.2690)  ( 2.00    -2.2690)  ( 2.00    -0.5026)  ( 2.00    -0.4800)
                     ( 2.00    -0.1967)  ( 2.00    -0.0760)  ( 2.00    -0.0760)  ( 2.00    -0.0659)
                     ( 2.00    -0.0633)  ( 2.00    -0.0633)  ( 0.00     0.1503)

 CYCLE    8
  SDIIS (wt  1.000): -0.0013  0.0063  0.0006  0.0153  0.0548  0.1987  0.7256
  DIIS coefficients: -0.0013  0.0063  0.0006  0.0153  0.0548  0.1987  0.7256
 SCF Error: norm([F,P])=      0.000456205985, max([F,P])=      0.000096550986
 orbitals (Q,E):
 ---------------
 A :27...37          ( 2.00    -2.2688)  ( 2.00    -2.2688)  ( 2.00    -0.5025)  ( 2.00    -0.4799)
                     ( 2.00    -0.1966)  ( 2.00    -0.0759)  ( 2.00    -0.0759)  ( 2.00    -0.0659)
                     ( 2.00    -0.0632)  ( 2.00    -0.0632)  ( 0.00     0.1503)

 CYCLE    9
  SDIIS (wt  1.000): -0.0006  0.0021 -0.0001  0.0055  0.0185  0.0810  0.4255  0.4682
  DIIS coefficients: -0.0006  0.0021 -0.0001  0.0055  0.0185  0.0810  0.4255  0.4682
 SCF Error: norm([F,P])=      0.000274463861, max([F,P])=      0.000041776435
 orbitals (Q,E):
 ---------------
 A :27...37          ( 2.00    -2.2689)  ( 2.00    -2.2689)  ( 2.00    -0.5026)  ( 2.00    -0.4799)
                     ( 2.00    -0.1966)  ( 2.00    -0.0760)  ( 2.00    -0.0760)  ( 2.00    -0.0659)
                     ( 2.00    -0.0633)  ( 2.00    -0.0633)  ( 0.00     0.1503)

 CYCLE   10
  SDIIS (wt  1.000):  0.0000 -0.0001 -0.0001  0.0005 -0.0002  0.0114  0.1264  0.1101  0.7520
  DIIS coefficients:  0.0000 -0.0001 -0.0001  0.0005 -0.0002  0.0114  0.1264  0.1101  0.7520
 SCF Error: norm([F,P])=      0.000039449559, max([F,P])=      0.000009225566
 orbitals (Q,E):
 ---------------
 A :27...37          ( 2.00    -2.2689)  ( 2.00    -2.2689)  ( 2.00    -0.5026)  ( 2.00    -0.4799)
                     ( 2.00    -0.1966)  ( 2.00    -0.0760)  ( 2.00    -0.0760)  ( 2.00    -0.0659)
                     ( 2.00    -0.0633)  ( 2.00    -0.0633)  ( 0.00     0.1503)

 CYCLE   11
  SDIIS (wt  1.000):  0.0000 -0.0000 -0.0000 -0.0000 -0.0001  0.0003  0.0107  0.0140  0.1154  0.8596
  DIIS coefficients:  0.0000 -0.0000 -0.0000 -0.0000 -0.0001  0.0003  0.0107  0.0140  0.1154  0.8596
 SCF Error: norm([F,P])=      0.000004437437, max([F,P])=      0.000000979635
 orbitals (Q,E):
 ---------------
 A :27...37          ( 2.00    -2.2689)  ( 2.00    -2.2689)  ( 2.00    -0.5026)  ( 2.00    -0.4799)
                     ( 2.00    -0.1966)  ( 2.00    -0.0760)  ( 2.00    -0.0760)  ( 2.00    -0.0659)
                     ( 2.00    -0.0633)  ( 2.00    -0.0633)  ( 0.00     0.1503)

 SCF CONVERGED

 CYCLE   12
1
 ***************************************************************************************************



                                                *******************
                                                *  R E S U L T S  *
                                                *******************
  
 *** Setting up for NEW gradients in Focky
 *** Using FIT density in Focky

 Orbital Energies, per Irrep and Spin:
 ======================================
                        Occup              E (au)              E (eV)       Diff (eV) with prev. cycle
                        -----      --------------------        ------       --------------------------
 A
              27        2.000     -0.22689019509954E+01       -61.740              -2.29E-06
              28        2.000     -0.22688997586174E+01       -61.740              -2.29E-06
              29        2.000     -0.50255778543750E+00       -13.675              -3.66E-07
              30        2.000     -0.47988893032773E+00       -13.058              -1.04E-07
              31        2.000     -0.19661208201790E+00        -5.350              -1.49E-06
              32        2.000     -0.75967471331714E-01        -2.067               3.05E-08
              33        2.000     -0.75963018707365E-01        -2.067               3.06E-08
              34        2.000     -0.65879164954361E-01        -1.793              -5.99E-07
              35        2.000     -0.63261599828510E-01        -1.721               1.02E-07
              36        2.000     -0.63256898846670E-01        -1.721               1.02E-07
              37        0.000      0.15032466670511E+00         4.091
              38        0.000      0.20324975872272E+00         5.531
              39        0.000      0.27796417529685E+00         7.564
              40        0.000      0.28898743977274E+00         7.864
              41        0.000      0.28899737956848E+00         7.864
              42        0.000      0.32557646825913E+00         8.859
              43        0.000      0.33151026929297E+00         9.021
              44        0.000      0.33151460543091E+00         9.021
              45        0.000      0.38472719038345E+00        10.469
              46        0.000      0.38473430727823E+00        10.469
  
 HOMO :       36 A                -0.63256898846670E-01
 LUMO :       37 A                 0.15032466670511E+00
  


 All Electron Calculation, thus no Orbital Energies of the Core Orbitals are calculated


 Fit test: (difference of exact and fit density, squared integrated, result summed over spins)
         Sum-of-Fragments:                             0.00154752031171
         Orthogonalized Fragments:                     0.00155664009997
         SCF:                                          0.00155639636036



 ==========================
 Electron Density at Nuclei
 ==========================
  
 The electron density is calculated at points on a small sphere around the center of a nucleus.
 The printed electron density is the average electron density on these points.
 The radius of the sphere is the printed approximate finite nuclear radius.

         Atom        Nuclear Radius (Angstrom)             Electron Density (a.u.)
         ----        -------------------------             -----------------------
     1)   Br                0.0000536685                            29312.67843
     2)   H                 0.0000181514                                0.32831
     3)   Br                0.0000536685                            29312.67841



 =======================================
 M U L L I K E N   P O P U L A T I O N S
 =======================================
  
 The survey below gives for each atom:
 a) the total charge (Z minus electrons)
 b) the net spin polarization (nr of electrons spin-A minus spin-B)
 c) for each spin the atomic electron valence density (integrated) per L-value.

 Atom              Charge    Spin density          S         P         D         F
 ----              ------    ------------       ------    ------    ------    ------
 1 Br             -0.5726                       7.9662   17.5761   10.0250    0.0054
 2 H               0.1452                       0.6984    0.1506    0.0058    0.0000
 3 Br             -0.5726                       7.9662   17.5761   10.0250    0.0054

 Populations of individual BAS functions
 ----------------------------------------
 1 Br           0.3611  1.5681  2.0732  0.7129  0.7131  0.7131  1.2651  1.2648  1.2649  1.4354
                0.6016  1.1347  1.1382  1.1373  0.8932  0.8902  0.8910  0.2677  0.4015  0.4015
                0.2676  0.4015  0.2676  0.7757  1.1647  1.1646  0.7771  1.1650  0.7767  0.2908
                0.4338  0.4341  0.2880  0.4334  0.2887  0.2591  1.1985  0.4691  0.5594  0.6068
                0.5945  0.9003  0.9788  0.9584  0.2739  0.3531  0.3325  0.0104  0.0052  0.0110
               -0.0028  0.0022 -0.0011  0.0069  0.0064  0.0085 -0.0051  0.0013 -0.0012 -0.0055
               -0.0026  0.0002 -0.0037
 2 H           -0.3328  0.8037  0.2276  0.0743  0.0327  0.0436  0.0058  0.0013  0.0018 -0.0029
                0.0006 -0.0008
 3 Br           0.3611  1.5681  2.0732  0.7129  0.7131  0.7131  1.2651  1.2648  1.2649  1.4354
                0.6016  1.1347  1.1382  1.1373  0.8932  0.8902  0.8910  0.2677  0.4015  0.4015
                0.2676  0.4015  0.2676  0.7757  1.1647  1.1646  0.7771  1.1650  0.7767  0.2908
                0.4338  0.4341  0.2880  0.4334  0.2887  0.2591  1.1985  0.4691  0.5596  0.6067
                0.5943  0.9006  0.9788  0.9581  0.2741  0.3531  0.3323  0.0103  0.0052  0.0111
               -0.0028  0.0022 -0.0011  0.0068  0.0064  0.0085 -0.0051  0.0013 -0.0011 -0.0055
               -0.0026  0.0002 -0.0037

 Gross Charges per Atom (Z minus electrons)
 ==========================================
            -0.5726    0.1452   -0.5726
 Net Total: -1.00000000


 Atom-Atom Population Matrix (off-diagonal elements not doubled)
 ===============================================================

     1 :    35.4587
     2 :     0.2286    0.3976
     3 :    -0.1146    0.2286   35.4586


 Frag-Frag Population Matrix (off-diagonal elements not doubled)
 ===============================================================

     1 :    36.3134
     2 :     0.1140   35.4586



 =================================================
 H I R S H F E L D   C H A R G E   A N A L Y S I S
 =================================================
  
 For each fragment: the (numerical) integral of rho(scf) * rho(fragment)/rho(sum-of-fragments)
 (nuclear charges are included, electrons are counted negative)

 The fragments and their ordering are defined in the early G E O M E T R Y output section.
 If you use single-atom fragments, this usually implies that all atoms of the same
 chemical type are grouped together. This may not be the order in which you listed them
 in the input file!

    1  BrH                      -0.3091
    2  Br                       -0.6909

 Sum of these charges (accuracy NumInt/Tails) =          -1.00000856



 =============================
 V O R O N O I   C H A R G E S
 =============================
  
 For each atom: the (numerical) integral of the total electronic charge density in its Voronoi cell,
 i.e. the region of space that is closer to that atom than to any other atom.
 (cf. Wigner-Seitz cells in crystals)

 Within the Voronoi cell the subintegrals over the atomic sphere and the remaining part are evaluated
 separately to give the numbers of electrons (negative charge) in these regions.
 The net total charge in the cell (including the nuclear charge) is also given.

 Values are provided for
    a) the Initial (sum-of-fragments) density
    b) the Orthogonalized-Fragments density
    c) the SCF density
    d) the Voronoi Deformation Density (VDD): the difference SCF-Initial for the complete atomic cell
 ---------------------------------------------------------------------------------------------------
 Total NetCharge:              -1.000                     -1.000                     -1.000    0.000
 (accuracy NumInt/Tails)

 Remark: the 'NetTotal' Voronoi charges often do not match the Mulliken and/or Hirshfeld charges very
 well. This is caused by the fact that chemically different atoms are not treated in accordance with
 their relative sizes. (Voronoi cells are defined by boundary planes halfway between the atoms.)
 However, the CHANGES in charge, comparing 'Initial' to 'SCF' for instance, do give a fair indication
 of the flow of charge caused by the relaxation from sum-of-fragments to self-consistency.

 Warning: the absolute accuracy of the VDD charges obtained using the Fuzzy Cells (Becke) integration
 scheme is much poorer than the one obtained with an 'equivalent' Voronoi integration grid. 



 =================================================================
 M U L T I P O L E   D E R I V E D   C H A R G E   A N A L Y S I S
 =================================================================

 This charge analysis uses the atomic multipoles (obtained from the fitted density) up to some level X,
 and reconstructs these multipoles exactly (up to level X) by distributing charges over all atoms.
 This is achieved by using Lagrange multipliers and a weight function to keep the multipoles local.

 Dummy atoms can be included (by setting INCDUM in MDC-block to 1) to obtain a fractional charge.
 This is generally useful and necessary only for small symmetrical molecules, when there are not
 enough degrees of freedom to reconstruct the multipoles.

 Since the atomic multipoles are reconstructed up to level X,
 the molecular multipoles are represented also up to level X.
 The recommended level is to reconstruct up to quadrupole : -> MDC-q charges.

 See: M. Swart, P.Th. van Duijnen, J.G. Snijders, J.Comput.Chem., (2001), p. 79-88.

 ------------------------------------------------------------- 
 Atomic electronic multipole moments from SCF equations (a.u.)
 ------------------------------------------------------------- 

   atom        charge        dip-x     dip-y     dip-z      quad-xx   quad-xy   quad-xz   quad-yy   quad-yz   quad-zz
 --------------------------------------------------------------------------------------------------------------------
    1 Br    -0.235521     0.738587  0.300683  0.456960     1.160896  0.650758  0.988612 -0.840245  0.402336 -0.320651
    2 H     -0.528998     0.000187 -0.000018 -0.000311     0.178168  0.100293  0.152474 -0.129183  0.062078 -0.048986
    3 Br    -0.235481    -0.737864 -0.300740 -0.458137     1.153963  0.649980  0.990831 -0.840071  0.403920 -0.313892

 --------------------------------------- 
 Multipole derived atomic charges (a.u.)
 --------------------------------------- 

 The MDC-m charges are just the Monopole terms in the multipole expansion, while for the MDC-d charges
 also the Dipoles are reconstructed. The usually preferred charges are the MDC-q charges.
 These reconstruct the Monopoles, Dipoles and Quadrupoles (both atomic AND molecular).

        Atom    Level:     MDC-m        MDC-d        MDC-q
 ---------------------------------------------------------
     1     Br          -0.235521    -0.505814    -0.692663
     2     H           -0.528998     0.011603     0.379825
     3     Br          -0.235481    -0.505790    -0.687162

 ------------------------------------------------ 
 Average absolute deviations in atomic multipoles
 ------------------------------------------------ 

 Stated here are the average differences between the atomic multipoles
 and the reconstructed atomic multipoles (from the distributed charges).
 If these values are not zero, this means there are not enough degrees of freedom,
 to be able to reconstruct the atomic multipoles. (This usually happens only
 for small and/or highly symmetric molecules). If this is the case, one could add
 dummy atoms as extra point charges (and setting INCDUM in MDC-block to 1).

 Level:                                 MDC-d        MDC-q
 ---------------------------------------------------------
 Charge   (a.u.)                       0.0000       0.0000
 Dipole   (Debye)                      0.0000       0.0088
 Quad.    (a.u.)                       0.7066       0.1926

 --------------------------------------- 
 Represented molecular multipole moments
 --------------------------------------- 

 Given here are the Molecular multipole moments from the atomic charges, and from the Fit Density.
 Note that the atomic charges represent the latter, NOT the ones from the Exact density.

            Q (a.u.)             Dipole moment (Debye)                                          Quadrupole moment (a.u.)
                                 x         y         z              xx        xy        xz        yy        yz        zz
------------------------------------------------------------------------------------------------------------------------
MDC-m        -1.0000       12.6166   -1.8216   -3.5052        -25.8214    3.3215    7.2021   14.4916   -2.7314   11.3298
MDC-d        -1.0000       12.6189   -1.8218   -3.5090        -28.5717    1.0106    3.6963   16.4894   -4.1665   12.0823
MDC-q        -1.0000       12.6574   -1.8069   -3.4887        -30.6059   -0.5918    1.2714   17.9183   -5.1221   12.6876
 
Fit.Dens.    -1.0000       12.6189   -1.8218   -3.5090        -28.9992   -0.0498    2.0830   16.7995   -4.8237   12.1997



 =============
 Dipole Moment  ***  (Debye)  ***
 =============
  
 Vector   :        12.61894290     -1.82182532     -3.50897724
 Magnitude:        13.22383033

 This molecular dipole moment is calculated with analytic integration
 ************************************************************************************
 Since the molecule is NOT NEUTRAL, the dipole moment depends on the choice of origin
 ************************************************************************************



 =========================================
 Quadrupole Moment (Buckingham convention)  ***  (a.u.)  ***
 =========================================
  
      quad-xx        quad-xy        quad-xz        quad-yy        quad-yz        quad-zz
    -29.01046698     0.64099090     3.13429971    16.80746503    -4.39548717    12.20300195

 This molecular quadrupole moment is calculated with analytic integration
1



                                             *************************
                                             *  SFO MO coefficients  *
                                             *************************
  


                                       === A ===
 MOs expanded in CFs+SFOs
 ========================

 The SFOs have been characterized in an earlier part of output.
 To deduce the bonding / antibonding nature of SFO combinations in an MO, consider the products
 of the coefficients AND THE OVERLAP between the SFOs (may be NEGATIVE). The SFO overlap matrix
 is printed later, in the SFO Populations section.

 (The CF coefficients are not printed)

 MOs :      1        2        3        4        5        6        7        8        9       10
 occup:   2.00     2.00     2.00     2.00     2.00     2.00     2.00     2.00     2.00     2.00
 CF+SFO
     1   0.0071   1.0000  -0.0000   0.0000   0.0000  -0.0000  -0.0000  -0.0000  -0.0000   0.0000
     2   0.0000   0.0000   0.0043  -1.0000  -0.0000   0.0005   0.0000   0.0000   0.0000  -0.0000
     3  -0.0000   0.0000  -0.0000   0.0005  -0.0000   1.0000   0.0000  -0.0000   0.0002  -0.0003
     4  -0.0000   0.0000  -0.0000   0.0000   0.0000  -0.0002   0.0001  -0.0000   0.9885  -0.1515
     5   0.0000  -0.0000   0.0000  -0.0000  -0.0000   0.0003   0.0000   0.0001   0.1515   0.9885
     6   0.0000   0.0000  -0.0000  -0.0001   0.0000   0.0000  -0.0000  -0.0000   0.0000  -0.0000
     7   0.0000   0.0000  -0.0000  -0.0000   0.0000  -0.0000  -0.0000  -0.0000   0.0000  -0.0000
     8   0.0000   0.0000  -0.0000  -0.0000   0.0000   0.0000  -0.0000  -0.0000   0.0000   0.0000
     9   0.0000   0.0000  -0.0000  -0.0000   0.0000   0.0000   0.0000  -0.0000  -0.0000   0.0000
    10   0.0000  -0.0000   0.0000  -0.0000   0.0000   0.0000  -0.0000  -0.0000  -0.0000   0.0000
    11  -0.0000  -0.0000   0.0000   0.0000  -0.0000  -0.0000   0.0000   0.0000   0.0000   0.0000
    12  -0.0000  -0.0000   0.0000   0.0000  -0.0000  -0.0000  -0.0000   0.0000  -0.0000   0.0000
    13  -0.0000   0.0000   0.0000   0.0000  -0.0000  -0.0000   0.0000  -0.0000   0.0000  -0.0000
    14   0.0000  -0.0000   0.0000  -0.0000   0.0000   0.0000  -0.0000  -0.0000  -0.0000  -0.0000
    15   0.0000  -0.0000   0.0000   0.0000   0.0000  -0.0000  -0.0000  -0.0000  -0.0000   0.0000
    16   0.0000   0.0000   0.0000   0.0000   0.0000  -0.0000  -0.0000  -0.0000  -0.0000   0.0000
    17  -0.0000  -0.0000  -0.0000   0.0000  -0.0000   0.0000   0.0000   0.0000   0.0000   0.0000
    18  -0.0000  -0.0000   0.0000   0.0000  -0.0000   0.0000  -0.0000   0.0000  -0.0000   0.0000
    19   0.0000   0.0000   0.0000   0.0000   0.0001  -0.0000  -0.0000  -0.0000  -0.0000   0.0000
    20  -0.0000  -0.0000   0.0000  -0.0000  -0.0000  -0.0000   0.0000   0.0000   0.0000  -0.0000
    21  -0.0000  -0.0000  -0.0000  -0.0000  -0.0000   0.0000   0.0000   0.0000   0.0000  -0.0000
    22   0.0000   0.0000   0.0000  -0.0000   0.0000  -0.0000  -0.0000  -0.0000   0.0000   0.0000
    23   0.0000   0.0000   0.0000  -0.0000   0.0000  -0.0000   0.0000  -0.0000  -0.0000   0.0000
    24  -0.0000  -0.0000  -0.0000   0.0000  -0.0000   0.0000   0.0000   0.0000  -0.0000  -0.0000
    25  -0.0000  -0.0000  -0.0000   0.0000  -0.0000   0.0000  -0.0000   0.0000   0.0000  -0.0000
    26   0.0000   0.0000  -0.0000   0.0000   0.0000  -0.0000  -0.0000  -0.0000   0.0000   0.0000
    27  -0.0000  -0.0000  -0.0000  -0.0000  -0.0000   0.0000   0.0000   0.0000   0.0000   0.0000
    28   0.0000   0.0000  -0.0000   0.0000   0.0000  -0.0000  -0.0000   0.0000  -0.0000   0.0000
    29   0.0000   0.0000   0.0000   0.0000   0.0000   0.0000  -0.0000  -0.0000  -0.0000   0.0000
    30   0.0000   0.0000   0.0000  -0.0000   0.0000  -0.0000  -0.0000  -0.0000  -0.0000  -0.0000
    31  -0.0000  -0.0000  -0.0000   0.0000  -0.0000   0.0000  -0.0000   0.0000  -0.0000   0.0000
    32   0.0000   0.0000   0.0000   0.0000   0.0000  -0.0000  -0.0000  -0.0000  -0.0000   0.0000
    33   0.0000   0.0000   0.0000   0.0000   0.0000  -0.0000  -0.0000  -0.0000   0.0000  -0.0000
    34   0.0000   0.0000   0.0000   0.0000   0.0000  -0.0000   0.0000   0.0000  -0.0000  -0.0000
    35   0.0000   0.0000   0.0000   0.0000   0.0000  -0.0000   0.0000  -0.0000   0.0000  -0.0000
    36   0.0000   0.0000   0.0000   0.0000   0.0000  -0.0000  -0.0000  -0.0000  -0.0000  -0.0000
    37   0.0000  -0.0000  -0.0000   0.0000  -0.0000   0.0000  -0.0000   0.0000  -0.0000  -0.0000
    38  -0.0000   0.0000   0.0000  -0.0000   0.0000  -0.0000  -0.0000  -0.0000   0.0000  -0.0000
    39   0.0000   0.0000   0.0000   0.0000   0.0000  -0.0000  -0.0000  -0.0000  -0.0000   0.0000
    40  -0.0000  -0.0000  -0.0000   0.0000  -0.0000   0.0000  -0.0000  -0.0000  -0.0000  -0.0000
    41   0.0000   0.0000   0.0000  -0.0000   0.0000  -0.0000   0.0000  -0.0000   0.0000  -0.0000
    42   0.0000   0.0000   0.0000   0.0000   0.0000  -0.0000  -0.0000  -0.0000  -0.0000   0.0000
    43  -0.0000   0.0000   0.0000   0.0000   0.0000  -0.0000   0.0000   0.0000   0.0000  -0.0000
    44  -0.0000  -0.0000   0.0000   0.0000  -0.0000  -0.0000   0.0000  -0.0000   0.0000  -0.0000
    45   0.0000   0.0000  -0.0000  -0.0000   0.0000   0.0000  -0.0000  -0.0000  -0.0000  -0.0000
    46   0.0000   0.0000  -0.0000  -0.0000   0.0000   0.0000  -0.0000   0.0000  -0.0000  -0.0000
    47  -0.0000   0.0000   0.0000  -0.0000   0.0000  -0.0000  -0.0000  -0.0000   0.0000   0.0000
    48  -0.0000   0.0000   0.0000   0.0000   0.0000  -0.0000   0.0000  -0.0000  -0.0000   0.0000
    49  -0.0000   0.0000  -0.0000   0.0000  -0.0000   0.0000   0.0000  -0.0000  -0.0000   0.0000
    50  -0.0000   0.0000   0.0000  -0.0000   0.0000   0.0000  -0.0000  -0.0000   0.0000   0.0000
    51   0.0000   0.0000   0.0000   0.0000  -0.0000   0.0000   0.0000   0.0000   0.0000   0.0000
    52   0.0000   0.0000   0.0000   0.0000  -0.0000   0.0000  -0.0000   0.0000  -0.0000   0.0000
    53   0.0000   0.0000   0.0000   0.0000  -0.0000  -0.0000   0.0000  -0.0000   0.0000   0.0000
    54  -0.0000  -0.0000   0.0000  -0.0000  -0.0000   0.0000   0.0000   0.0000   0.0000  -0.0000
    55  -0.0000  -0.0000  -0.0000   0.0000  -0.0000  -0.0000  -0.0000  -0.0000  -0.0000  -0.0000
    56   0.0000   0.0000   0.0000  -0.0000   0.0000  -0.0000   0.0000  -0.0000   0.0000  -0.0000
    57   0.0000   0.0000   0.0000  -0.0000  -0.0000   0.0000  -0.0000  -0.0000   0.0000  -0.0000
    58   0.0000  -0.0000  -0.0000   0.0001   0.0000  -0.0000   0.0000  -0.0000  -0.0000   0.0000
    59  -0.0000  -0.0000  -0.0000   0.0000  -0.0000  -0.0000   0.0000   0.0000   0.0000   0.0000
    60   0.0000   0.0000   0.0000   0.0000   0.0000   0.0000  -0.0000   0.0000  -0.0000   0.0000
    61  -0.0000   0.0000   0.0000  -0.0000   0.0000   0.0000   0.0000  -0.0000   0.0000  -0.0000
    62   0.0000  -0.0000  -0.0000   0.0000  -0.0000   0.0000  -0.0000  -0.0000  -0.0000  -0.0000
    63   0.0000  -0.0000   0.0000  -0.0000   0.0000   0.0000   0.0000  -0.0000   0.0000  -0.0000
    64   0.0000  -0.0000   0.0000   0.0000   0.0000  -0.0000  -0.0000  -0.0000  -0.0000  -0.0001
    65  -0.0000   0.0000  -0.0000  -0.0000  -0.0000   0.0000  -0.0000   0.0000  -0.0001   0.0000
    66   0.0000  -0.0000   0.0000   0.0000   0.0000   0.0001  -0.0000  -0.0000   0.0000  -0.0000
    67  -0.0000  -0.0001  -0.0000   0.0000  -0.0000   0.0000  -0.0000   0.0000   0.0000   0.0000
    68  -1.0000   0.0071   0.0000   0.0000   0.0000   0.0000  -0.0000  -0.0000  -0.0000   0.0000
    69   0.0000   0.0000   1.0000   0.0043   0.0003   0.0000  -0.0000  -0.0000  -0.0000   0.0000
    70  -0.0000   0.0000   0.0001   0.0000  -0.3778  -0.0000   0.4993   0.7797  -0.0000  -0.0001
    71  -0.0000   0.0000   0.0001   0.0000  -0.5072  -0.0000   0.5929  -0.6255  -0.0001   0.0000
    72   0.0000  -0.0000  -0.0002  -0.0000   0.7746   0.0000   0.6318  -0.0292  -0.0000  -0.0000
    73   0.0000  -0.0000   0.0001  -0.0000  -0.0000  -0.0000  -0.0000   0.0000   0.0000  -0.0000
    74  -0.0000  -0.0000  -0.0000  -0.0000   0.0000   0.0000   0.0000  -0.0000  -0.0000   0.0000
    75   0.0000   0.0000   0.0000   0.0000  -0.0000  -0.0000  -0.0000  -0.0000   0.0000   0.0000
    76  -0.0000  -0.0000  -0.0000  -0.0000   0.0000   0.0000  -0.0000   0.0000   0.0000  -0.0000
    77  -0.0000  -0.0000  -0.0000  -0.0000   0.0000   0.0000  -0.0000   0.0000   0.0000  -0.0000
    78  -0.0000  -0.0000  -0.0000  -0.0000   0.0000   0.0000   0.0000  -0.0000  -0.0000   0.0000
    79   0.0000   0.0000   0.0000   0.0000  -0.0000  -0.0000   0.0000   0.0000  -0.0000  -0.0000
    80   0.0000   0.0000   0.0000   0.0000  -0.0000  -0.0000   0.0000  -0.0000  -0.0000   0.0000
    81  -0.0000  -0.0000  -0.0000  -0.0000   0.0000   0.0000   0.0000   0.0000  -0.0000  -0.0000
    82   0.0000   0.0000   0.0001   0.0000   0.0000  -0.0000  -0.0000  -0.0000  -0.0000   0.0000
    83   0.0000   0.0000   0.0000   0.0000   0.0000  -0.0000   0.0000  -0.0000   0.0000  -0.0000
    84  -0.0000  -0.0000  -0.0000  -0.0000  -0.0000   0.0000   0.0000   0.0000   0.0000   0.0000
    85   0.0000   0.0000   0.0000   0.0000   0.0000  -0.0000  -0.0000   0.0000  -0.0000   0.0000
    86   0.0000   0.0000  -0.0000  -0.0000   0.0000  -0.0000   0.0000  -0.0000   0.0000  -0.0000
    87   0.0000   0.0000  -0.0000  -0.0000   0.0000  -0.0000   0.0000   0.0000   0.0000   0.0000
    88  -0.0000  -0.0000   0.0000   0.0000  -0.0000   0.0000   0.0000  -0.0000   0.0000  -0.0000
    89  -0.0000  -0.0000   0.0000  -0.0000  -0.0000   0.0000   0.0000   0.0000   0.0000  -0.0000
    90   0.0000   0.0000   0.0000  -0.0000   0.0000  -0.0000   0.0000   0.0000  -0.0000   0.0000
    91  -0.0000  -0.0000  -0.0000   0.0000  -0.0000   0.0000  -0.0000  -0.0000  -0.0000  -0.0000
    92   0.0000   0.0000   0.0000  -0.0000   0.0000  -0.0000  -0.0000  -0.0000  -0.0000  -0.0000
    93   0.0000   0.0000   0.0000  -0.0000   0.0000  -0.0000  -0.0000   0.0000  -0.0000   0.0000
    94  -0.0000  -0.0000  -0.0000   0.0000  -0.0000   0.0000  -0.0000   0.0000  -0.0000   0.0000
    95   0.0000   0.0000   0.0000  -0.0000   0.0000  -0.0000   0.0000  -0.0000   0.0000  -0.0000
    96  -0.0000  -0.0000  -0.0000  -0.0000  -0.0000   0.0000   0.0000  -0.0000   0.0000  -0.0000
    97   0.0000   0.0000   0.0000   0.0000   0.0000  -0.0000   0.0000   0.0000   0.0000   0.0000
    98  -0.0000  -0.0000  -0.0000  -0.0000  -0.0000   0.0000  -0.0000   0.0000  -0.0000  -0.0000
    99   0.0000   0.0000   0.0000  -0.0000   0.0000  -0.0000   0.0000  -0.0000   0.0000  -0.0000
   100   0.0000   0.0000   0.0000   0.0000   0.0000  -0.0000   0.0000   0.0000  -0.0000   0.0000
   101   0.0000   0.0000   0.0000   0.0000   0.0000  -0.0000  -0.0000  -0.0000  -0.0000  -0.0000
   102  -0.0000  -0.0000  -0.0000  -0.0000  -0.0000   0.0000  -0.0000   0.0000   0.0000  -0.0000
   103  -0.0000  -0.0000  -0.0000  -0.0000  -0.0000   0.0000   0.0000   0.0000  -0.0000  -0.0000
   104   0.0000   0.0000   0.0000   0.0000   0.0000  -0.0000  -0.0000   0.0000   0.0000  -0.0000
   105   0.0000   0.0000   0.0000  -0.0000  -0.0000  -0.0000  -0.0000   0.0000  -0.0000   0.0000
   106   0.0000   0.0000   0.0000  -0.0000  -0.0000  -0.0000  -0.0000  -0.0000   0.0000   0.0000
   107   0.0000   0.0000   0.0000  -0.0000  -0.0000  -0.0000  -0.0000  -0.0000  -0.0000   0.0000
   108   0.0000   0.0000   0.0000  -0.0000  -0.0000  -0.0000  -0.0000   0.0000   0.0000  -0.0000
   109  -0.0000  -0.0000  -0.0000   0.0000   0.0000   0.0000  -0.0000   0.0000   0.0000  -0.0000
   110  -0.0000  -0.0000  -0.0000   0.0000   0.0000   0.0000  -0.0000  -0.0000   0.0000   0.0000
   111  -0.0000   0.0000  -0.0000  -0.0000  -0.0000  -0.0000   0.0000  -0.0000   0.0000  -0.0000
   112  -0.0000   0.0000  -0.0000  -0.0000  -0.0000  -0.0000  -0.0000   0.0000  -0.0000   0.0000
   113   0.0000  -0.0000   0.0000   0.0000   0.0000   0.0000   0.0000   0.0000   0.0000   0.0000
   114  -0.0000   0.0000  -0.0001  -0.0000  -0.0000  -0.0000  -0.0000   0.0000  -0.0000   0.0000
   115  -0.0000  -0.0000   0.0000   0.0000  -0.0000   0.0000  -0.0000   0.0000   0.0000  -0.0000
   116   0.0000   0.0000  -0.0000  -0.0000   0.0000  -0.0000  -0.0000  -0.0000  -0.0000   0.0000
   117   0.0000   0.0000  -0.0000  -0.0000   0.0000  -0.0000   0.0000   0.0000  -0.0000  -0.0000
   118   0.0000   0.0000  -0.0000  -0.0000   0.0000  -0.0000  -0.0000   0.0000   0.0000  -0.0000
   119  -0.0000  -0.0000   0.0000   0.0000  -0.0000   0.0000  -0.0000  -0.0000   0.0000   0.0000
   120   0.0000   0.0000   0.0000  -0.0000  -0.0000  -0.0000   0.0000  -0.0000  -0.0000   0.0000
   121  -0.0000  -0.0000  -0.0000   0.0000   0.0000   0.0000   0.0001   0.0000  -0.0000  -0.0000
   122   0.0000   0.0000   0.0000  -0.0000  -0.0001  -0.0000  -0.0000   0.0000   0.0000  -0.0000
   123  -0.0001   0.0000  -0.0000  -0.0000   0.0000   0.0000  -0.0000   0.0000   0.0000  -0.0000

 MOs :     11       12       13       14       15       16       17       18       19       20
 occup:   2.00     2.00     2.00     2.00     2.00     2.00     2.00     2.00     2.00     2.00
 CF+SFO
     1   0.0000   0.0000  -0.0000  -0.0000  -0.0000   0.0000  -0.0000  -0.0000   0.0000  -0.0000
     2   0.0001   0.0000   0.0000  -0.0000   0.0000   0.0000   0.0000  -0.0000  -0.0000  -0.0000
     3   0.0000  -0.0000  -0.0000   0.0000  -0.0000  -0.0000   0.0000  -0.0000  -0.0000  -0.0000
     4   0.0000  -0.0000   0.0000  -0.0000  -0.0000   0.0000   0.0000   0.0000   0.0000   0.0000
     5  -0.0000   0.0000  -0.0000   0.0000  -0.0000   0.0000  -0.0000  -0.0000  -0.0000  -0.0000
     6  -0.6891  -0.7248  -0.0003   0.0025   0.0000  -0.0000  -0.0000   0.0000   0.0007   0.0009
     7   0.0016   0.0019  -0.1201   0.9927   0.0000  -0.0001   0.0000   0.0004   0.0006   0.0008
     8   0.0000   0.0000   0.0000  -0.0002   0.0250  -0.9991   0.0011   0.0355  -0.0000  -0.0000
     9   0.0000   0.0000   0.0000  -0.0003  -0.0008   0.0355   0.0226   0.9991  -0.0000  -0.0000
    10   0.0007   0.0009   0.0001  -0.0010   0.0000  -0.0000  -0.0000  -0.0000   0.6183   0.7860
    11   0.0000  -0.0000  -0.0000   0.0000   0.0000  -0.0010  -0.0000  -0.0003  -0.0000  -0.0000
    12  -0.0000  -0.0000  -0.0000   0.0000   0.0000  -0.0003   0.0000   0.0010   0.0004   0.0005
    13   0.0000   0.0000  -0.0000   0.0000  -0.0000   0.0000  -0.0000  -0.0000   0.0001   0.0002
    14   0.0000   0.0000   0.0000  -0.0000  -0.0000   0.0000   0.0000   0.0000  -0.0001  -0.0001
    15  -0.0024   0.0016   0.0002  -0.0001   0.0000   0.0000  -0.0000  -0.0000  -0.0003  -0.0013
    16  -0.0062   0.0021   0.0009  -0.0005   0.0000   0.0000  -0.0000  -0.0000   0.0012  -0.0009
    17   0.0000  -0.0000  -0.0000   0.0000   0.0000  -0.0002  -0.0000  -0.0001  -0.0000   0.0000
    18   0.0000  -0.0000  -0.0000   0.0000   0.0000  -0.0001   0.0000   0.0002  -0.0000   0.0000
    19  -0.0076   0.0017   0.0011  -0.0001   0.0000   0.0000  -0.0000  -0.0000   0.0014  -0.0012
    20   0.0055  -0.0017  -0.0001   0.0003  -0.0000  -0.0000   0.0000   0.0000  -0.0000   0.0001
    21   0.0023  -0.0008  -0.0003  -0.0000  -0.0000  -0.0000   0.0000   0.0000  -0.0002   0.0005
    22  -0.0000   0.0000   0.0000  -0.0000  -0.0000  -0.0000   0.0000  -0.0000   0.0000  -0.0000
    23  -0.0000   0.0000   0.0000  -0.0000  -0.0000  -0.0000  -0.0000   0.0000   0.0000  -0.0000
    24   0.0000  -0.0000  -0.0000   0.0000  -0.0001  -0.0000   0.0000  -0.0000  -0.0000   0.0000
    25   0.0000  -0.0000  -0.0000   0.0000  -0.0000  -0.0000  -0.0001   0.0000  -0.0000   0.0000
    26  -0.0000   0.0000   0.0000  -0.0000  -0.0000  -0.0000  -0.0000  -0.0000  -0.0000  -0.0000
    27   0.0000  -0.0000  -0.0000   0.0000  -0.0000  -0.0000   0.0000  -0.0000  -0.0000  -0.0000
    28  -0.0015   0.0002   0.0000  -0.0001   0.0000   0.0000   0.0000  -0.0000  -0.0002  -0.0001
    29  -0.0014  -0.0008   0.0005  -0.0002   0.0000   0.0000  -0.0000  -0.0000   0.0004  -0.0008
    30  -0.0000  -0.0000   0.0000  -0.0000   0.0001   0.0001   0.0000  -0.0000   0.0000  -0.0000
    31   0.0000   0.0000  -0.0000   0.0000   0.0000   0.0000  -0.0001   0.0001  -0.0000   0.0000
    32  -0.0012  -0.0004   0.0004  -0.0000   0.0000   0.0000  -0.0000  -0.0000   0.0005  -0.0003
    33  -0.0000  -0.0000   0.0000  -0.0000   0.0000   0.0000   0.0000  -0.0000   0.0000  -0.0000
    34  -0.0000  -0.0000   0.0000  -0.0000   0.0000   0.0000  -0.0000   0.0000   0.0000  -0.0000
    35  -0.0000  -0.0000   0.0000  -0.0000   0.0000  -0.0000   0.0000  -0.0000   0.0000  -0.0000
    36  -0.0000  -0.0000   0.0000  -0.0000   0.0000  -0.0000  -0.0000   0.0000   0.0000  -0.0000
    37   0.0000   0.0000  -0.0000   0.0000   0.0000  -0.0000  -0.0001  -0.0001  -0.0000   0.0000
    38  -0.0000  -0.0000   0.0000  -0.0000   0.0001  -0.0001   0.0000   0.0000   0.0000  -0.0000
    39  -0.0008  -0.0003   0.0002  -0.0005   0.0000   0.0000  -0.0000  -0.0000   0.0001  -0.0002
    40   0.0000   0.0000  -0.0000  -0.0000  -0.0000   0.0001   0.0000   0.0003  -0.0000  -0.0000
    41  -0.0000  -0.0000   0.0000   0.0000  -0.0000   0.0003  -0.0000  -0.0001   0.0000  -0.0000
    42  -0.0012   0.0001   0.0002   0.0001   0.0000   0.0000  -0.0000  -0.0000  -0.0001  -0.0001
    43   0.0010  -0.0008  -0.0002   0.0002  -0.0000  -0.0000  -0.0000   0.0000   0.0001  -0.0004
    44   0.0000   0.0000  -0.0000  -0.0000   0.0000   0.0000   0.0000  -0.0000  -0.0000  -0.0000
    45  -0.0000  -0.0000  -0.0000   0.0000   0.0000   0.0000  -0.0000   0.0000   0.0000   0.0000
    46  -0.0007  -0.0004  -0.0000   0.0000   0.0000  -0.0000  -0.0000  -0.0000   0.0003   0.0004
    47   0.0000  -0.0000  -0.0000  -0.0000   0.0000   0.0000  -0.0000   0.0000   0.0000  -0.0000
    48   0.0000  -0.0000  -0.0000  -0.0000   0.0000   0.0000   0.0000  -0.0000   0.0000   0.0000
    49   0.0000  -0.0000  -0.0000   0.0000   0.0000   0.0000   0.0000  -0.0000  -0.0000  -0.0000
    50  -0.0000  -0.0000  -0.0000   0.0000   0.0000   0.0000  -0.0000   0.0000   0.0000  -0.0000
    51  -0.0000   0.0000   0.0000   0.0000  -0.0000  -0.0000   0.0000  -0.0000  -0.0000   0.0000
    52  -0.0000   0.0000   0.0000   0.0000  -0.0000  -0.0000  -0.0000   0.0000  -0.0000   0.0000
    53  -0.0003   0.0002   0.0001  -0.0000   0.0000  -0.0000   0.0000   0.0000  -0.0003  -0.0002
    54   0.0001  -0.0000  -0.0000   0.0000  -0.0000  -0.0000   0.0000   0.0000   0.0001   0.0001
    55   0.0000  -0.0000  -0.0000  -0.0000  -0.0000   0.0001   0.0000   0.0002   0.0000   0.0000
    56  -0.0000   0.0000   0.0000   0.0000  -0.0000   0.0002  -0.0000  -0.0001  -0.0000  -0.0000
    57  -0.0002   0.0000   0.0000  -0.0000   0.0000   0.0000   0.0000  -0.0000   0.0000   0.0000
    58  -0.0002  -0.0001   0.0000  -0.0000   0.0000   0.0000   0.0000  -0.0000  -0.0000  -0.0000
    59   0.0000   0.0000   0.0000  -0.0000  -0.0000   0.0000   0.0000   0.0000  -0.0000  -0.0000
    60   0.0000   0.0000  -0.0000   0.0000   0.0000  -0.0000  -0.0000  -0.0000   0.0000   0.0000
    61   0.0000  -0.0000   0.0000   0.0000   0.0000  -0.0000   0.0000   0.0001   0.0000   0.0000
    62   0.0000   0.0000   0.0000  -0.0000   0.0000  -0.0001  -0.0000  -0.0000  -0.0000  -0.0000
[...]
  121    1.65498491122291E-15 -1.54263049869717E-16 -1.52275303424889E-16 -7.28143551670197E-16
  122    5.73191968859505E-16 -5.56916221885822E-17  2.43044072045431E-16  1.54917262053101E-16
  123   -6.03087458445062E-17 -3.83525676495022E-15  3.55618312575245E-17 -1.82417015520686E-16

 column         117                   118                   119                   120
 row
  117    1.00000000000000E+00
  118   -1.89087907869210E-16  9.99999999999999E-01
  119   -5.51893746642522E-16  8.78676890480027E-16  1.00000000000000E+00
  120   -5.65133930399291E-18 -3.20121513843890E-16  1.75906220671000E-16  1.00000000000001E+00
  121   -2.51748285181812E-16  1.58831303488256E-16  5.97821957537794E-17 -2.74661430513451E-17
  122   -2.22636351737278E-16 -2.12499180124957E-16 -2.16658976713306E-16 -8.26722094758961E-16
  123   -2.15566496944430E-16 -2.71836589696428E-16 -2.40015255933979E-17  6.73804545145429E-16

 column         121                   122                   123
 row
  121    1.00000000000001E+00
  122   -4.95547030496023E-18  1.00000000000001E+00
  123   -9.42490172278071E-16  1.58164768174901E-16  9.99999999999996E-01


 SFO contributions (%) per orbital
 (multiplication by the orbital occupation yields the SFO Gross Populations)

 Orb.:       27     28     29     30     31     32     33     34     35     36     37     38     39     40
 occup:     2.00   2.00   2.00   2.00   2.00   2.00   2.00   2.00   2.00   2.00   0.00   0.00   0.00   0.00
 CF+SFO     ----   ----   ----   ----   ----   ----   ----   ----   ----   ----   ----   ----   ----   ----
 ------
     13:   99.97   0.00   0.00   0.00  -0.00   0.00  -0.00  -0.00   0.00   0.00   0.00   0.00  -0.00   0.00
     14:    0.00  99.97   0.00   0.00  -0.00  -0.00   0.00  -0.00   0.00  -0.00   0.00   0.00  -0.00   0.00
     15:    0.00   0.00  51.05  48.50   0.05  -0.00  -0.00   0.24   0.00   0.00  -0.04  -0.05   0.03  -0.00
     16:   -0.00  -0.00   0.89   1.36  63.36   0.00   0.00  30.76   0.00   0.00   3.86  -0.32  -1.31  -0.00
     17:    0.00   0.00   0.00   0.00   0.00  49.77   0.30   0.00  49.70   0.04   0.00  -0.00  -0.00   0.04
     18:    0.00   0.00  -0.00   0.00  -0.00   0.30  49.77   0.01   0.04  49.69   0.00  -0.00  -0.00   0.22
     19:    0.00   0.00   0.95   1.03   0.64   0.00   0.00  19.56   0.00   0.00  74.64  -0.22  -0.73  -0.00
     20:   -0.00  -0.00  -0.22  -0.37   0.64   0.00  -0.00   1.03   0.00   0.00  13.28  93.80  -0.78  -0.00
     21:    0.00   0.00  -0.01   0.04   0.07  -0.00  -0.00  -0.19  -0.00  -0.00   3.48   0.09  54.24   0.00
     22:    0.00  -0.00   0.00   0.00  -0.00   0.35   0.00  -0.00  -0.16  -0.00  -0.00   0.00   0.00  12.99
     23:   -0.00   0.00   0.00   0.00  -0.00   0.00   0.35  -0.00  -0.00  -0.16   0.00   0.00   0.00  36.45
     82:    0.00   0.00  46.77  49.05   2.57  -0.00  -0.00  -0.01  -0.00  -0.00   1.81  -1.35   0.06  -0.00
     83:    0.00   0.00   0.49  -0.00  25.87   0.83   8.92  37.68   1.09   9.02  11.48   1.97   0.78  -0.01
     84:    0.00  -0.00   0.00  -0.00   0.00  45.90   3.59   0.00  44.59   4.98   0.00   0.00   0.00  -0.06
     85:    0.00   0.00   0.12  -0.00   6.35   2.76  36.99   9.65   3.89  35.58   2.82   0.48   0.19  -0.06
     86:    0.00   0.00  -0.10   0.03  -0.33  -0.02  -0.05   0.45   0.04   0.14  -0.74  -0.83  24.41  22.95
     87:    0.00   0.00  -0.02   0.01  -0.05  -0.14  -0.01   0.07   0.33   0.01  -0.12  -0.13   3.89   3.29
     88:    0.00   0.00  -0.07   0.02  -0.25  -0.00  -0.09   0.34   0.00   0.22  -0.55  -0.61  17.98  22.62
     89:    0.00   0.00  -0.03   0.04  -0.09  -0.00   0.00   0.13   0.00   0.00 -10.13  -4.17   1.96  -0.00
     90:    0.00   0.00   0.09  -0.01   0.59   0.00   0.00   0.02   0.00   0.00   1.16   5.95  -0.00   0.00
     92:    0.00   0.00   0.02  -0.00   0.11   0.02   0.00   0.00   0.00   0.00   0.21   1.09  -0.00   0.21
     93:    0.00   0.00   0.04  -0.00   0.26   0.00   0.01   0.01   0.00   0.00   0.52   2.68  -0.00   0.20


 Summation over all MOs, multiplied by occupation: Total SFO Gross Populations in this Irrep
 ===========================================================================================

     2.00    2.00    2.00    2.00    2.00    2.00    2.00    2.00    2.00    2.00    2.00    2.00
     2.00    2.00    2.00    1.93    2.00    2.00    0.44    0.02   -0.00    0.00    0.00    0.01
     0.01    0.00    0.00    0.00    0.02    0.01    0.01   -0.00    0.00    0.00    0.00    0.00
     0.00    0.00    0.00    0.00    0.00   -0.01    0.00    0.00    0.00    0.00    0.00    0.00
     0.00    0.00    0.00    0.00    0.00   -0.00   -0.00   -0.00   -0.00    0.00    0.00    0.00
     0.00    0.00   -0.00    0.00    0.00   -0.00   -0.00    2.00    2.00    2.00    2.00    2.00
     2.00    2.00    2.00    2.00    2.00    2.00    2.00    2.00    2.00    1.97    1.68    1.98
     1.91    0.00    0.00    0.00    0.00    0.01    0.00    0.00    0.01    0.00    0.00    0.00
     0.00    0.00    0.00    0.00    0.00   -0.00   -0.00   -0.00   -0.00   -0.00   -0.00   -0.00
    -0.00   -0.00   -0.00   -0.00   -0.00    0.00   -0.00   -0.00   -0.00   -0.00   -0.00    0.00
     0.00    0.00   -0.00



 List of all MOs, ordered by energy, with the most significant SFO gross populations
 ===================================================================================

 Each percentage contribution in the table below corresponds to the indicated SFO.
 In general, a SFO may be a linear combination of several Fragment Orbitals on the same,
 or on symmetry-related Fragments. Only the first 'member' of such a combination is
 specified here. A full definition of all SFOs is given in an earlier part of the output.
 The numbering of the SFOs in this table does NOT include the Core Orbitals, and starts
 from one for each symmetry representation, as in the SFO definition list earlier.

       E(eV)  Occ       MO           %     SFO (first member)   E(eV)  Occ   Fragment
 -------------------------------------------------------------------------------------

     -13.675  2.00    29 A         51.05%    15 A             -19.109  2.00     1 BrH
                                   46.77%    15 A             -10.500  2.00     2 Br
     -13.058  2.00    30 A         49.05%    15 A             -10.500  2.00     2 Br
                                   48.50%    15 A             -19.109  2.00     1 BrH
                                    1.36%    16 A             -10.163  2.00     1 BrH
                                    1.03%    19 A              -3.385  0.00     1 BrH
      -5.350  2.00    31 A         63.36%    16 A             -10.163  2.00     1 BrH
                                   25.87%    16 A               0.447  2.00     2 Br
                                    6.35%    18 A               0.447  2.00     2 Br
                                    2.57%    15 A             -10.500  2.00     2 Br
      -2.067  2.00    32 A         49.77%    17 A              -7.245  2.00     1 BrH
                                   45.90%    17 A               0.447  2.00     2 Br
                                    2.76%    18 A               0.447  2.00     2 Br
      -2.067  2.00    33 A         49.77%    18 A              -7.245  2.00     1 BrH
                                   36.99%    18 A               0.447  2.00     2 Br
                                    8.92%    16 A               0.447  2.00     2 Br
                                    3.59%    17 A               0.447  2.00     2 Br
      -1.793  2.00    34 A         37.68%    16 A               0.447  2.00     2 Br
                                   30.76%    16 A             -10.163  2.00     1 BrH
                                   19.56%    19 A              -3.385  0.00     1 BrH
                                    9.65%    18 A               0.447  2.00     2 Br
                                    1.03%    20 A               1.479  0.00     1 BrH
      -1.721  2.00    35 A         49.70%    17 A              -7.245  2.00     1 BrH
                                   44.59%    17 A               0.447  2.00     2 Br
                                    3.89%    18 A               0.447  2.00     2 Br
                                    1.09%    16 A               0.447  2.00     2 Br
      -1.721  2.00    36 A         49.69%    18 A              -7.245  2.00     1 BrH
                                   35.58%    18 A               0.447  2.00     2 Br
                                    9.02%    16 A               0.447  2.00     2 Br
                                    4.98%    17 A               0.447  2.00     2 Br
       4.091  0.00    37 A         74.64%    19 A              -3.385  0.00     1 BrH
                                   13.28%    20 A               1.479  0.00     1 BrH
                                   11.48%    16 A               0.447  2.00     2 Br
                                  -10.13%    22 A              13.634  0.00     2 Br
                                    3.86%    16 A             -10.163  2.00     1 BrH
                                    3.48%    21 A               3.528  0.00     1 BrH
                                    2.82%    18 A               0.447  2.00     2 Br
                                    1.81%    15 A             -10.500  2.00     2 Br
                                    1.16%    23 A              15.005  0.00     2 Br
       5.531  0.00    38 A         93.80%    20 A               1.479  0.00     1 BrH
                                    5.95%    23 A              15.005  0.00     2 Br
                                   -4.17%    22 A              13.634  0.00     2 Br
                                    2.68%    26 A              15.005  0.00     2 Br
                                    1.97%    16 A               0.447  2.00     2 Br
                                   -1.35%    15 A             -10.500  2.00     2 Br
                                    1.09%    25 A              15.005  0.00     2 Br
       7.564  0.00    39 A         54.24%    21 A               3.528  0.00     1 BrH
                                   24.41%    19 A               9.589  0.00     2 Br
                                   17.98%    21 A               9.589  0.00     2 Br
                                    3.89%    20 A               9.589  0.00     2 Br
                                    1.96%    22 A              13.634  0.00     2 Br
                                   -1.31%    16 A             -10.163  2.00     1 BrH
       7.864  0.00    40 A         36.45%    23 A               3.831  0.00     1 BrH
                                   22.95%    19 A               9.589  0.00     2 Br
                                   22.62%    21 A               9.589  0.00     2 Br
                                   12.99%    22 A               3.830  0.00     1 BrH
                                    3.29%    20 A               9.589  0.00     2 Br
       7.864  0.00    41 A         41.46%    20 A               9.589  0.00     2 Br
                                   36.45%    22 A               3.830  0.00     1 BrH
                                   12.99%    23 A               3.831  0.00     1 BrH
                                    7.33%    21 A               9.589  0.00     2 Br
       8.859  0.00    42 A         36.07%    21 A               3.528  0.00     1 BrH
                                   29.99%    19 A               9.589  0.00     2 Br
                                   22.01%    21 A               9.589  0.00     2 Br
                                    4.79%    20 A               9.589  0.00     2 Br
                                    4.52%    29 A              12.123  0.00     1 BrH
                                    1.67%    19 A              -3.385  0.00     1 BrH
                                    1.16%    22 A              13.634  0.00     2 Br
       9.021  0.00    43 A         31.74%    23 A               3.831  0.00     1 BrH
                                   23.41%    20 A               9.589  0.00     2 Br
                                   19.78%    21 A               9.589  0.00     2 Br
                                   12.94%    22 A               3.830  0.00     1 BrH
                                    4.68%    25 A               6.025  0.00     1 BrH
                                    3.54%    19 A               9.589  0.00     2 Br
                                    1.55%    24 A              15.005  0.00     2 Br
       9.021  0.00    44 A         31.74%    22 A               3.830  0.00     1 BrH
                                   19.37%    20 A               9.589  0.00     2 Br
                                   18.58%    19 A               9.589  0.00     2 Br
                                   12.94%    23 A               3.831  0.00     1 BrH
                                    8.78%    21 A               9.589  0.00     2 Br
                                    4.68%    24 A               6.025  0.00     1 BrH
                                    1.23%    27 A              15.005  0.00     2 Br
                                    1.04%    25 A              15.005  0.00     2 Br



 =======================================================================
 Electrostatic potential at the Nuclei due to electrons and other nuclei
 =======================================================================
  
         Atom                  Potential
         ----                  ---------
     1)   Br                176.16965846
     2)   H                   1.14727623
     3)   Br                176.16965453
 
 
 ========================
 No memory problems found
 ========================
 
 Maximum number of active allocate calls:         650
 
 *******************************************************************************

                             A D F   E X I T
 NORMAL TERMINATION



 =================
 Timing Statistics
 =================
  
 Total Used :                     CPU=        4.18      System=        0.16     Elapsed=        4.65

 Calls  Section                     ( Mean, Percentage )
 ---------------------------------------------------------------------------------------------------
     3  ><      ................      0.00    0.00             0.00    0.00             0.00    0.01
     1  INIT    ................      0.42   10.10             0.02   12.03             0.44    9.51
     1  GEOMET  ................      0.02    0.57             0.00    3.17             0.34    7.36
     1  FRAGM   ................      0.01    0.22             0.01    5.70             0.02    0.39
     1  INPUTA  ................      0.00    0.00             0.00    0.00             0.00    0.01
     1  ATDEN   ................      0.00    0.10             0.00    0.00             0.00    0.08
     1  MAINSY  ................      0.01    0.19             0.00    0.00             0.01    0.17
     1  SYMFIT  ................      0.00    0.02             0.00    0.63             0.00    0.04
     1  CORORT  ................      0.00    0.02             0.00    0.00             0.00    0.01
     1  SYMORB  ................      0.00    0.02             0.00    0.63             0.00    0.06
     1  CLSMAT  ................      0.01    0.34             0.00    0.00             0.01    0.29
     1  ORTHON  ................      0.01    0.24             0.00    0.00             0.01    0.23
     1  GENPT   ................      0.09    2.15             0.00    2.53             0.09    2.02
     1  PTBAS   ................      0.03    0.62             0.00    0.63             0.03    0.58
    12  FOCKY   ................      0.08   23.89             0.00   10.13             0.08   21.76
    12  FOCKTR  ................      0.00    0.38             0.00    0.63             0.00    0.38
    12  SDIIS   ................      0.00    0.67             0.00    0.00             0.00    0.64
     1  COREPS  ................      0.06    1.56             0.00    0.63             0.07    1.45
     1  TOTEN   ................      0.22    5.39             0.00    3.17             0.23    4.94
     1  POPAN   ................      0.00    0.07             0.00    0.00             0.00    0.07
     1  DEBYE   ................      0.01    0.24             0.00    0.00             0.01    0.19
     1  INPUTE  ................      0.00    0.00             0.00    0.00             0.00    0.01
     1  SYMORE  ................      0.00    0.00             0.00    0.00             0.00    0.01
     1  METS    ................      0.00    0.02             0.00    0.00             0.00    0.02
     1  CETS    ................      0.02    0.43             0.00    1.90             0.02    0.45
     1  POPUL   ................      2.19   52.35             0.09   56.33             2.27   48.91
     1  EXIT PROCEDURE .........      0.02    0.41             0.00    1.90             0.02    0.43


 Currently Open Files (EXIT00)
 ====================

 Unit    Access Format  Status   Type       Ident (file)
 -------------------------------------------------------
   3      SEQ    FORM   TRANSP  NORMAL      LOGFILE
                                          ( logfile )


 Buffered I/O statistics
 =======================
 Memory available:                     67108864
 Number of records fitting in memory:     16131
 Input :   1.3% of                        47878  *4k bytes
 Output:  14.8% of                         3920  *4k bytes
 Records from serial files evicted:           0
                    others evicted:           0
 Hash table lookups:     135624 with          0 conflicts (  0.00%)

 ***************************************************************************************************
 (LOGFILE)
 <May09-2019> <17:23:36>  ADF 2017  RunTime: May09-2019 17:23:36  Nodes: 1  Procs: 12
 <May09-2019> <17:23:36>  *** (NO TITLE) ***
 <May09-2019> <17:23:36>  RunType   : SINGLE POINT
 <May09-2019> <17:23:36>  Net Charge: -1 (Nuclei minus Electrons)
 <May09-2019> <17:23:36>  Symmetry  : NOSYM
 <May09-2019> <17:23:36>  >>>> FRAGM
  Coordinates
    Atom         X           Y           Z   (Angstrom)
    1.Br       -4.027263   -0.191029   -0.137330
    2.H        -2.626210    0.379253    0.729122
    3.Br       -1.227022    0.949645    1.598436
 <May09-2019> <17:23:36>  >>>> CORORT
 <May09-2019> <17:23:36>  >>>> CLSMAT
 <May09-2019> <17:23:36>  >>>> ORTHON
 <May09-2019> <17:23:36>  >>>> GENPT
 <May09-2019> <17:23:36>  Block Length= 128
 <May09-2019> <17:23:37>  >>>> PTBAS
 <May09-2019> <17:23:37>  >>>> CYCLE
 <May09-2019> <17:23:37>              |Error|         MaxErr       Wt(A-DIIS)
 <May09-2019> <17:23:37>      1      1.12470834      0.62315284
 <May09-2019> <17:23:37>      2      0.33707757      0.09681914    100.0
 <May09-2019> <17:23:37>      3      0.15585565      0.05097569    100.0
 <May09-2019> <17:23:37>      4      0.31742376      0.10040389    100.0
 <May09-2019> <17:23:37>      5      0.05581001      0.01391973     13.1
 <May09-2019> <17:23:37>      6      0.01004719      0.00225790      1.3
 <May09-2019> <17:23:37>      7      0.00246122      0.00054819      0.0
 <May09-2019> <17:23:37>      8      0.00045621      0.00009655      0.0
 <May09-2019> <17:23:37>      9      0.00027446      0.00004178      0.0
 <May09-2019> <17:23:37>     10      0.00003945      0.00000923      0.0
 <May09-2019> <17:23:38>     11      0.00000444      0.00000098      0.0
 <May09-2019> <17:23:38>  SCF converged
 <May09-2019> <17:23:38>     12      0.00000042      0.00000011      0.0
 <May09-2019> <17:23:38>  >>>> TOTEN
 <May09-2019> <17:23:38>  >>>> POPAN
 <May09-2019> <17:23:38>  >>>> DEBYE
 <May09-2019> <17:23:38>  >>>> AMETS
 <May09-2019> <17:23:40>   Bond Energy          -0.06758338 a.u.
 <May09-2019> <17:23:40>   Bond Energy          -1.83903746 eV
 <May09-2019> <17:23:40>   Bond Energy         -42.41       kcal/mol
 <May09-2019> <17:23:40>  >>>> POPUL
 <May09-2019> <17:23:40>  NORMAL TERMINATION
 <May09-2019> <17:23:40>  END
