
Create H   file=TZ2P-H
XC
  GGA blyp
  DISPERSION Grimme3 BJDAMP
End
End Input

 *******************************************************************************
 *                                                                             *
 *  -------------------------------------                                      *
 *   Amsterdam Density Functional  (ADF)         development version           *
 *  -------------------------------------                                      *
 *                                               r61132 2017-09-08             *
 *                                                                             *
 *                                                                             *
 *                              =================                              *
 *                              |               |                              *
 *                              |     A D F     |                              *
 *                              |               |                              *
 *                              =================                              *
 *                                                                             *
 *                                                                             *
 *   Online information and documentation:  https://www.scm.com/support/       *
 *   E-mail:  support@scm.com   info@scm.com                                   *
 *                                                                             *
 *   Scientific publications using ADF results must be properly referenced     *
 *   See the User Manuals (or the web site) for recommended citations          *
 *   The terms and conditions of the End User License Agreement apply to       *
 *   the use of ADF, https://www.scm.com/license-terms/                        *
 *                                                                             *
 **********************  x86_64_linux_intel / intelmpi  ************************
 
 Licensed to: VU/FEW (+ SARA) / ALGEMEEN / Amsterdam / THE NETHERLANDS
 SCM User ID: u7668
  
 ADF development version  RunTime: Apr18-2019 14:04:08  Nodes: 1  Procs: 1

 Temporary files are created in /local/datastore0/tcst25/186713/kid_0.0OcuRP

 Hydrogen (TZ2P)



 ===========================
 A T T A C H E D   F I L E S
 ===========================
  
 CREATE - Data File:    TZ2P-H
                        Hydrogen (TZ2P)



 ===============================
 M O D E L   P A R A M E T E R S
 ===============================
  
 DENSITY FUNCTIONAL POTENTIAL (scf)
    LDA:                               Exchange only                           == Not Default ==
    Gradient Corrections:              Becke88 LYP                             == Not Default ==

 SPIN  (restricted / unrestr.)
    Molecule:                          Restricted                               

 OTHER ASPECTS
    Relativistic Corrections:          ---                                      

    Nuclear Charge Density Model:      Point Charge Nuclei                      
    Core Treatment:                    Frozen Orbital(s)                        

    Hyperfine or Zeeman Interaction:   ---                                      

 Settings for Grimme 3 dispersion correction

      damping                        BJ
      s6                          1.000
      a1                          0.430
      s8                          2.700
      a2                          4.236

 Other (technical) parameters

      alpha                      14.000
      version                         4
 



 =====================================
 S Y M M E T R Y ,   E L E C T R O N S
 =====================================
  
 Symmetry: ATOM

 Irreducible Representations, including subspecies
 -------------------------------------------------
 S
 P:x  P:y  P:z
 D:z2  D:x2-y2  D:xy  D:xz  D:yz
 F:z3  F:z  F:xyz  F:z2x  F:z2y  F:x  F:y


 Configuration of Valence Electrons
 ==================================

          Occupation Numbers
          -------------------------------------------------
 S        1
 P        0
 D        0
 F        0
          -------------------------------------------------

 Total:   1

 Net Charge: 0 (Nuclei minus Electrons)

 Preset values for MO occupations will be applied through SCF cycle no. 1000000
 Thereafter, the program will assign electrons to MOs that are spatially
 similar to the occupied MOs in a "reference" cycle ("KeepOrbitals").
 The reference cycle is always the PREVIOUS cycle: it will evolve with
 the SCF procedure.



 ================================
 (Slater-type)  F U N C T I O N S  ***  (Basis and Fit)  ***
 ================================
  

 Atom Type    1  (H)
 ==============

 Valence Basis Sets:   5
 -----------------------
   1 S    0.690000
   1 S    0.920000
   1 S    1.580000
   2 P    1.250000
   3 D    2.500000


 BAS: List of all Elementary Cartesian Basis Functions
 =====================================================

 The numbering in the list below (to the right of the function characteristics) is referred
 to in print-outs of MO eigenvectors and Mulliken populations in the BAS representation
 (as contrasted to the SFO representation).

 Notes:
 1. The functions are characterized by a polynomial prefactor (powers of x,y,z and r) and
    an exponential decay factor alpha.
 2. Since the basis sets are specific for an atom TYPE, the individual functions occur on
    all atoms of that type.
 3. The word 'Core' in the left margin signals that it is a Core Function (CF) : not a
    degree of freedom in the valence set, but only used to ensure orthogonalization of
    the other valence basis functions on the frozen Core Orbitals.


 (power of) X  Y  Z  R     Alpha  on Atom
            ==========     =====     ==========

 H                                    1
                                  ---------------------------------------------------------------------------
            0  0  0  0     0.690      1
            0  0  0  0     0.920      2
            0  0  0  0     1.580      3
            1  0  0  0     1.250      4
            0  1  0  0     1.250      5
            0  0  1  0     1.250      6
            2  0  0  0     2.500      7
            1  1  0  0     2.500      8
            1  0  1  0     2.500      9
            0  2  0  0     2.500     10
            0  1  1  0     2.500     11
            0  0  2  0     2.500     12

 Total number of charge fitting functions (nprimf)        50
 Total number of Cartesian basis functions (naos)         12
 Total number of Cartesian core functions  (ncos)          0



 BAS: List of all Elementary Cartesian Basis Functions
 =====================================================

 The numbering in the list below (to the right of the function characteristics) is referred
 to in print-outs of MO eigenvectors and Mulliken populations in the BAS representation
 (as contrasted to the SFO representation).

 Notes:
 1. The functions are characterized by a polynomial prefactor (powers of x,y,z and r) and
    an exponential decay factor alpha.
 2. Since the basis sets are specific for an atom TYPE, the individual functions occur on
    all atoms of that type.
 3. The word 'Core' in the left margin signals that it is a Core Function (CF) : not a
    degree of freedom in the valence set, but only used to ensure orthogonalization of
    the other valence basis functions on the frozen Core Orbitals.


 (power of) X  Y  Z  R     Alpha  on Atom
            ==========     =====     ==========

 H                                    1
                                  ---------------------------------------------------------------------------
            0  0  0  0     0.690      1
            0  0  0  0     0.920      2
            0  0  0  0     1.580      3
            1  0  0  0     1.250      4
            0  1  0  0     1.250      5
            0  0  1  0     1.250      6
            2  0  0  0     2.500      7
            1  1  0  0     2.500      8
            1  0  1  0     2.500      9
            0  2  0  0     2.500     10
            0  1  1  0     2.500     11
            0  0  2  0     2.500     12
1
 ***************************************************************************************************



                                              ***********************
                                              *  T E C H N I C A L  *
                                              ***********************
  



 =============================================================
 P A R A L L E L I Z A T I O N  and  V E C T O R I Z A T I O N
 =============================================================
  
 Nr of parallel processes:                                1
 Maximum vector length in NumInt loops:                 128

 IO buffersize (Mb):                                     64.000000



 =====================
 S C F   U P D A T E S
 =====================
  
 Max. nr. of cycles:                               300
 Convergence criterion:                              0.0000000100
   secondary criterion:                              0.0000000100

 Mix parameter (when DIIS does not apply):           0.2000000000
 Special mix parameter for the first cycle:          1.0000000000
 Mixed ADIIS+DIIS will be used
    Max number of expansion vectors:                10
    Pure ADIIS when Max([F,P]) is above              0.1000000000
    Pure DIIS when Max([F,P]) is below               0.0010000000
 Automatic ElectronSmearing (in case of problematic SCF convergence) disabled



 =================
 P R E C I S I O N  ***  (General: NumInt, NeglectFunctionTails, ...)  ***
 =================
  

 NumInt:           Target precision:                12.0000000000
 -------           Initial precision:               10.0000000000
                   Min. precision (optimization):   10.0000000000

 Neglect Functions:          Basis functions:        0.1000000000E-13
 ------------------          Fit functions:          0.1000000000E-13



 ===========================
 L I N E A R   S C A L I N G
 ===========================
  

 Cut-off radii density fit:                        0.1000000000E-97
 Overlap cut-off criterion AO matrix elements:     0.1000000000E-97
 Cut-offs for Coulomb potential and fitted density:0.1000000000E-97
 Cut-off criterion for Coulomb multipole terms:    0.1000000000E-97
 Progressive Convergence parameter:                 0.000000000    
1
 ***************************************************************************************************



                                            ***************************
                                            *  C O M P U T A T I O N  *
                                            ***************************
  

 Number of elements of the density matrix on this node (used, total):        78        78



 ===========================================
 Numerical Integration : Fuzzy Cells (Becke)
 ===========================================
  
 Becke grid quality: VERYGOOD       
  
 Lebedev angular grid order:             min:  13 max:  41
 Nr. of radial points:                   min:  64 max:  64

 Total nr. of points:         64
 Nr. of blocks:                1
 Block length:                64
 Nr. of dummy points:          0


 Test of Precision of the Numerical Integration Grid
 ===================================================

 Integral of the Total Core Density:                   0.00000000000000



 ========================
 Density Fitting (zlmFit)
 ========================
  
 ZlmFit Fit Quality: VERYGOOD       
  
 Max L-expansion:                        min:   0 max:   0
 Nr. of radial interpolation points:     min: 130 max: 130



 =====
 S C F  ***  ScaSCF  ***
 =====
  

 CYCLE    1
 SCF Error: norm([F,P])=      0.000000000000, max([F,P])=      0.000000000000
 orbitals (Q,E):
 ---------------
 S :1...3            ( 1.00    -0.5000)  ( 0.00    -0.0900)  ( 0.00     1.2939)
 P :1...1            ( 0.00     0.1562)
 D :1...1            ( 0.00     2.2917)

 CYCLE    2
 SCF Error: norm([F,P])=      0.031002856008, max([F,P])=      0.026444239384
 orbitals (Q,E):
 ---------------
 S :1...2            ( 1.00    -0.2236)  ( 0.00     0.0977)
 P :1...1            ( 0.00     0.4190)
 D :1...1            ( 0.00     2.5863)

 CYCLE    3
  SDIIS (wt  0.000):  0.2055  0.7945
 A-DIIS (wt  1.000):  0.0000  1.0000
  DIIS coefficients:  0.0000  1.0000
 SCF Error: norm([F,P])=      0.009580013340, max([F,P])=      0.009328518993
 orbitals (Q,E):
 ---------------
 S :1...2            ( 1.00    -0.2440)  ( 0.00     0.0860)
 P :1...1            ( 0.00     0.4030)
 D :1...1            ( 0.00     2.5655)

 CYCLE    4
  SDIIS (wt  0.987):  0.1949  0.8051
 A-DIIS (wt  0.013):  0.0000  1.0000
  DIIS coefficients:  0.1923  0.8077
 SCF Error: norm([F,P])=      0.002320932075, max([F,P])=      0.002286403159
 orbitals (Q,E):
 ---------------
 S :1...2            ( 1.00    -0.2400)  ( 0.00     0.0880)
 P :1...1            ( 0.00     0.4062)
 D :1...1            ( 0.00     2.5697)

 CYCLE    5
  SDIIS (wt  1.000):  0.0132  0.9868
  DIIS coefficients:  0.0132  0.9868
 SCF Error: norm([F,P])=      0.000031553206, max([F,P])=      0.000029840661
 orbitals (Q,E):
 ---------------
 S :1...2            ( 1.00    -0.2400)  ( 0.00     0.0880)
 P :1...1            ( 0.00     0.4062)
 D :1...1            ( 0.00     2.5697)

 CYCLE    6
  SDIIS (wt  1.000): -0.0314  1.0314
  DIIS coefficients: -0.0314  1.0314
 SCF Error: norm([F,P])=      0.000000959925, max([F,P])=      0.000000913629
 orbitals (Q,E):
 ---------------
 S :1...2            ( 1.00    -0.2400)  ( 0.00     0.0880)
 P :1...1            ( 0.00     0.4062)
 D :1...1            ( 0.00     2.5697)

 CYCLE    7
  SDIIS (wt  1.000):  0.0045  0.9955
  DIIS coefficients:  0.0045  0.9955
 SCF Error: norm([F,P])=      0.000000004387, max([F,P])=      0.000000004212
 orbitals (Q,E):
 ---------------
 S :1...2            ( 1.00    -0.2400)  ( 0.00     0.0880)
 P :1...1            ( 0.00     0.4062)
 D :1...1            ( 0.00     2.5697)

 SCF CONVERGED

 CYCLE    8
1
 ***************************************************************************************************



                                                *******************
                                                *  R E S U L T S  *
                                                *******************
  
 *** Setting up for NEW gradients in Focky
 *** Using FIT density in Focky

 Orbital Energies, per Irrep and Spin:
 ======================================
                        Occup              E (au)              E (eV)       Diff (eV) with prev. cycle
                        -----      --------------------        ------       --------------------------
 S
               1        1.000     -0.24003723730291E+00        -6.532              -1.36E-09
               2        0.000      0.87974178151410E-01         2.394
               3        0.000      0.15021841144445E+01        40.877
 P
               1        0.000      0.40615190499536E+00        11.052
 D
               1        0.000      0.25696970808913E+01        69.925


 Partially Occupied:
               1 S                -0.24003723730291E+00
  
 LUMO :        2 S                 0.87974178151410E-01
  


 Orbital Energies, all Irreps
 ========================================

 Irrep        no.  (spin)   Occup              E (au)                E (eV)
 ---------------------------------------------------------------------------
 S             1             1.00       -0.24003723730291E+00        -6.5317
 S             2             0.00        0.87974178151410E-01         2.3939
 P             1             0.00        0.40615190499536E+00        11.0520
 S             3             0.00        0.15021841144445E+01        40.8765
 D             1             0.00        0.25696970808913E+01        69.9250


 All Electron Calculation, thus no Orbital Energies of the Core Orbitals are calculated



 =======================================
 M U L L I K E N   P O P U L A T I O N S
 =======================================
  
 The survey below gives for each atom:
 a) the total charge (Z minus electrons)
 b) the net spin polarization (nr of electrons spin-A minus spin-B)
 c) for each spin the atomic electron valence density (integrated) per L-value.

 Atom              Charge    Spin density          S         P         D         F
 ----              ------    ------------       ------    ------    ------    ------
 1 H              -0.0000                       1.0000    0.0000    0.0000    0.0000

 Populations of individual BAS functions
 ----------------------------------------
 1 H            0.2458  0.6250  0.1292  0.0000  0.0000  0.0000  0.0000  0.0000  0.0000  0.0000
                0.0000  0.0000

 Gross Charges per Atom (Z minus electrons)
 ==========================================
            -0.0000
 Net Total: -0.00000000



 =======================================================================
 Electrostatic potential at the Nuclei due to electrons and other nuclei
 =======================================================================
  
         Atom                  Potential
         ----                  ---------
     1)   H                   0.94873442
 
 
 ========================
 No memory problems found
 ========================
 
 Maximum number of active allocate calls:         363
 
 *******************************************************************************

                             A D F   E X I T
 NORMAL TERMINATION



 =================
 Timing Statistics
 =================
  
 Total Used :                     CPU=        0.30      System=        0.02     Elapsed=        0.34

 Calls  Section                     ( Mean, Percentage )
 ---------------------------------------------------------------------------------------------------
     3  ><      ................      0.00    0.34             0.00    0.00             0.00    0.25
     1  INIT    ................      0.01    3.02             0.01   60.00             0.04   12.68
     1  GEOMET  ................      0.01    2.68             0.00    4.00             0.01    2.50
     1  INPUTA  ................      0.00    0.34             0.00    0.00             0.00    0.43
     1  MAINSY  ................      0.00    1.68             0.00    4.00             0.01    1.66
     1  SYMFIT  ................      0.00    0.00             0.00    4.00             0.00    0.24
     1  CORORT  ................      0.00    0.00             0.00    0.00             0.00    0.08
     1  SYMORB  ................      0.00    0.34             0.00    0.00             0.00    0.15
     1  CLSMAT  ................      0.00    1.34             0.00    0.00             0.00    1.16
     1  ORTHON  ................      0.00    0.00             0.00    4.00             0.00    0.37
     1  GENPT   ................      0.01    3.36             0.00    0.00             0.01    2.86
     1  PTBAS   ................      0.00    1.01             0.00    0.00             0.00    0.98
     8  FOCKY   ................      0.03   68.46             0.00   20.00             0.03   60.92
     8  FOCKTR  ................      0.00    2.01             0.00    0.00             0.00    1.53
     8  SDIIS   ................      0.00    3.02             0.00    0.00             0.00    3.31
     1  COREPS  ................      0.02    5.37             0.00    0.00             0.02    4.59
     1  POPAN   ................      0.00    1.34             0.00    0.00             0.00    1.10
     1  DEBYE   ................      0.00    0.00             0.00    0.00             0.00    0.14
     1  EXIT PROCEDURE .........      0.02    5.70             0.00    4.00             0.02    5.06


 Currently Open Files (EXIT00)
 ====================

 Unit    Access Format  Status   Type       Ident (file)
 -------------------------------------------------------
   3      SEQ    FORM   TRANSP  NORMAL      LOGFILE
                                          ( logfile )


 Buffered I/O statistics
 =======================
 Memory available:                     67108864
 Number of records fitting in memory:     16131
 Input :   0.2% of                        17484  *4k bytes
 Output:  15.2% of                         1046  *4k bytes
 Records from serial files evicted:           0
                    others evicted:           0
 Hash table lookups:      44693 with          0 conflicts (  0.00%)

 ***************************************************************************************************
 (LOGFILE)
 <Apr18-2019> <14:04:08>  ADF development version  RunTime: Apr18-2019 14:04:08  Nodes: 1  Procs: 1
 <Apr18-2019> <14:04:08>  Hydrogen (TZ2P)
 <Apr18-2019> <14:04:08>  RunType   : CREATE
 <Apr18-2019> <14:04:08>  Net Charge: 0 (Nuclei minus Electrons)
 <Apr18-2019> <14:04:08>  Symmetry  : ATOM
  Coordinates
    Atom         X           Y           Z   (Angstrom)
    1.H         0.000000    0.000000    0.000000
 <Apr18-2019> <14:04:08>  >>>> CORORT
 <Apr18-2019> <14:04:08>  >>>> CLSMAT
 <Apr18-2019> <14:04:08>  >>>> ORTHON
 <Apr18-2019> <14:04:08>  >>>> GENPT
 <Apr18-2019> <14:04:08>  Block Length=  64
 <Apr18-2019> <14:04:08>  >>>> PTBAS
 <Apr18-2019> <14:04:08>  >>>> CYCLE
 <Apr18-2019> <14:04:08>              |Error|         MaxErr       Wt(A-DIIS)
 <Apr18-2019> <14:04:08>      1      0.00000000      0.00000000
 <Apr18-2019> <14:04:08>      2      0.03100286      0.02644424
 <Apr18-2019> <14:04:08>      3      0.00958001      0.00932852    100.0
 <Apr18-2019> <14:04:08>      4      0.00232093      0.00228640      1.3
 <Apr18-2019> <14:04:08>      5      0.00003155      0.00002984      0.0
 <Apr18-2019> <14:04:08>      6      0.00000096      0.00000091      0.0
 <Apr18-2019> <14:04:08>      7      0.00000000      0.00000000      0.0
 <Apr18-2019> <14:04:08>  SCF converged
 <Apr18-2019> <14:04:08>      8      0.00000000      0.00000000      0.0
 <Apr18-2019> <14:04:09>  >>>> POPAN
 <Apr18-2019> <14:04:09>  >>>> DEBYE
 <Apr18-2019> <14:04:09>  NORMAL TERMINATION
 <Apr18-2019> <14:04:09>  END

Create Br   file=TZ2P-Br
XC
  GGA blyp
  DISPERSION Grimme3 BJDAMP
End
End Input

 *******************************************************************************
 *                                                                             *
 *  -------------------------------------                                      *
 *   Amsterdam Density Functional  (ADF)         development version           *
 *  -------------------------------------                                      *
 *                                               r61132 2017-09-08             *
 *                                                                             *
 *                                                                             *
 *                              =================                              *
 *                              |               |                              *
 *                              |     A D F     |                              *
 *                              |               |                              *
 *                              =================                              *
 *                                                                             *
 *                                                                             *
 *   Online information and documentation:  https://www.scm.com/support/       *
 *   E-mail:  support@scm.com   info@scm.com                                   *
 *                                                                             *
 *   Scientific publications using ADF results must be properly referenced     *
 *   See the User Manuals (or the web site) for recommended citations          *
 *   The terms and conditions of the End User License Agreement apply to       *
 *   the use of ADF, https://www.scm.com/license-terms/                        *
 *                                                                             *
 **********************  x86_64_linux_intel / intelmpi  ************************
 
 Licensed to: VU/FEW (+ SARA) / ALGEMEEN / Amsterdam / THE NETHERLANDS
 SCM User ID: u7668
  
 ADF development version  RunTime: Apr18-2019 14:04:09  Nodes: 1  Procs: 1

 Temporary files are created in /local/datastore0/tcst25/186713/kid_0.d62j99

 Bromine (TZ2P)



 ===========================
 A T T A C H E D   F I L E S
 ===========================
  
 CREATE - Data File:    TZ2P-Br
                        Bromine (TZ2P)



 ===============================
 M O D E L   P A R A M E T E R S
 ===============================
  
 DENSITY FUNCTIONAL POTENTIAL (scf)
    LDA:                               Exchange only                           == Not Default ==
    Gradient Corrections:              Becke88 LYP                             == Not Default ==

 SPIN  (restricted / unrestr.)
    Molecule:                          Restricted                               

 OTHER ASPECTS
    Relativistic Corrections:          ---                                      

    Nuclear Charge Density Model:      Point Charge Nuclei                      
    Core Treatment:                    Frozen Orbital(s)                        

    Hyperfine or Zeeman Interaction:   ---                                      

 Settings for Grimme 3 dispersion correction

      damping                        BJ
      s6                          1.000
      a1                          0.430
      s8                          2.700
      a2                          4.236

 Other (technical) parameters

      alpha                      14.000
      version                         4
 



 =====================================
 S Y M M E T R Y ,   E L E C T R O N S
 =====================================
  
 Symmetry: ATOM

 Irreducible Representations, including subspecies
 -------------------------------------------------
 S
 P:x  P:y  P:z
 D:z2  D:x2-y2  D:xy  D:xz  D:yz
 F:z3  F:z  F:xyz  F:z2x  F:z2y  F:x  F:y


 Configuration of Valence Electrons
 ==================================

          Occupation Numbers
          -------------------------------------------------
 S        4*2
 P        2*6 5
 D        10
 F        0
          -------------------------------------------------

 Total:   35

 Net Charge: 0 (Nuclei minus Electrons)

 Preset values for MO occupations will be applied through SCF cycle no. 1000000
 Thereafter, the program will assign electrons to MOs that are spatially
 similar to the occupied MOs in a "reference" cycle ("KeepOrbitals").
 The reference cycle is always the PREVIOUS cycle: it will evolve with
 the SCF procedure.



 ================================
 (Slater-type)  F U N C T I O N S  ***  (Basis and Fit)  ***
 ================================
  

 Atom Type    1  (Br)
 ==============

 Valence Basis Sets:  20
 -----------------------
   1 S   41.300000
   1 S   32.800000
   2 S   13.900000
   2 P   19.450000
   2 P   13.100000
   3 S    7.200000
   3 S    4.950000
   3 P    7.900000
   3 P    5.050000
   3 D   10.900000
   3 D    6.050000
   3 D    3.500000
   4 S    4.500000
   4 S    2.800000
   4 S    1.800000
   4 P    3.250000
   4 P    1.950000
   4 P    1.200000
   4 D    1.800000
   4 F    1.800000


 BAS: List of all Elementary Cartesian Basis Functions
 =====================================================

 The numbering in the list below (to the right of the function characteristics) is referred
 to in print-outs of MO eigenvectors and Mulliken populations in the BAS representation
 (as contrasted to the SFO representation).

 Notes:
 1. The functions are characterized by a polynomial prefactor (powers of x,y,z and r) and
    an exponential decay factor alpha.
 2. Since the basis sets are specific for an atom TYPE, the individual functions occur on
    all atoms of that type.
 3. The word 'Core' in the left margin signals that it is a Core Function (CF) : not a
    degree of freedom in the valence set, but only used to ensure orthogonalization of
    the other valence basis functions on the frozen Core Orbitals.


 (power of) X  Y  Z  R     Alpha  on Atom
            ==========     =====     ==========

 Br                                   1
                                  ---------------------------------------------------------------------------
            0  0  0  0    41.300      1
            0  0  0  0    32.800      2
            0  0  0  1    13.900      3
            1  0  0  0    19.450      4
            0  1  0  0    19.450      5
            0  0  1  0    19.450      6
            1  0  0  0    13.100      7
            0  1  0  0    13.100      8
            0  0  1  0    13.100      9
            0  0  0  2     7.200     10
            0  0  0  2     4.950     11
            1  0  0  1     7.900     12
            0  1  0  1     7.900     13
            0  0  1  1     7.900     14
            1  0  0  1     5.050     15
            0  1  0  1     5.050     16
            0  0  1  1     5.050     17
            2  0  0  0    10.900     18
            1  1  0  0    10.900     19
            1  0  1  0    10.900     20
            0  2  0  0    10.900     21
            0  1  1  0    10.900     22
            0  0  2  0    10.900     23
            2  0  0  0     6.050     24
            1  1  0  0     6.050     25
            1  0  1  0     6.050     26
            0  2  0  0     6.050     27
            0  1  1  0     6.050     28
            0  0  2  0     6.050     29
            2  0  0  0     3.500     30
            1  1  0  0     3.500     31
            1  0  1  0     3.500     32
            0  2  0  0     3.500     33
            0  1  1  0     3.500     34
            0  0  2  0     3.500     35
            0  0  0  3     4.500     36
            0  0  0  3     2.800     37
            0  0  0  3     1.800     38
            1  0  0  2     3.250     39
            0  1  0  2     3.250     40
            0  0  1  2     3.250     41
            1  0  0  2     1.950     42
            0  1  0  2     1.950     43
            0  0  1  2     1.950     44
            1  0  0  2     1.200     45
            0  1  0  2     1.200     46
            0  0  1  2     1.200     47
            2  0  0  1     1.800     48
            1  1  0  1     1.800     49
            1  0  1  1     1.800     50
            0  2  0  1     1.800     51
            0  1  1  1     1.800     52
            0  0  2  1     1.800     53
            3  0  0  0     1.800     54
            2  1  0  0     1.800     55
            2  0  1  0     1.800     56
            1  2  0  0     1.800     57
            1  1  1  0     1.800     58
            1  0  2  0     1.800     59
            0  3  0  0     1.800     60
            0  2  1  0     1.800     61
            0  1  2  0     1.800     62
            0  0  3  0     1.800     63

 Total number of charge fitting functions (nprimf)       170
 Total number of Cartesian basis functions (naos)         63
 Total number of Cartesian core functions  (ncos)          0



 BAS: List of all Elementary Cartesian Basis Functions
 =====================================================

 The numbering in the list below (to the right of the function characteristics) is referred
 to in print-outs of MO eigenvectors and Mulliken populations in the BAS representation
 (as contrasted to the SFO representation).

 Notes:
 1. The functions are characterized by a polynomial prefactor (powers of x,y,z and r) and
    an exponential decay factor alpha.
 2. Since the basis sets are specific for an atom TYPE, the individual functions occur on
    all atoms of that type.
 3. The word 'Core' in the left margin signals that it is a Core Function (CF) : not a
    degree of freedom in the valence set, but only used to ensure orthogonalization of
    the other valence basis functions on the frozen Core Orbitals.


 (power of) X  Y  Z  R     Alpha  on Atom
            ==========     =====     ==========

 Br                                   1
                                  ---------------------------------------------------------------------------
            0  0  0  0    41.300      1
            0  0  0  0    32.800      2
            0  0  0  1    13.900      3
            1  0  0  0    19.450      4
            0  1  0  0    19.450      5
            0  0  1  0    19.450      6
            1  0  0  0    13.100      7
            0  1  0  0    13.100      8
            0  0  1  0    13.100      9
            0  0  0  2     7.200     10
            0  0  0  2     4.950     11
            1  0  0  1     7.900     12
            0  1  0  1     7.900     13
            0  0  1  1     7.900     14
            1  0  0  1     5.050     15
            0  1  0  1     5.050     16
            0  0  1  1     5.050     17
            2  0  0  0    10.900     18
            1  1  0  0    10.900     19
            1  0  1  0    10.900     20
            0  2  0  0    10.900     21
            0  1  1  0    10.900     22
            0  0  2  0    10.900     23
            2  0  0  0     6.050     24
            1  1  0  0     6.050     25
            1  0  1  0     6.050     26
            0  2  0  0     6.050     27
            0  1  1  0     6.050     28
            0  0  2  0     6.050     29
            2  0  0  0     3.500     30
            1  1  0  0     3.500     31
            1  0  1  0     3.500     32
            0  2  0  0     3.500     33
            0  1  1  0     3.500     34
            0  0  2  0     3.500     35
            0  0  0  3     4.500     36
            0  0  0  3     2.800     37
            0  0  0  3     1.800     38
            1  0  0  2     3.250     39
            0  1  0  2     3.250     40
            0  0  1  2     3.250     41
            1  0  0  2     1.950     42
            0  1  0  2     1.950     43
            0  0  1  2     1.950     44
            1  0  0  2     1.200     45
            0  1  0  2     1.200     46
            0  0  1  2     1.200     47
            2  0  0  1     1.800     48
            1  1  0  1     1.800     49
            1  0  1  1     1.800     50
            0  2  0  1     1.800     51
            0  1  1  1     1.800     52
            0  0  2  1     1.800     53
            3  0  0  0     1.800     54
            2  1  0  0     1.800     55
            2  0  1  0     1.800     56
            1  2  0  0     1.800     57
            1  1  1  0     1.800     58
            1  0  2  0     1.800     59
            0  3  0  0     1.800     60
            0  2  1  0     1.800     61
            0  1  2  0     1.800     62
            0  0  3  0     1.800     63
1
 ***************************************************************************************************



                                              ***********************
                                              *  T E C H N I C A L  *
                                              ***********************
  



 =============================================================
 P A R A L L E L I Z A T I O N  and  V E C T O R I Z A T I O N
 =============================================================
  
 Nr of parallel processes:                                1
 Maximum vector length in NumInt loops:                 128

 IO buffersize (Mb):                                     64.000000



 =====================
 S C F   U P D A T E S
 =====================
  
 Max. nr. of cycles:                               300
 Convergence criterion:                              0.0000000100
   secondary criterion:                              0.0000000100

 Mix parameter (when DIIS does not apply):           0.2000000000
 Special mix parameter for the first cycle:          1.0000000000
 Mixed ADIIS+DIIS will be used
    Max number of expansion vectors:                10
    Pure ADIIS when Max([F,P]) is above              0.1000000000
    Pure DIIS when Max([F,P]) is below               0.0010000000
 Automatic ElectronSmearing (in case of problematic SCF convergence) disabled



 =================
 P R E C I S I O N  ***  (General: NumInt, NeglectFunctionTails, ...)  ***
 =================
  

 NumInt:           Target precision:                12.0000000000
 -------           Initial precision:               10.0000000000
                   Min. precision (optimization):   10.0000000000

 Neglect Functions:          Basis functions:        0.1000000000E-13
 ------------------          Fit functions:          0.1000000000E-13



 ===========================
 L I N E A R   S C A L I N G
 ===========================
  

 Cut-off radii density fit:                        0.1000000000E-97
 Overlap cut-off criterion AO matrix elements:     0.1000000000E-97
 Cut-offs for Coulomb potential and fitted density:0.1000000000E-97
 Cut-off criterion for Coulomb multipole terms:    0.1000000000E-97
 Progressive Convergence parameter:                 0.000000000    
1
 ***************************************************************************************************



                                            ***************************
                                            *  C O M P U T A T I O N  *
                                            ***************************
  

 Number of elements of the density matrix on this node (used, total):      2016      2016



 ===========================================
 Numerical Integration : Fuzzy Cells (Becke)
 ===========================================
  
 Becke grid quality: VERYGOOD       
  
 Lebedev angular grid order:             min:  13 max:  41
 Nr. of radial points:                   min: 106 max: 106

 Total nr. of points:        106
 Nr. of blocks:                1
 Block length:               106
 Nr. of dummy points:          0


 Test of Precision of the Numerical Integration Grid
 ===================================================

 Integral of the Total Core Density:                   0.00000000000000



 ========================
 Density Fitting (zlmFit)
 ========================
  
 ZlmFit Fit Quality: VERYGOOD       
  
 Max L-expansion:                        min:   0 max:   0
 Nr. of radial interpolation points:     min: 240 max: 240



 =====
 S C F  ***  ScaSCF  ***
 =====
  

 CYCLE    1
 SCF Error: norm([F,P])=      0.000000000000, max([F,P])=      0.000000000000
 orbitals (Q,E):
 ---------------
 S :1...8            ( 2.00  -612.4786)  ( 2.00  -152.6714)  ( 2.00   -67.1618)  ( 2.00   -37.3471)
                     ( 0.00   -23.4672)  ( 0.00   -15.4322)  ( 0.00    -9.8352)  ( 0.00   627.8721)
 P :1...7            ( 6.00  -153.0715)  ( 6.00   -67.2002)  ( 5.00   -36.6918)  ( 0.00   -21.5714)
                     ( 0.00   -12.7861)  ( 0.00    -7.3590)  ( 0.00    16.5106)
 D :1...4            (10.00   -67.9473)  ( 0.00   -38.1263)  ( 0.00   -23.3212)  ( 0.00   -12.4393)
 F :1...1            ( 0.00   -14.1300)

 CYCLE    2
  SDIIS (wt  0.000):  1.0000 -0.0000
 A-DIIS (wt  1.000):  0.0000  1.0000
  DIIS coefficients:  0.0000  1.0000
 SCF Error: norm([F,P])=    133.903788591766, max([F,P])=     33.002638835768
 orbitals (Q,E):
 ---------------
 S :1...5            ( 2.00  -440.6623)  ( 2.00   -34.4608)  ( 2.00    -0.4838)  ( 2.00     0.2836)
                     ( 0.00     1.7588)
 P :1...4            ( 6.00   -26.4444)  ( 6.00     0.0834)  ( 5.00     0.3720)  ( 0.00     1.4169)
 D :1...2            (10.00     0.6774)  ( 0.00     3.4882)
 F :1...1            ( 0.00     1.3965)

 CYCLE    3
  SDIIS (wt  0.000):  0.1412  0.8588
 A-DIIS (wt  1.000):  0.4812  0.5188
  DIIS coefficients:  0.4812  0.5188
 SCF Error: norm([F,P])=     49.629143697465, max([F,P])=     17.595188807560
 orbitals (Q,E):
 ---------------
 S :1...5            ( 2.00  -480.8932)  ( 2.00   -64.7226)  ( 2.00   -13.6294)  ( 2.00    -3.4868)
                     ( 0.00    -0.5582)
 P :1...4            ( 6.00   -58.1726)  ( 6.00   -11.4786)  ( 5.00    -2.7508)  ( 0.00    -0.3243)
 D :1...2            (10.00    -7.6458)  ( 0.00    -1.4985)
 F :1...1            ( 0.00    -0.1774)

 CYCLE    4
  SDIIS (wt  0.000):  0.0224 -0.0021  0.9797
 A-DIIS (wt  1.000):  0.0000  0.0000  1.0000
  DIIS coefficients:  0.0000  0.0000  1.0000
 SCF Error: norm([F,P])=      9.092094844053, max([F,P])=      2.124855053538
 orbitals (Q,E):
 ---------------
 S :1...5            ( 2.00  -477.9553)  ( 2.00   -58.6455)  ( 2.00    -6.0025)  ( 2.00    -0.0887)
                     ( 0.00     0.6741)
 P :1...4            ( 6.00   -52.5726)  ( 6.00    -3.9206)  ( 5.00     0.0754)  ( 0.00     0.4470)
 D :1...2            (10.00    -0.2229)  ( 0.00     0.6460)
 F :1...1            ( 0.00     1.2104)

 CYCLE    5
  SDIIS (wt  0.000):  0.0181 -0.0308  0.6039  0.4089
 A-DIIS (wt  1.000):  0.0000  0.0000  0.5822  0.4178
  DIIS coefficients:  0.0000  0.0000  0.5822  0.4178
 SCF Error: norm([F,P])=     11.701584191545, max([F,P])=      3.988425979038
 orbitals (Q,E):
 ---------------
 S :1...5            ( 2.00  -481.8352)  ( 2.00   -62.3102)  ( 2.00    -8.5155)  ( 2.00    -0.7697)
                     ( 0.00     0.1875)
 P :1...4            ( 6.00   -56.2897)  ( 6.00    -6.4201)  ( 5.00    -0.3523)  ( 0.00     0.1239)
 D :1...2            (10.00    -2.6384)  ( 0.00     0.1906)
 F :1...1            ( 0.00     0.7840)

 CYCLE    6
  SDIIS (wt  0.000): -0.0026 -0.0016  0.0582  0.1076  0.8383
 A-DIIS (wt  1.000):  0.0000  0.0000  0.0000  0.0000  1.0000
  DIIS coefficients:  0.0000  0.0000  0.0000  0.0000  1.0000
 SCF Error: norm([F,P])=      1.823540048332, max([F,P])=      0.456619293025
 orbitals (Q,E):
 ---------------
 S :1...5            ( 2.00  -480.3974)  ( 2.00   -61.3034)  ( 2.00    -8.2095)  ( 2.00    -0.6754)
                     ( 0.00     0.2537)
 P :1...4            ( 6.00   -55.2073)  ( 6.00    -6.1080)  ( 5.00    -0.2621)  ( 0.00     0.1463)
 D :1...2            (10.00    -2.3134)  ( 0.00     0.2796)
 F :1...1            ( 0.00     0.8617)

 CYCLE    7
  SDIIS (wt  0.000): -0.0001  0.0001  0.0162 -0.0122  0.4359  0.5600
 A-DIIS (wt  1.000):  0.0000  0.0000  0.0000  0.0000  0.5218  0.4782
  DIIS coefficients:  0.0000  0.0000  0.0000  0.0000  0.5218  0.4782
 SCF Error: norm([F,P])=      1.607695839970, max([F,P])=      0.415842628956
 orbitals (Q,E):
 ---------------
 S :1...5            ( 2.00  -481.0075)  ( 2.00   -61.7929)  ( 2.00    -8.4313)  ( 2.00    -0.7171)
                     ( 0.00     0.2346)
 P :1...4            ( 6.00   -55.7193)  ( 6.00    -6.3308)  ( 5.00    -0.2925)  ( 0.00     0.1353)
 D :1...2            (10.00    -2.5382)  ( 0.00     0.2584)
 F :1...1            ( 0.00     0.8462)

 CYCLE    8
  SDIIS (wt  0.813): -0.0000  0.0000  0.0003 -0.0007  0.1156  0.1336  0.7512
 A-DIIS (wt  0.187):  0.0000  0.0000  0.0000  0.0000  0.0000  0.0000  1.0000
  DIIS coefficients: -0.0000  0.0000  0.0003 -0.0005  0.0941  0.1086  0.7976
 SCF Error: norm([F,P])=      0.065754007621, max([F,P])=      0.019467288040
 orbitals (Q,E):
 ---------------
 S :1...5            ( 2.00  -480.9996)  ( 2.00   -61.7672)  ( 2.00    -8.3915)  ( 2.00    -0.6991)
                     ( 0.00     0.2415)
 P :1...4            ( 6.00   -55.6965)  ( 6.00    -6.2914)  ( 5.00    -0.2791)  ( 0.00     0.1389)
 D :1...2            (10.00    -2.4995)  ( 0.00     0.2673)
 F :1...1            ( 0.00     0.8551)

 CYCLE    9
  SDIIS (wt  0.928): -0.0000 -0.0000 -0.0004  0.0001  0.0270  0.0241  0.3726  0.5766
 A-DIIS (wt  0.072):  0.0000  0.0000  0.0000  0.0000  0.0000  0.0000  0.1253  0.8747
  DIIS coefficients: -0.0000 -0.0000 -0.0004  0.0001  0.0251  0.0224  0.3549  0.5979
 SCF Error: norm([F,P])=      0.026013191770, max([F,P])=      0.008091160141
 orbitals (Q,E):
 ---------------
 S :1...5            ( 2.00  -481.0129)  ( 2.00   -61.7801)  ( 2.00    -8.4039)  ( 2.00    -0.7064)
                     ( 0.00     0.2380)
 P :1...4            ( 6.00   -55.7094)  ( 6.00    -6.3038)  ( 5.00    -0.2850)  ( 0.00     0.1366)
 D :1...2            (10.00    -2.5117)  ( 0.00     0.2628)
 F :1...1            ( 0.00     0.8506)

 CYCLE   10
  SDIIS (wt  1.000): -0.0000  0.0000 -0.0000 -0.0000  0.0019  0.0015  0.0216  0.0490  0.9260
  DIIS coefficients: -0.0000  0.0000 -0.0000 -0.0000  0.0019  0.0015  0.0216  0.0490  0.9260
 SCF Error: norm([F,P])=      0.000463673934, max([F,P])=      0.000100374140
 orbitals (Q,E):
 ---------------
 S :1...5            ( 2.00  -481.0128)  ( 2.00   -61.7801)  ( 2.00    -8.4038)  ( 2.00    -0.7064)
                     ( 0.00     0.2380)
 P :1...4            ( 6.00   -55.7094)  ( 6.00    -6.3036)  ( 5.00    -0.2850)  ( 0.00     0.1366)
 D :1...2            (10.00    -2.5116)  ( 0.00     0.2628)
 F :1...1            ( 0.00     0.8506)

 CYCLE   11
  SDIIS (wt  1.000): -0.0000  0.0000 -0.0000 -0.0000  0.0000  0.0000  0.0003  0.0002 -0.0123  1.0118
  DIIS coefficients: -0.0000  0.0000 -0.0000 -0.0000  0.0000  0.0000  0.0003  0.0002 -0.0123  1.0118
 SCF Error: norm([F,P])=      0.000010859570, max([F,P])=      0.000002783508
 orbitals (Q,E):
 ---------------
 S :1...5            ( 2.00  -481.0127)  ( 2.00   -61.7800)  ( 2.00    -8.4038)  ( 2.00    -0.7064)
                     ( 0.00     0.2380)
 P :1...4            ( 6.00   -55.7094)  ( 6.00    -6.3036)  ( 5.00    -0.2850)  ( 0.00     0.1366)
 D :1...2            (10.00    -2.5116)  ( 0.00     0.2628)
 F :1...1            ( 0.00     0.8506)

 CYCLE   12
  SDIIS (wt  1.000): -0.0000  0.0000  0.0000 -0.0114  1.0114
  DIIS coefficients: -0.0000  0.0000  0.0000 -0.0114  1.0114
 SCF Error: norm([F,P])=      0.000000253930, max([F,P])=      0.000000059057
 orbitals (Q,E):
 ---------------
 S :1...5            ( 2.00  -481.0127)  ( 2.00   -61.7800)  ( 2.00    -8.4038)  ( 2.00    -0.7064)
                     ( 0.00     0.2380)
 P :1...4            ( 6.00   -55.7094)  ( 6.00    -6.3036)  ( 5.00    -0.2850)  ( 0.00     0.1366)
 D :1...2            (10.00    -2.5116)  ( 0.00     0.2628)
 F :1...1            ( 0.00     0.8506)

 CYCLE   13
  SDIIS (wt  1.000):  0.0000 -0.0000 -0.0002  0.0471  0.9531
  DIIS coefficients:  0.0000 -0.0000 -0.0002  0.0471  0.9531
 SCF Error: norm([F,P])=      0.000000008155, max([F,P])=      0.000000002198
 orbitals (Q,E):
 ---------------
 S :1...5            ( 2.00  -481.0127)  ( 2.00   -61.7800)  ( 2.00    -8.4038)  ( 2.00    -0.7064)
                     ( 0.00     0.2380)
 P :1...4            ( 6.00   -55.7094)  ( 6.00    -6.3036)  ( 5.00    -0.2850)  ( 0.00     0.1366)
 D :1...2            (10.00    -2.5116)  ( 0.00     0.2628)
 F :1...1            ( 0.00     0.8506)

 SCF CONVERGED

 CYCLE   14
1
 ***************************************************************************************************



                                                *******************
                                                *  R E S U L T S  *
                                                *******************
  
 *** Setting up for NEW gradients in Focky
 *** Using FIT density in Focky

 Orbital Energies, per Irrep and Spin:
 ======================================
                        Occup              E (au)              E (eV)       Diff (eV) with prev. cycle
                        -----      --------------------        ------       --------------------------
 S
               1        2.000     -0.48101274587878E+03    -13089.023              -3.04E-09
               2        2.000     -0.61780048652771E+02     -1681.121              -1.34E-09
               3        2.000     -0.84037718795878E+01      -228.678              -2.41E-09
               4        2.000     -0.70640809652969E+00       -19.222              -2.95E-09
               5        0.000      0.23797090184223E+00         6.476
               6        0.000      0.24655941619106E+01        67.092
               7        0.000      0.14293653166501E+02       388.950
               8        0.000      0.74647931329125E+03     20312.736
 P
               1        6.000     -0.55709370544448E+02     -1515.929              -1.52E-09
               2        6.000     -0.63036166135521E+01      -171.530              -2.40E-09
               3        5.000     -0.28498840632730E+00        -7.755              -2.43E-09
               4        0.000      0.13662305746043E+00         3.718
               5        0.000      0.12150701661255E+01        33.064
               6        0.000      0.88352207867398E+01       240.419
               7        0.000      0.10087703617678E+03      2745.004
 D
               1       10.000     -0.25115984206637E+01       -68.344              -2.32E-09
               2        0.000      0.26280809227207E+00         7.151
               3        0.000      0.26773687643252E+01        72.855
               4        0.000      0.20605889125446E+02       560.715
 F
               1        0.000      0.85063213392399E+00        23.147


 Partially Occupied:
               3 P                -0.28498840632730E+00
  
 HOMO :        4 S                -0.70640809652969E+00
 LUMO :        4 P                 0.13662305746043E+00
  


 Orbital Energies, all Irreps
 ========================================

 Irrep        no.  (spin)   Occup              E (au)                E (eV)
 ---------------------------------------------------------------------------
 S             1             2.00       -0.48101274587878E+03    -13089.0228
 S             2             2.00       -0.61780048652771E+02     -1681.1207
 P             1             6.00       -0.55709370544448E+02     -1515.9291
 S             3             2.00       -0.84037718795878E+01      -228.6783
 P             2             6.00       -0.63036166135521E+01      -171.5301
 D             1            10.00       -0.25115984206637E+01       -68.3441
 S             4             2.00       -0.70640809652969E+00       -19.2223
 P             3             5.00       -0.28498840632730E+00        -7.7549
 P             4             0.00        0.13662305746043E+00         3.7177
 S             5             0.00        0.23797090184223E+00         6.4755
 D             2             0.00        0.26280809227207E+00         7.1514
 F             1             0.00        0.85063213392399E+00        23.1469
 P             5             0.00        0.12150701661255E+01        33.0637
 S             6             0.00        0.24655941619106E+01        67.0922
 D             3             0.00        0.26773687643252E+01        72.8549
 P             6             0.00        0.88352207867398E+01       240.4186
 S             7             0.00        0.14293653166501E+02       388.9501
 D             4             0.00        0.20605889125446E+02       560.7148
 P             7             0.00        0.10087703617678E+03      2745.0038
 S             8             0.00        0.74647931329125E+03     20312.7356


 All Electron Calculation, thus no Orbital Energies of the Core Orbitals are calculated



 =======================================
 M U L L I K E N   P O P U L A T I O N S
 =======================================
  
 The survey below gives for each atom:
 a) the total charge (Z minus electrons)
 b) the net spin polarization (nr of electrons spin-A minus spin-B)
 c) for each spin the atomic electron valence density (integrated) per L-value.

 Atom              Charge    Spin density          S         P         D         F
 ----              ------    ------------       ------    ------    ------    ------
 1 Br              0.0000                       8.0000   17.0000   10.0000    0.0000

 Populations of individual BAS functions
 ----------------------------------------
 1 Br           0.3604  1.5689  2.0728  0.7136  0.7136  0.7136  1.2644  1.2644  1.2644  1.4494
                0.5676  1.1356  1.1356  1.1356  0.8920  0.8920  0.8920  0.2683  0.4025  0.4025
                0.2683  0.4025  0.2683  0.7743  1.1615  1.1615  0.7743  1.1615  0.7743  0.2907
                0.4361  0.4361  0.2907  0.4361  0.2907  0.2958  1.2583  0.4268  0.5585  0.5585
                0.5585  0.8946  0.8946  0.8946  0.2080  0.2080  0.2080 -0.0001 -0.0001 -0.0001
               -0.0001 -0.0001 -0.0001  0.0000  0.0000  0.0000  0.0000  0.0000  0.0000  0.0000
                0.0000  0.0000  0.0000

 Gross Charges per Atom (Z minus electrons)
 ==========================================
             0.0000
 Net Total:  0.00000000



 =======================================================================
 Electrostatic potential at the Nuclei due to electrons and other nuclei
 =======================================================================
  
         Atom                  Potential
         ----                  ---------
     1)   Br                175.92949555
 
 
 ========================
 No memory problems found
 ========================
 
 Maximum number of active allocate calls:         447
 
 *******************************************************************************

                             A D F   E X I T
 NORMAL TERMINATION



 =================
 Timing Statistics
 =================
  
 Total Used :                     CPU=        0.82      System=        0.03     Elapsed=        0.85

 Calls  Section                     ( Mean, Percentage )
 ---------------------------------------------------------------------------------------------------
     3  ><      ................      0.00    0.12             0.00    0.00             0.00    0.09
     1  INIT    ................      0.01    1.10             0.01   55.56             0.03    3.06
     1  GEOMET  ................      0.00    0.61             0.00   11.11             0.01    1.01
     1  INPUTA  ................      0.00    0.24             0.00    0.00             0.00    0.19
     1  MAINSY  ................      0.00    0.49             0.00    7.41             0.01    0.71
     1  SYMFIT  ................      0.00    0.00             0.00    0.00             0.00    0.09
     1  CORORT  ................      0.00    0.12             0.00    0.00             0.00    0.03
     1  SYMORB  ................      0.00    0.00             0.00    0.00             0.00    0.08
     1  CLSMAT  ................      0.01    0.61             0.00    3.70             0.01    0.62
     1  ORTHON  ................      0.00    0.12             0.00    0.00             0.00    0.20
     1  GENPT   ................      0.02    3.06             0.00    0.00             0.03    2.95
     1  PTBAS   ................      0.00    0.49             0.00    0.00             0.00    0.43
    14  FOCKY   ................      0.05   81.42             0.00   11.11             0.05   78.99
    14  FOCKTR  ................      0.00    1.59             0.00    0.00             0.00    1.43
    14  SDIIS   ................      0.00    2.57             0.00    3.70             0.00    2.65
     1  COREPS  ................      0.04    4.52             0.00    0.00             0.04    4.30
     1  POPAN   ................      0.00    0.61             0.00    0.00             0.01    0.62
     1  DEBYE   ................      0.00    0.12             0.00    0.00             0.00    0.10
     1  EXIT PROCEDURE .........      0.02    2.20             0.00    7.41             0.02    2.43


 Currently Open Files (EXIT00)
 ====================

 Unit    Access Format  Status   Type       Ident (file)
 -------------------------------------------------------
   3      SEQ    FORM   TRANSP  NORMAL      LOGFILE
                                          ( logfile )


 Buffered I/O statistics
 =======================
 Memory available:                     67108864
 Number of records fitting in memory:     16131
 Input :   0.1% of                        29683  *4k bytes
 Output:  11.9% of                         1574  *4k bytes
 Records from serial files evicted:           0
                    others evicted:           0
 Hash table lookups:      77061 with          0 conflicts (  0.00%)

 ***************************************************************************************************
 (LOGFILE)
 <Apr18-2019> <14:04:08>  ADF development version  RunTime: Apr18-2019 14:04:08  Nodes: 1  Procs: 1
 <Apr18-2019> <14:04:08>  Hydrogen (TZ2P)
 <Apr18-2019> <14:04:08>  RunType   : CREATE
 <Apr18-2019> <14:04:08>  Net Charge: 0 (Nuclei minus Electrons)
 <Apr18-2019> <14:04:08>  Symmetry  : ATOM
  Coordinates
    Atom         X           Y           Z   (Angstrom)
    1.H         0.000000    0.000000    0.000000
 <Apr18-2019> <14:04:08>  >>>> CORORT
 <Apr18-2019> <14:04:08>  >>>> CLSMAT
 <Apr18-2019> <14:04:08>  >>>> ORTHON
 <Apr18-2019> <14:04:08>  >>>> GENPT
 <Apr18-2019> <14:04:08>  Block Length=  64
 <Apr18-2019> <14:04:08>  >>>> PTBAS
 <Apr18-2019> <14:04:08>  >>>> CYCLE
 <Apr18-2019> <14:04:08>              |Error|         MaxErr       Wt(A-DIIS)
 <Apr18-2019> <14:04:08>      1      0.00000000      0.00000000
 <Apr18-2019> <14:04:08>      2      0.03100286      0.02644424
 <Apr18-2019> <14:04:08>      3      0.00958001      0.00932852    100.0
 <Apr18-2019> <14:04:08>      4      0.00232093      0.00228640      1.3
 <Apr18-2019> <14:04:08>      5      0.00003155      0.00002984      0.0
 <Apr18-2019> <14:04:08>      6      0.00000096      0.00000091      0.0
 <Apr18-2019> <14:04:08>      7      0.00000000      0.00000000      0.0
 <Apr18-2019> <14:04:08>  SCF converged
 <Apr18-2019> <14:04:08>      8      0.00000000      0.00000000      0.0
 <Apr18-2019> <14:04:09>  >>>> POPAN
 <Apr18-2019> <14:04:09>  >>>> DEBYE
 <Apr18-2019> <14:04:09>  NORMAL TERMINATION
 <Apr18-2019> <14:04:09>  END
 <Apr18-2019> <14:04:09>  ADF development version  RunTime: Apr18-2019 14:04:09  Nodes: 1  Procs: 1
 <Apr18-2019> <14:04:09>  Bromine (TZ2P)
 <Apr18-2019> <14:04:09>  RunType   : CREATE
 <Apr18-2019> <14:04:09>  Net Charge: 0 (Nuclei minus Electrons)
 <Apr18-2019> <14:04:09>  Symmetry  : ATOM
  Coordinates
    Atom         X           Y           Z   (Angstrom)
    1.Br        0.000000    0.000000    0.000000
 <Apr18-2019> <14:04:09>  >>>> CORORT
 <Apr18-2019> <14:04:09>  >>>> CLSMAT
 <Apr18-2019> <14:04:09>  >>>> ORTHON
 <Apr18-2019> <14:04:09>  >>>> GENPT
 <Apr18-2019> <14:04:09>  Block Length= 106
 <Apr18-2019> <14:04:09>  >>>> PTBAS
 <Apr18-2019> <14:04:09>  >>>> CYCLE
 <Apr18-2019> <14:04:09>              |Error|         MaxErr       Wt(A-DIIS)
 <Apr18-2019> <14:04:09>      1      0.00000000      0.00000000
 <Apr18-2019> <14:04:09>      2    133.90378859     33.00263884    100.0
 <Apr18-2019> <14:04:09>      3     49.62914370     17.59518881    100.0
 <Apr18-2019> <14:04:09>      4      9.09209484      2.12485505    100.0
 <Apr18-2019> <14:04:09>      5     11.70158419      3.98842598    100.0
 <Apr18-2019> <14:04:09>      6      1.82354005      0.45661929    100.0
 <Apr18-2019> <14:04:09>      7      1.60769584      0.41584263    100.0
 <Apr18-2019> <14:04:09>      8      0.06575401      0.01946729     18.7
 <Apr18-2019> <14:04:09>      9      0.02601319      0.00809116      7.2
 <Apr18-2019> <14:04:09>     10      0.00046367      0.00010037      0.0
 <Apr18-2019> <14:04:09>     11      0.00001086      0.00000278      0.0
 <Apr18-2019> <14:04:09>     12      0.00000025      0.00000006      0.0
 <Apr18-2019> <14:04:09>     13      0.00000001      0.00000000      0.0
 <Apr18-2019> <14:04:09>  SCF converged
 <Apr18-2019> <14:04:09>     14      0.00000000      0.00000000      0.0
 <Apr18-2019> <14:04:09>  >>>> POPAN
 <Apr18-2019> <14:04:09>  >>>> DEBYE
 <Apr18-2019> <14:04:09>  NORMAL TERMINATION
 <Apr18-2019> <14:04:09>  END


 Parallel Execution: Process Information
 ==============================================================================
 Rank   Node Name                              NodeID   MyNodeRank  NodeMaster
    0   BAZIS-cn076                               0          0          0
    1   BAZIS-cn076                               0          1         -1
    2   BAZIS-cn076                               0          2         -1
    3   BAZIS-cn076                               0          3         -1
    4   BAZIS-cn076                               0          4         -1
    5   BAZIS-cn076                               0          5         -1
    6   BAZIS-cn076                               0          6         -1
    7   BAZIS-cn076                               0          7         -1
    8   BAZIS-cn076                               0          8         -1
    9   BAZIS-cn076                               0          9         -1
   10   BAZIS-cn076                               0         10         -1
   11   BAZIS-cn076                               0         11         -1
 ==============================================================================


May use up to 30736MB of RAM as shared memory on node 0


XC
  GGA blyp
  DISPERSION Grimme3 BJDAMP
END

ANALYTICALFREQ
END

SCF
  iterations 250
END

Geometry
  Iterations 300
  Optim Cartesian
  Convergence E=1e-4 grad=1e-4
End

SYMMETRY nosym
CHARGE -1

ZLMFIT
  Quality normal
END

BECKEGRID
  Quality good
End

ATOMS
Br     -3.92255482       0.30683647      -0.21836993
H      -2.84513185       0.18627380       0.62794929
Br     -1.11280880       0.64475808       1.78064946
END

Fragments
H t21.H
Br t21.Br
End
end input

 *******************************************************************************
 *                                                                             *
 *  -------------------------------------                                      *
 *   Amsterdam Density Functional  (ADF)         development version           *
 *  -------------------------------------                                      *
 *                                               r61132 2017-09-08             *
 *                                                                             *
 *                                                                             *
 *                              =================                              *
 *                              |               |                              *
 *                              |     A D F     |                              *
 *                              |               |                              *
 *                              =================                              *
 *                                                                             *
 *                                                                             *
 *   Online information and documentation:  https://www.scm.com/support/       *
 *   E-mail:  support@scm.com   info@scm.com                                   *
 *                                                                             *
 *   Scientific publications using ADF results must be properly referenced     *
 *   See the User Manuals (or the web site) for recommended citations          *
 *   The terms and conditions of the End User License Agreement apply to       *
 *   the use of ADF, https://www.scm.com/license-terms/                        *
 *                                                                             *
 **********************  x86_64_linux_intel / intelmpi  ************************
 
 Licensed to: VU/FEW (+ SARA) / ALGEMEEN / Amsterdam / THE NETHERLANDS
 SCM User ID: u7668
  
 ADF development version  RunTime: Apr18-2019 14:04:10  Nodes: 1  Procs: 12

 Temporary files are created in /local/datastore0/tcst25/186713/kid_0.odveJe


Communication costs MPI_COMM_WORLD:      2.496 usec per message,   0.0134 usec per 8-byte item
Communication costs for intra-node:      2.491 usec per message,   0.0134 usec per 8-byte item

 *** (NO TITLE) ***



 ===========================
 A T T A C H E D   F I L E S
 ===========================
  



 ===============================
 M O D E L   P A R A M E T E R S
 ===============================
  
 DENSITY FUNCTIONAL POTENTIAL (scf)
    LDA:                               Exchange only                           == Not Default ==
    Gradient Corrections:              Becke88 LYP                             == Not Default ==

 SPIN  (restricted / unrestr.)
    Molecule:                          Restricted                               
    Fragments:                         Restricted                               

 OTHER ASPECTS
    Relativistic Corrections:          ---                                      

    Nuclear Charge Density Model:      Point Charge Nuclei                      
    Core Treatment:                    Frozen Orbital(s)                        

    Hyperfine or Zeeman Interaction:   ---                                      

 Settings for Grimme 3 dispersion correction

      damping                        BJ
      s6                          1.000
      a1                          0.430
      s8                          2.700
      a2                          4.236

 Other (technical) parameters

      alpha                      14.000
      version                         4
 


 Fragment File(s)
 ----------------
 Br:
         file : t21.Br
         jobid: ADF development version  RunTime: Apr18-2019 14:04:09  Nodes: 1  Procs: 1
         title: Bromine (TZ2P)
 H:
         file : t21.H
         jobid: ADF development version  RunTime: Apr18-2019 14:04:08  Nodes: 1  Procs: 1
         title: Hydrogen (TZ2P)



                                   *********************************************
                                   *  R U N   T Y P E : GEOMETRY OPTIMIZATION  *
                                   *********************************************
  



 ===============
 G E O M E T R Y  ***  Planar Molecule  ***
 ===============
  

 ATOMS
 =====                            X Y Z                    CHARGE
                                (Angstrom)             Nucl     +Core       At.Mass
                       --------------------------    ----------------       -------
    1  Br             -3.9226    0.3068   -0.2184     35.00     35.00       78.9183
    2  H              -2.8451    0.1863    0.6279      1.00      1.00        1.0078
    3  Br             -1.1128    0.6448    1.7806     35.00     35.00       78.9183


 FRAGMENTS
 =========                                     Atoms in this Fragment     Cart. coord.s (Angstrom)
                                               -------------------------------------------------------
    1  Br                                                1  Br          -3.9226    0.3068   -0.2184
    2  Br                                                3  Br          -1.1128    0.6448    1.7806
    3  H                                                 2  H           -2.8451    0.1863    0.6279


 Interatomic Distance Matrix (Angstrom)
 --------------------------------------

   1)     0.000
   2)     1.375   0.000
   3)     3.465   2.131   0.000

 Min. Distance =    1.3754
 Max. Distance =    3.4648



 =====================================
 S Y M M E T R Y ,   E L E C T R O N S
 =====================================
  
 Symmetry: NOSYM

 Irreducible Representations, including subspecies
 -------------------------------------------------
 A


 Configuration of Valence Electrons
 ==================================
 ( determined in the SCF procedure )

 Total:   72

 Net Charge: -1 (Nuclei minus Electrons)

 Aufbau principle for MO occupations will be applied through SCF cycle no.     125
 Thereafter, the program will assign electrons to MOs that are spatially
 similar to the occupied MOs in a "reference" cycle ("KeepOrbitals").
 The reference cycle is always the PREVIOUS cycle: it will evolve with
 the SCF procedure.
1
 ***************************************************************************************************



                                      ****************************************
                                      *  B U I L D : (Fragments, Functions)  *
                                      ****************************************
  



 =======
 S F O s  ***  (Symmetrized Fragment Orbitals)  ***
 =======
  
 SFOs are linear combinations of (valence) Fragment Orbitals (FOs), such that the SFOs transform as the
 irreducible representations of the (molecular) symmetry group. Each SFO is therefore characterized by
 an irrep of the molecule and by a few (or only one) generating FOs.
 The SFOs constitute a symmetry-adapted basis for the Fock matrix. The MO eigenvector coefficients in
 this basis provide a direct interpretation of the MOs in terms of Frontier Orbital Theory.

 The SFOs are combined with auxiliary Core Functions (CFs) to ensure orthogonalization on the (frozen)
 Core Orbitals (COs). The Core-orthogonalized SFOs (CSFOs) constitute the true Fock basis.

 The FOs, and hence also the (C)SFOs are combinations of the elementary basis functions (BAS). The basis
 functions that participate in the description of the SFOs depend on the irrep. The indices of the
 involved functions are printed below for each irrep.
 (The complete list of primitive basis functions is printed in another section)

 Total nr. of (C)SFOs (summation over all irreps) :   123

 NOTE: a (C)SFO that is defined as a combination of more than one FO is usually NOT normalized.



                                       === A ===
 Nr. of SFOs :  123
 Cartesian basis functions that participate in this irrep (total number =   138) :
      1     2     3    10    11    36    37    38     4     7
     12    15    39    42    45     5     8    13    16    40
     43    46     6     9    14    17    41    44    47    18
     24    30    48    19    25    31    49    20    26    32
     50    21    27    33    51    22    28    34    52    23
     29    35    53    54    55    56    57    58    59    60
     61    62    63    64    65    66    73    74    99   100
    101    67    70    75    78   102   105   108    68    71
     76    79   103   106   109    69    72    77    80   104
    107   110    81    87    93   111    82    88    94   112
     83    89    95   113    84    90    96   114    85    91
     97   115    86    92    98   116   117   118   119   120
    121   122   123   124   125   126   127   128   129   130
    131   132   133   134   135   136   137   138

    SFO  (index         Fragment          Generating    Expansion in Fragment Orbitals
  indx  incl.CFs)   Occup   Orb.Energy   FragmentType  Coeff.   Orbital     on Fragment
 --------------------------------------------------------------------------------------
     1       1      2.000    -481.013 au  Br            1.00      1 S               1
                        (  -13089.023 eV)
     2       2      2.000     -61.780 au  Br            1.00      2 S               1
                        (   -1681.121 eV)
     3       3      2.000      -8.404 au  Br            1.00      3 S               1
                        (    -228.678 eV)
     4       4      2.000      -0.706 au  Br            1.00      4 S               1
                        (     -19.222 eV)
     5       5       --         0.238 au  Br            1.00      5 S               1
                        (       6.476 eV)
     6       6       --         2.466 au  Br            1.00      6 S               1
                        (      67.092 eV)
     7       7       --        14.294 au  Br            1.00      7 S               1
                        (     388.950 eV)
     8       8       --       746.479 au  Br            1.00      8 S               1
                        (   20312.736 eV)
     9       9      2.000     -55.709 au  Br            1.00      1 P:x             1
                        (   -1515.929 eV)
    10      10      2.000      -6.304 au  Br            1.00      2 P:x             1
                        (    -171.530 eV)
    11      11      1.667      -0.285 au  Br            1.00      3 P:x             1
                        (      -7.755 eV)
    12      12       --         0.137 au  Br            1.00      4 P:x             1
                        (       3.718 eV)
    13      13       --         1.215 au  Br            1.00      5 P:x             1
                        (      33.064 eV)
    14      14       --         8.835 au  Br            1.00      6 P:x             1
                        (     240.419 eV)
    15      15       --       100.877 au  Br            1.00      7 P:x             1
                        (    2745.004 eV)
    16      16      2.000     -55.709 au  Br            1.00      1 P:y             1
                        (   -1515.929 eV)
    17      17      2.000      -6.304 au  Br            1.00      2 P:y             1
                        (    -171.530 eV)
    18      18      1.667      -0.285 au  Br            1.00      3 P:y             1
                        (      -7.755 eV)
    19      19       --         0.137 au  Br            1.00      4 P:y             1
                        (       3.718 eV)
    20      20       --         1.215 au  Br            1.00      5 P:y             1
                        (      33.064 eV)
    21      21       --         8.835 au  Br            1.00      6 P:y             1
                        (     240.419 eV)
    22      22       --       100.877 au  Br            1.00      7 P:y             1
                        (    2745.004 eV)
    23      23      2.000     -55.709 au  Br            1.00      1 P:z             1
                        (   -1515.929 eV)
    24      24      2.000      -6.304 au  Br            1.00      2 P:z             1
                        (    -171.530 eV)
    25      25      1.667      -0.285 au  Br            1.00      3 P:z             1
                        (      -7.755 eV)
    26      26       --         0.137 au  Br            1.00      4 P:z             1
                        (       3.718 eV)
    27      27       --         1.215 au  Br            1.00      5 P:z             1
                        (      33.064 eV)
    28      28       --         8.835 au  Br            1.00      6 P:z             1
                        (     240.419 eV)
    29      29       --       100.877 au  Br            1.00      7 P:z             1
                        (    2745.004 eV)
    30      30      2.000      -2.512 au  Br            1.00      1 D:z2            1
                        (     -68.344 eV)
    31      31       --         0.263 au  Br            1.00      2 D:z2            1
                        (       7.151 eV)
    32      32       --         2.677 au  Br            1.00      3 D:z2            1
                        (      72.855 eV)
    33      33       --        20.606 au  Br            1.00      4 D:z2            1
                        (     560.715 eV)
    34      34      2.000      -2.512 au  Br            1.00      1 D:x2-y2         1
                        (     -68.344 eV)
    35      35       --         0.263 au  Br            1.00      2 D:x2-y2         1
                        (       7.151 eV)
    36      36       --         2.677 au  Br            1.00      3 D:x2-y2         1
                        (      72.855 eV)
    37      37       --        20.606 au  Br            1.00      4 D:x2-y2         1
                        (     560.715 eV)
    38      38      2.000      -2.512 au  Br            1.00      1 D:xy            1
                        (     -68.344 eV)
    39      39       --         0.263 au  Br            1.00      2 D:xy            1
                        (       7.151 eV)
    40      40       --         2.677 au  Br            1.00      3 D:xy            1
                        (      72.855 eV)
    41      41       --        20.606 au  Br            1.00      4 D:xy            1
                        (     560.715 eV)
    42      42      2.000      -2.512 au  Br            1.00      1 D:xz            1
                        (     -68.344 eV)
    43      43       --         0.263 au  Br            1.00      2 D:xz            1
                        (       7.151 eV)
    44      44       --         2.677 au  Br            1.00      3 D:xz            1
                        (      72.855 eV)
    45      45       --        20.606 au  Br            1.00      4 D:xz            1
                        (     560.715 eV)
    46      46      2.000      -2.512 au  Br            1.00      1 D:yz            1
                        (     -68.344 eV)
    47      47       --         0.263 au  Br            1.00      2 D:yz            1
                        (       7.151 eV)
    48      48       --         2.677 au  Br            1.00      3 D:yz            1
                        (      72.855 eV)
    49      49       --        20.606 au  Br            1.00      4 D:yz            1
                        (     560.715 eV)
    50      50       --         0.851 au  Br            1.00      1 F:z3            1
                        (      23.147 eV)
    51      51       --         0.851 au  Br            1.00      1 F:z             1
                        (      23.147 eV)
    52      52       --         0.851 au  Br            1.00      1 F:xyz           1
                        (      23.147 eV)
    53      53       --         0.851 au  Br            1.00      1 F:z2x           1
                        (      23.147 eV)
    54      54       --         0.851 au  Br            1.00      1 F:z2y           1
                        (      23.147 eV)
    55      55       --         0.851 au  Br            1.00      1 F:x             1
                        (      23.147 eV)
    56      56       --         0.851 au  Br            1.00      1 F:y             1
                        (      23.147 eV)
    57      57      2.000    -481.013 au  Br            1.00      1 S               2
                        (  -13089.023 eV)
    58      58      2.000     -61.780 au  Br            1.00      2 S               2
                        (   -1681.121 eV)
    59      59      2.000      -8.404 au  Br            1.00      3 S               2
                        (    -228.678 eV)
    60      60      2.000      -0.706 au  Br            1.00      4 S               2
                        (     -19.222 eV)
    61      61       --         0.238 au  Br            1.00      5 S               2
                        (       6.476 eV)
    62      62       --         2.466 au  Br            1.00      6 S               2
                        (      67.092 eV)
    63      63       --        14.294 au  Br            1.00      7 S               2
                        (     388.950 eV)
    64      64       --       746.479 au  Br            1.00      8 S               2
                        (   20312.736 eV)
    65      65      2.000     -55.709 au  Br            1.00      1 P:x             2
                        (   -1515.929 eV)
    66      66      2.000      -6.304 au  Br            1.00      2 P:x             2
                        (    -171.530 eV)
    67      67      1.667      -0.285 au  Br            1.00      3 P:x             2
                        (      -7.755 eV)
    68      68       --         0.137 au  Br            1.00      4 P:x             2
                        (       3.718 eV)
    69      69       --         1.215 au  Br            1.00      5 P:x             2
                        (      33.064 eV)
    70      70       --         8.835 au  Br            1.00      6 P:x             2
                        (     240.419 eV)
    71      71       --       100.877 au  Br            1.00      7 P:x             2
                        (    2745.004 eV)
    72      72      2.000     -55.709 au  Br            1.00      1 P:y             2
                        (   -1515.929 eV)
    73      73      2.000      -6.304 au  Br            1.00      2 P:y             2
                        (    -171.530 eV)
    74      74      1.667      -0.285 au  Br            1.00      3 P:y             2
                        (      -7.755 eV)
[...]
 <Apr18-2019> <14:04:22>      8      0.00000080      0.00000017      0.0
 <Apr18-2019> <14:04:22>  SCF converged
 <Apr18-2019> <14:04:23>      9      0.00000017      0.00000004      0.0
 <Apr18-2019> <14:04:23>  >>>> TOTEN
 <Apr18-2019> <14:04:23>  >>>> POPAN
 <Apr18-2019> <14:04:23>  >>>> DEBYE
 <Apr18-2019> <14:04:23>  >>>> ENGRAD
 <Apr18-2019> <14:04:23>  current energy                               -0.35849455 Hartree
 <Apr18-2019> <14:04:23>  energy change                      -0.00000072     0.00010000    T
 <Apr18-2019> <14:04:23>  constrained gradient max            0.00016766     0.00010000    F
 <Apr18-2019> <14:04:23>  constrained gradient rms            0.00009431     0.00006667    F
 <Apr18-2019> <14:04:23>  gradient max                        0.00016766
 <Apr18-2019> <14:04:23>  gradient rms                        0.00009431
 <Apr18-2019> <14:04:23>  cart. step max                      0.00340498     0.01000000    T
 <Apr18-2019> <14:04:23>  cart. step rms                      0.00209581     0.00666667    T
  Coordinates in Geometry Cycle 10
    Atom         X           Y           Z   (Angstrom)
    1.Br       -4.029472   -0.182806   -0.142873
    2.H        -2.628576    0.378038    0.730155
    3.Br       -1.222447    0.942636    1.602946
 <Apr18-2019> <14:04:23>  >>>> CORORT
 <Apr18-2019> <14:04:23>  >>>> CLSMAT
 <Apr18-2019> <14:04:23>  >>>> ORTHON
 <Apr18-2019> <14:04:23>  >>>> GENPT
 <Apr18-2019> <14:04:23>  Block Length= 128
 <Apr18-2019> <14:04:23>  >>>> PTBAS
 <Apr18-2019> <14:04:23>  >>>> CYCLE
 <Apr18-2019> <14:04:23>              |Error|         MaxErr       Wt(A-DIIS)
 <Apr18-2019> <14:04:23>      1      0.01233255      0.00392022
 <Apr18-2019> <14:04:23>      2      0.00335877      0.00070629    100.0
 <Apr18-2019> <14:04:23>      3      0.00712195      0.00128349    100.0
 <Apr18-2019> <14:04:23>      4      0.00120284      0.00025583      0.0
 <Apr18-2019> <14:04:23>      5      0.00008426      0.00001160      0.0
 <Apr18-2019> <14:04:24>      6      0.00005146      0.00001012      0.0
 <Apr18-2019> <14:04:24>      7      0.00000580      0.00000100      0.0
 <Apr18-2019> <14:04:24>      8      0.00000255      0.00000048      0.0
 <Apr18-2019> <14:04:24>  SCF converged
 <Apr18-2019> <14:04:24>      9      0.00000027      0.00000006      0.0
 <Apr18-2019> <14:04:24>  >>>> TOTEN
 <Apr18-2019> <14:04:24>  >>>> POPAN
 <Apr18-2019> <14:04:24>  >>>> DEBYE
 <Apr18-2019> <14:04:24>  >>>> ENGRAD
 <Apr18-2019> <14:04:24>  current energy                               -0.35849415 Hartree
 <Apr18-2019> <14:04:24>  energy change                       0.00000041     0.00010000    T
 <Apr18-2019> <14:04:24>  constrained gradient max            0.00089336     0.00010000    F
 <Apr18-2019> <14:04:24>  constrained gradient rms            0.00047013     0.00006667    F
 <Apr18-2019> <14:04:24>  gradient max                        0.00089336
 <Apr18-2019> <14:04:24>  gradient rms                        0.00047013
 <Apr18-2019> <14:04:24>  cart. step max                      0.02356138     0.01000000    F
 <Apr18-2019> <14:04:24>  cart. step rms                      0.01294459     0.00666667    F
  Coordinates in Geometry Cycle 11
    Atom         X           Y           Z   (Angstrom)
    1.Br       -4.026417   -0.203657   -0.138431
    2.H        -2.625318    0.375328    0.742450
    3.Br       -1.228760    0.966198    1.586210
 <Apr18-2019> <14:04:24>  >>>> CORORT
 <Apr18-2019> <14:04:24>  >>>> CLSMAT
 <Apr18-2019> <14:04:24>  >>>> ORTHON
 <Apr18-2019> <14:04:24>  >>>> GENPT
 <Apr18-2019> <14:04:24>  Block Length= 128
 <Apr18-2019> <14:04:24>  >>>> PTBAS
 <Apr18-2019> <14:04:24>  >>>> CYCLE
 <Apr18-2019> <14:04:24>              |Error|         MaxErr       Wt(A-DIIS)
 <Apr18-2019> <14:04:24>      1      0.03155071      0.00810635
 <Apr18-2019> <14:04:24>      2      0.00931249      0.00200079    100.0
 <Apr18-2019> <14:04:25>      3      0.00401264      0.00086465    100.0
 <Apr18-2019> <14:04:25>      4      0.00792836      0.00161007    100.0
 <Apr18-2019> <14:04:25>      5      0.00138127      0.00022964      0.0
 <Apr18-2019> <14:04:25>      6      0.00015712      0.00002442      0.0
 <Apr18-2019> <14:04:25>      7      0.00004051      0.00000646      0.0
 <Apr18-2019> <14:04:25>      8      0.00000946      0.00000166      0.0
 <Apr18-2019> <14:04:25>      9      0.00000215      0.00000037      0.0
 <Apr18-2019> <14:04:25>  SCF converged
 <Apr18-2019> <14:04:25>     10      0.00000092      0.00000017      0.0
 <Apr18-2019> <14:04:25>  >>>> TOTEN
 <Apr18-2019> <14:04:25>  >>>> POPAN
 <Apr18-2019> <14:04:25>  >>>> DEBYE
 <Apr18-2019> <14:04:25>  >>>> ENGRAD
 <Apr18-2019> <14:04:25>  current energy                               -0.35848150 Hartree
 <Apr18-2019> <14:04:25>  energy change                       0.00001265     0.00010000    T
 <Apr18-2019> <14:04:25>  constrained gradient max            0.00133104     0.00010000    F
 <Apr18-2019> <14:04:25>  constrained gradient rms            0.00059274     0.00006667    F
 <Apr18-2019> <14:04:25>  gradient max                        0.00133104
 <Apr18-2019> <14:04:25>  gradient rms                        0.00059274
 <Apr18-2019> <14:04:25>  cart. step max                      0.03130482     0.01000000    F
 <Apr18-2019> <14:04:25>  cart. step rms                      0.02052100     0.00666667    F
  Coordinates in Geometry Cycle 12
    Atom         X           Y           Z   (Angstrom)
    1.Br       -4.034268   -0.182003   -0.123772
    2.H        -2.594013    0.372193    0.712161
    3.Br       -1.252214    0.947679    1.601840
 <Apr18-2019> <14:04:25>  >>>> CORORT
 <Apr18-2019> <14:04:25>  >>>> CLSMAT
 <Apr18-2019> <14:04:25>  >>>> ORTHON
 <Apr18-2019> <14:04:25>  >>>> GENPT
 <Apr18-2019> <14:04:25>  Block Length= 128
 <Apr18-2019> <14:04:25>  >>>> PTBAS
 <Apr18-2019> <14:04:25>  >>>> CYCLE
 <Apr18-2019> <14:04:26>              |Error|         MaxErr       Wt(A-DIIS)
 <Apr18-2019> <14:04:26>      1      0.05491812      0.01596952
 <Apr18-2019> <14:04:26>      2      0.01246346      0.00241552    100.0
 <Apr18-2019> <14:04:26>      3      0.00585862      0.00109227    100.0
 <Apr18-2019> <14:04:26>      4      0.01015184      0.00195389    100.0
 <Apr18-2019> <14:04:26>      5      0.00177025      0.00027732      0.0
 <Apr18-2019> <14:04:26>      6      0.00024101      0.00005594      0.0
 <Apr18-2019> <14:04:26>      7      0.00006252      0.00001152      0.0
 <Apr18-2019> <14:04:26>      8      0.00001718      0.00000403      0.0
 <Apr18-2019> <14:04:26>      9      0.00000217      0.00000042      0.0
 <Apr18-2019> <14:04:26>  SCF converged
 <Apr18-2019> <14:04:26>     10      0.00000072      0.00000013      0.0
 <Apr18-2019> <14:04:26>  >>>> TOTEN
 <Apr18-2019> <14:04:27>  >>>> POPAN
 <Apr18-2019> <14:04:27>  >>>> DEBYE
 <Apr18-2019> <14:04:27>  >>>> ENGRAD
 <Apr18-2019> <14:04:27>  current energy                               -0.35832024 Hartree
 <Apr18-2019> <14:04:27>  energy change                       0.00016125     0.00010000    F
 <Apr18-2019> <14:04:27>  constrained gradient max            0.00569955     0.00010000    F
 <Apr18-2019> <14:04:27>  constrained gradient rms            0.00275087     0.00006667    F
 <Apr18-2019> <14:04:27>  gradient max                        0.00569955
 <Apr18-2019> <14:04:27>  gradient rms                        0.00275087
 <Apr18-2019> <14:04:27>  cart. step max                      0.01546842     0.01000000    F
 <Apr18-2019> <14:04:27>  cart. step rms                      0.00774620     0.00666667    F
  Coordinates in Geometry Cycle 13
    Atom         X           Y           Z   (Angstrom)
    1.Br       -4.037599   -0.188682   -0.127676
    2.H        -2.606152    0.372776    0.709790
    3.Br       -1.236745    0.953774    1.608114
 <Apr18-2019> <14:04:27>  >>>> CORORT
 <Apr18-2019> <14:04:27>  >>>> CLSMAT
 <Apr18-2019> <14:04:27>  >>>> ORTHON
 <Apr18-2019> <14:04:27>  >>>> GENPT
 <Apr18-2019> <14:04:27>  Block Length= 128
 <Apr18-2019> <14:04:27>  >>>> PTBAS
 <Apr18-2019> <14:04:27>  >>>> CYCLE
 <Apr18-2019> <14:04:27>              |Error|         MaxErr       Wt(A-DIIS)
 <Apr18-2019> <14:04:27>      1      0.05310025      0.01705399
 <Apr18-2019> <14:04:27>      2      0.01428617      0.00302415    100.0
 <Apr18-2019> <14:04:27>      3      0.03022874      0.00546933    100.0
 <Apr18-2019> <14:04:27>      4      0.00507944      0.00108308      0.1
 <Apr18-2019> <14:04:27>      5      0.00036189      0.00005200      0.0
 <Apr18-2019> <14:04:27>      6      0.00022395      0.00004316      0.0
 <Apr18-2019> <14:04:27>      7      0.00002416      0.00000425      0.0
 <Apr18-2019> <14:04:28>      8      0.00001014      0.00000193      0.0
 <Apr18-2019> <14:04:28>      9      0.00000117      0.00000028      0.0
 <Apr18-2019> <14:04:28>  SCF converged
 <Apr18-2019> <14:04:28>     10      0.00000040      0.00000008      0.0
 <Apr18-2019> <14:04:28>  >>>> TOTEN
 <Apr18-2019> <14:04:28>  >>>> POPAN
 <Apr18-2019> <14:04:28>  >>>> DEBYE
 <Apr18-2019> <14:04:28>  >>>> ENGRAD
 <Apr18-2019> <14:04:28>  current energy                               -0.35843222 Hartree
 <Apr18-2019> <14:04:28>  energy change                      -0.00011197     0.00010000    F
 <Apr18-2019> <14:04:28>  constrained gradient max            0.00208984     0.00010000    F
 <Apr18-2019> <14:04:28>  constrained gradient rms            0.00115166     0.00006667    F
 <Apr18-2019> <14:04:28>  gradient max                        0.00208984
 <Apr18-2019> <14:04:28>  gradient rms                        0.00115166
 <Apr18-2019> <14:04:28>  cart. step max                      0.03360614     0.01000000    F
 <Apr18-2019> <14:04:28>  cart. step rms                      0.01701875     0.00666667    F
  Coordinates in Geometry Cycle 14
    Atom         X           Y           Z   (Angstrom)
    1.Br       -4.026380   -0.200370   -0.140633
    2.H        -2.627030    0.375222    0.743397
    3.Br       -1.227085    0.963017    1.587465
 <Apr18-2019> <14:04:28>  >>>> CORORT
 <Apr18-2019> <14:04:28>  >>>> CLSMAT
 <Apr18-2019> <14:04:28>  >>>> ORTHON
 <Apr18-2019> <14:04:28>  >>>> GENPT
 <Apr18-2019> <14:04:28>  Block Length= 128
 <Apr18-2019> <14:04:28>  >>>> PTBAS
 <Apr18-2019> <14:04:28>  >>>> CYCLE
 <Apr18-2019> <14:04:28>              |Error|         MaxErr       Wt(A-DIIS)
 <Apr18-2019> <14:04:28>      1      0.02228914      0.00648457
 <Apr18-2019> <14:04:28>      2      0.00403346      0.00074820    100.0
 <Apr18-2019> <14:04:28>      3      0.00318848      0.00083953    100.0
 <Apr18-2019> <14:04:29>      4      0.00208177      0.00045929      0.0
 <Apr18-2019> <14:04:29>      5      0.00032953      0.00006139      0.0
 <Apr18-2019> <14:04:29>      6      0.00003599      0.00000564      0.0
 <Apr18-2019> <14:04:29>      7      0.00001589      0.00000311      0.0
 <Apr18-2019> <14:04:29>      8      0.00000407      0.00000063      0.0
 <Apr18-2019> <14:04:29>  SCF converged
 <Apr18-2019> <14:04:29>      9      0.00000054      0.00000009      0.0
 <Apr18-2019> <14:04:29>  >>>> TOTEN
 <Apr18-2019> <14:04:29>  >>>> POPAN
 <Apr18-2019> <14:04:29>  >>>> DEBYE
 <Apr18-2019> <14:04:29>  >>>> ENGRAD
 <Apr18-2019> <14:04:29>  current energy                               -0.35848039 Hartree
 <Apr18-2019> <14:04:29>  energy change                      -0.00004818     0.00010000    T
 <Apr18-2019> <14:04:29>  constrained gradient max            0.00139832     0.00010000    F
 <Apr18-2019> <14:04:29>  constrained gradient rms            0.00062824     0.00006667    F
 <Apr18-2019> <14:04:29>  gradient max                        0.00139832
 <Apr18-2019> <14:04:29>  gradient rms                        0.00062824
 <Apr18-2019> <14:04:29>  cart. step max                      0.02874324     0.01000000    F
 <Apr18-2019> <14:04:29>  cart. step rms                      0.01418871     0.00666667    F
  Coordinates in Geometry Cycle 15
    Atom         X           Y           Z   (Angstrom)
    1.Br       -4.030769   -0.200785   -0.134303
    2.H        -2.636175    0.384288    0.714653
    3.Br       -1.213552    0.954365    1.609878
 <Apr18-2019> <14:04:29>  >>>> CORORT
 <Apr18-2019> <14:04:29>  >>>> CLSMAT
 <Apr18-2019> <14:04:29>  >>>> ORTHON
 <Apr18-2019> <14:04:29>  >>>> GENPT
 <Apr18-2019> <14:04:29>  Block Length= 128
 <Apr18-2019> <14:04:29>  >>>> PTBAS
 <Apr18-2019> <14:04:29>  >>>> CYCLE
 <Apr18-2019> <14:04:30>              |Error|         MaxErr       Wt(A-DIIS)
 <Apr18-2019> <14:04:30>      1      0.07194252      0.02161928
 <Apr18-2019> <14:04:30>      2      0.02304826      0.00511209    100.0
 <Apr18-2019> <14:04:30>      3      0.05008267      0.00948625    100.0
 <Apr18-2019> <14:04:30>      4      0.00842722      0.00190871      0.9
 <Apr18-2019> <14:04:30>      5      0.00049297      0.00008181      0.0
 <Apr18-2019> <14:04:30>      6      0.00032725      0.00006606      0.0
 <Apr18-2019> <14:04:30>      7      0.00003402      0.00000552      0.0
 <Apr18-2019> <14:04:30>      8      0.00001080      0.00000204      0.0
 <Apr18-2019> <14:04:30>      9      0.00000156      0.00000032      0.0
 <Apr18-2019> <14:04:30>  SCF converged
 <Apr18-2019> <14:04:30>     10      0.00000052      0.00000010      0.0
 <Apr18-2019> <14:04:30>  >>>> TOTEN
 <Apr18-2019> <14:04:30>  >>>> POPAN
 <Apr18-2019> <14:04:30>  >>>> DEBYE
 <Apr18-2019> <14:04:30>  >>>> ENGRAD
 <Apr18-2019> <14:04:31>  current energy                               -0.35842936 Hartree
 <Apr18-2019> <14:04:31>  energy change                       0.00005104     0.00010000    T
 <Apr18-2019> <14:04:31>  constrained gradient max            0.00375958     0.00010000    F
 <Apr18-2019> <14:04:31>  constrained gradient rms            0.00204298     0.00006667    F
 <Apr18-2019> <14:04:31>  gradient max                        0.00375958
 <Apr18-2019> <14:04:31>  gradient rms                        0.00204298
 <Apr18-2019> <14:04:31>  cart. step max                      0.01488962     0.01000000    F
 <Apr18-2019> <14:04:31>  cart. step rms                      0.00925541     0.00666667    F
  Coordinates in Geometry Cycle 16
    Atom         X           Y           Z   (Angstrom)
    1.Br       -4.026898   -0.189686   -0.138095
    2.H        -2.627715    0.378931    0.729529
    3.Br       -1.225883    0.948624    1.598795
 <Apr18-2019> <14:04:31>  >>>> CORORT
 <Apr18-2019> <14:04:31>  >>>> CLSMAT
 <Apr18-2019> <14:04:31>  >>>> ORTHON
 <Apr18-2019> <14:04:31>  >>>> GENPT
 <Apr18-2019> <14:04:31>  Block Length= 128
 <Apr18-2019> <14:04:31>  >>>> PTBAS
 <Apr18-2019> <14:04:31>  >>>> CYCLE
 <Apr18-2019> <14:04:31>              |Error|         MaxErr       Wt(A-DIIS)
 <Apr18-2019> <14:04:31>      1      0.05263807      0.01617721
 <Apr18-2019> <14:04:31>      2      0.01527989      0.00327457    100.0
 <Apr18-2019> <14:04:31>      3      0.00655115      0.00142203    100.0
 <Apr18-2019> <14:04:31>      4      0.01308864      0.00258430    100.0
 <Apr18-2019> <14:04:31>      5      0.00231432      0.00041255      0.0
 <Apr18-2019> <14:04:31>      6      0.00033409      0.00006268      0.0
 <Apr18-2019> <14:04:31>      7      0.00009846      0.00001785      0.0
 <Apr18-2019> <14:04:31>      8      0.00002489      0.00000420      0.0
 <Apr18-2019> <14:04:32>      9      0.00000244      0.00000040      0.0
 <Apr18-2019> <14:04:32>  SCF converged
 <Apr18-2019> <14:04:32>     10      0.00000106      0.00000018      0.0
 <Apr18-2019> <14:04:32>  >>>> TOTEN
 <Apr18-2019> <14:04:32>  >>>> POPAN
 <Apr18-2019> <14:04:32>  >>>> DEBYE
 <Apr18-2019> <14:04:32>  >>>> ENGRAD
 <Apr18-2019> <14:04:32>  current energy                               -0.35849471 Hartree
 <Apr18-2019> <14:04:32>  energy change                      -0.00006535     0.00010000    T
 <Apr18-2019> <14:04:32>  constrained gradient max            0.00012629     0.00010000    F
 <Apr18-2019> <14:04:32>  constrained gradient rms            0.00006439     0.00006667    T
 <Apr18-2019> <14:04:32>  gradient max                        0.00012629
 <Apr18-2019> <14:04:32>  gradient rms                        0.00006439
 <Apr18-2019> <14:04:32>  cart. step max                      0.00164330     0.01000000    T
 <Apr18-2019> <14:04:32>  cart. step rms                      0.00089790     0.00666667    T
  Coordinates in Geometry Cycle 17
    Atom         X           Y           Z   (Angstrom)
    1.Br       -4.027263   -0.191029   -0.137330
    2.H        -2.626210    0.379253    0.729122
    3.Br       -1.227022    0.949645    1.598436
 <Apr18-2019> <14:04:32>  >>>> CORORT
 <Apr18-2019> <14:04:32>  >>>> CLSMAT
 <Apr18-2019> <14:04:32>  >>>> ORTHON
 <Apr18-2019> <14:04:32>  >>>> GENPT
 <Apr18-2019> <14:04:32>  Block Length= 128
 <Apr18-2019> <14:04:32>  >>>> PTBAS
 <Apr18-2019> <14:04:32>  >>>> CYCLE
 <Apr18-2019> <14:04:32>              |Error|         MaxErr       Wt(A-DIIS)
 <Apr18-2019> <14:04:32>      1      0.00413585      0.00118709
 <Apr18-2019> <14:04:32>      2      0.00133788      0.00028990    100.0
 <Apr18-2019> <14:04:32>      3      0.00056503      0.00012412    100.0
 <Apr18-2019> <14:04:32>      4      0.00114850      0.00023263      0.0
 <Apr18-2019> <14:04:33>      5      0.00002112      0.00000272      0.0
 <Apr18-2019> <14:04:33>      6      0.00000688      0.00000184      0.0
 <Apr18-2019> <14:04:33>      7      0.00000285      0.00000059      0.0
 <Apr18-2019> <14:04:33>  SCF converged
 <Apr18-2019> <14:04:33>      8      0.00000042      0.00000011      0.0
 <Apr18-2019> <14:04:33>  >>>> TOTEN
 <Apr18-2019> <14:04:33>  >>>> POPAN
 <Apr18-2019> <14:04:33>  >>>> DEBYE
 <Apr18-2019> <14:04:33>  >>>> ENGRAD
 <Apr18-2019> <14:04:33>  current energy                               -0.35849454 Hartree
 <Apr18-2019> <14:04:33>  energy change                       0.00000017     0.00010000    T
 <Apr18-2019> <14:04:33>  constrained gradient max            0.00009007     0.00010000    T
 <Apr18-2019> <14:04:33>  constrained gradient rms            0.00005466     0.00006667    T
 <Apr18-2019> <14:04:33>  gradient max                        0.00009007
 <Apr18-2019> <14:04:33>  gradient rms                        0.00005466
 <Apr18-2019> <14:04:33>  cart. step max                      0.00560309     0.01000000    T
 <Apr18-2019> <14:04:33>  cart. step rms                      0.00308796     0.00666667    T
 <Apr18-2019> <14:04:33>  GEOMETRY CONVERGED
 <Apr18-2019> <14:04:33>  Calculating Energy Terms for Final Geometry
  Coordinates in Geometry Cycle 17
    Atom         X           Y           Z   (Angstrom)
    1.Br       -4.027263   -0.191029   -0.137330
    2.H        -2.626210    0.379253    0.729122
    3.Br       -1.227022    0.949645    1.598436
 <Apr18-2019> <14:04:33>  >>>> CORORT
 <Apr18-2019> <14:04:33>  >>>> CLSMAT
 <Apr18-2019> <14:04:33>  >>>> ORTHON
 <Apr18-2019> <14:04:33>  >>>> GENPT
 <Apr18-2019> <14:04:33>  Block Length= 128
 <Apr18-2019> <14:04:33>  >>>> PTBAS
 <Apr18-2019> <14:04:33>  >>>> CYCLE
 <Apr18-2019> <14:04:33>              |Error|         MaxErr       Wt(A-DIIS)
 <Apr18-2019> <14:04:33>      1      0.00000008      0.00000002
 <Apr18-2019> <14:04:33>      2      0.00000010      0.00000002    100.0
 <Apr18-2019> <14:04:33>  SCF converged
 <Apr18-2019> <14:04:33>      3      0.00000006      0.00000001    100.0
 <Apr18-2019> <14:04:34>  >>>> TOTEN
 <Apr18-2019> <14:04:34>  >>>> POPAN
 <Apr18-2019> <14:04:34>  >>>> DEBYE
 <Apr18-2019> <14:04:34>  >>>> AMETS
 <Apr18-2019> <14:04:34>  >>>> POPUL
 <Apr18-2019> <14:04:34>   Bond Energy          -0.35849454 a.u.
 <Apr18-2019> <14:04:34>   Bond Energy          -9.75513273 eV
 <Apr18-2019> <14:04:34>   Bond Energy        -224.96       kcal/mol
 <Apr18-2019> <14:04:34>  >>>> ENHESS
 <Apr18-2019> <14:04:34>  === NUCLEUS:     1
 <Apr18-2019> <14:04:36>  === NUCLEUS:     2
 <Apr18-2019> <14:04:38>  === NUCLEUS:     3
 <Apr18-2019> <14:04:40>  >>>> CALC_HESS_PMAT
 <Apr18-2019> <14:04:40>  >>>> CALC_HESS_WMAT
 <Apr18-2019> <14:04:40>  NORMAL TERMINATION
 <Apr18-2019> <14:04:40>  END
