
Create Br   file=TZ2P-Br
XC
  GGA blyp
  DISPERSION Grimme3 BJDAMP
End
End Input

 *******************************************************************************
 *                                                                             *
 *  -------------------------------------                                      *
 *   Amsterdam Density Functional  (ADF)         2017                          *
 *  -------------------------------------                                      *
 *                                               r58813 2017-04-12             *
 *                                                                             *
 *                                                                             *
 *                              =================                              *
 *                              |               |                              *
 *                              |     A D F     |                              *
 *                              |               |                              *
 *                              =================                              *
 *                                                                             *
 *                                                                             *
 *   Online information and documentation:  https://www.scm.com/support/       *
 *   E-mail:  support@scm.com   info@scm.com                                   *
 *                                                                             *
 *   Scientific publications using ADF results must be properly referenced     *
 *   See the User Manuals (or the web site) for recommended citations          *
 *   The terms and conditions of the End User License Agreement apply to       *
 *   the use of ADF, https://www.scm.com/license-terms/                        *
 *                                                                             *
 **********************  x86_64_linux_intel / intelmpi  ************************
 
 Licensed to: VU/FEW (+ SARA) / ALGEMEEN / Amsterdam / THE NETHERLANDS
 SCM User ID: u7668
  
 ADF 2017  RunTime: May09-2019 16:32:12  Nodes: 1  Procs: 1

 Temporary files are created in /local/datastore0/tcst25/189662/kid_0.NvXMvs

 Bromine (TZ2P)



 ===========================
 A T T A C H E D   F I L E S
 ===========================
  
 CREATE - Data File:    TZ2P-Br
                        Bromine (TZ2P)



 ===============================
 M O D E L   P A R A M E T E R S
 ===============================
  
 DENSITY FUNCTIONAL POTENTIAL (scf)
    LDA:                               Exchange only                           == Not Default ==
    Gradient Corrections:              Becke88 LYP                             == Not Default ==

 SPIN  (restricted / unrestr.)
    Molecule:                          Restricted                               

 OTHER ASPECTS
    Relativistic Corrections:          ---                                      

    Nuclear Charge Density Model:      Point Charge Nuclei                      
    Core Treatment:                    Frozen Orbital(s)                        

    Hyperfine or Zeeman Interaction:   ---                                      

 Settings for Grimme 3 dispersion correction

      damping                        BJ
      s6                          1.000
      a1                          0.430
      s8                          2.700
      a2                          4.236

 Other (technical) parameters

      alpha                      14.000
      version                         4
 



 =====================================
 S Y M M E T R Y ,   E L E C T R O N S
 =====================================
  
 Symmetry: ATOM

 Irreducible Representations, including subspecies
 -------------------------------------------------
 S
 P:x  P:y  P:z
 D:z2  D:x2-y2  D:xy  D:xz  D:yz
 F:z3  F:z  F:xyz  F:z2x  F:z2y  F:x  F:y


 Configuration of Valence Electrons
 ==================================

          Occupation Numbers
          -------------------------------------------------
 S        4*2
 P        2*6 5
 D        10
 F        0
          -------------------------------------------------

 Total:   35

 Net Charge: 0 (Nuclei minus Electrons)

 Preset values for MO occupations will be applied through SCF cycle no. 1000000
 Thereafter, the program will assign electrons to MOs that are spatially
 similar to the occupied MOs in a "reference" cycle ("KeepOrbitals").
 The reference cycle is always the PREVIOUS cycle: it will evolve with
 the SCF procedure.



 ================================
 (Slater-type)  F U N C T I O N S  ***  (Basis and Fit)  ***
 ================================
  

 Atom Type    1  (Br)
 ==============

 Valence Basis Sets:  20
 -----------------------
   1 S   41.300000
   1 S   32.800000
   2 S   13.900000
   2 P   19.450000
   2 P   13.100000
   3 S    7.200000
   3 S    4.950000
   3 P    7.900000
   3 P    5.050000
   3 D   10.900000
   3 D    6.050000
   3 D    3.500000
   4 S    4.500000
   4 S    2.800000
   4 S    1.800000
   4 P    3.250000
   4 P    1.950000
   4 P    1.200000
   4 D    1.800000
   4 F    1.800000


 BAS: List of all Elementary Cartesian Basis Functions
 =====================================================

 The numbering in the list below (to the right of the function characteristics) is referred
 to in print-outs of MO eigenvectors and Mulliken populations in the BAS representation
 (as contrasted to the SFO representation).

 Notes:
 1. The functions are characterized by a polynomial prefactor (powers of x,y,z and r) and
    an exponential decay factor alpha.
 2. Since the basis sets are specific for an atom TYPE, the individual functions occur on
    all atoms of that type.
 3. The word 'Core' in the left margin signals that it is a Core Function (CF) : not a
    degree of freedom in the valence set, but only used to ensure orthogonalization of
    the other valence basis functions on the frozen Core Orbitals.


 (power of) X  Y  Z  R     Alpha  on Atom
            ==========     =====     ==========

 Br                                   1
                                  ---------------------------------------------------------------------------
            0  0  0  0    41.300      1
            0  0  0  0    32.800      2
            0  0  0  1    13.900      3
            1  0  0  0    19.450      4
            0  1  0  0    19.450      5
            0  0  1  0    19.450      6
            1  0  0  0    13.100      7
            0  1  0  0    13.100      8
            0  0  1  0    13.100      9
            0  0  0  2     7.200     10
            0  0  0  2     4.950     11
            1  0  0  1     7.900     12
            0  1  0  1     7.900     13
            0  0  1  1     7.900     14
            1  0  0  1     5.050     15
            0  1  0  1     5.050     16
            0  0  1  1     5.050     17
            2  0  0  0    10.900     18
            1  1  0  0    10.900     19
            1  0  1  0    10.900     20
            0  2  0  0    10.900     21
            0  1  1  0    10.900     22
            0  0  2  0    10.900     23
            2  0  0  0     6.050     24
            1  1  0  0     6.050     25
            1  0  1  0     6.050     26
            0  2  0  0     6.050     27
            0  1  1  0     6.050     28
            0  0  2  0     6.050     29
            2  0  0  0     3.500     30
            1  1  0  0     3.500     31
            1  0  1  0     3.500     32
            0  2  0  0     3.500     33
            0  1  1  0     3.500     34
            0  0  2  0     3.500     35
            0  0  0  3     4.500     36
            0  0  0  3     2.800     37
            0  0  0  3     1.800     38
            1  0  0  2     3.250     39
            0  1  0  2     3.250     40
            0  0  1  2     3.250     41
            1  0  0  2     1.950     42
            0  1  0  2     1.950     43
            0  0  1  2     1.950     44
            1  0  0  2     1.200     45
            0  1  0  2     1.200     46
            0  0  1  2     1.200     47
            2  0  0  1     1.800     48
            1  1  0  1     1.800     49
            1  0  1  1     1.800     50
            0  2  0  1     1.800     51
            0  1  1  1     1.800     52
            0  0  2  1     1.800     53
            3  0  0  0     1.800     54
            2  1  0  0     1.800     55
            2  0  1  0     1.800     56
            1  2  0  0     1.800     57
            1  1  1  0     1.800     58
            1  0  2  0     1.800     59
            0  3  0  0     1.800     60
            0  2  1  0     1.800     61
            0  1  2  0     1.800     62
            0  0  3  0     1.800     63

 Total number of charge fitting functions (nprimf)       170
 Total number of Cartesian basis functions (naos)         63
 Total number of Cartesian core functions  (ncos)          0



 BAS: List of all Elementary Cartesian Basis Functions
 =====================================================

 The numbering in the list below (to the right of the function characteristics) is referred
 to in print-outs of MO eigenvectors and Mulliken populations in the BAS representation
 (as contrasted to the SFO representation).

 Notes:
 1. The functions are characterized by a polynomial prefactor (powers of x,y,z and r) and
    an exponential decay factor alpha.
 2. Since the basis sets are specific for an atom TYPE, the individual functions occur on
    all atoms of that type.
 3. The word 'Core' in the left margin signals that it is a Core Function (CF) : not a
    degree of freedom in the valence set, but only used to ensure orthogonalization of
    the other valence basis functions on the frozen Core Orbitals.


 (power of) X  Y  Z  R     Alpha  on Atom
            ==========     =====     ==========

 Br                                   1
                                  ---------------------------------------------------------------------------
            0  0  0  0    41.300      1
            0  0  0  0    32.800      2
            0  0  0  1    13.900      3
            1  0  0  0    19.450      4
            0  1  0  0    19.450      5
            0  0  1  0    19.450      6
            1  0  0  0    13.100      7
            0  1  0  0    13.100      8
            0  0  1  0    13.100      9
            0  0  0  2     7.200     10
            0  0  0  2     4.950     11
            1  0  0  1     7.900     12
            0  1  0  1     7.900     13
            0  0  1  1     7.900     14
            1  0  0  1     5.050     15
            0  1  0  1     5.050     16
            0  0  1  1     5.050     17
            2  0  0  0    10.900     18
            1  1  0  0    10.900     19
            1  0  1  0    10.900     20
            0  2  0  0    10.900     21
            0  1  1  0    10.900     22
            0  0  2  0    10.900     23
            2  0  0  0     6.050     24
            1  1  0  0     6.050     25
            1  0  1  0     6.050     26
            0  2  0  0     6.050     27
            0  1  1  0     6.050     28
            0  0  2  0     6.050     29
            2  0  0  0     3.500     30
            1  1  0  0     3.500     31
            1  0  1  0     3.500     32
            0  2  0  0     3.500     33
            0  1  1  0     3.500     34
            0  0  2  0     3.500     35
            0  0  0  3     4.500     36
            0  0  0  3     2.800     37
            0  0  0  3     1.800     38
            1  0  0  2     3.250     39
            0  1  0  2     3.250     40
            0  0  1  2     3.250     41
            1  0  0  2     1.950     42
            0  1  0  2     1.950     43
            0  0  1  2     1.950     44
            1  0  0  2     1.200     45
            0  1  0  2     1.200     46
            0  0  1  2     1.200     47
            2  0  0  1     1.800     48
            1  1  0  1     1.800     49
            1  0  1  1     1.800     50
            0  2  0  1     1.800     51
            0  1  1  1     1.800     52
            0  0  2  1     1.800     53
            3  0  0  0     1.800     54
            2  1  0  0     1.800     55
            2  0  1  0     1.800     56
            1  2  0  0     1.800     57
            1  1  1  0     1.800     58
            1  0  2  0     1.800     59
            0  3  0  0     1.800     60
            0  2  1  0     1.800     61
            0  1  2  0     1.800     62
            0  0  3  0     1.800     63
1
 ***************************************************************************************************



                                              ***********************
                                              *  T E C H N I C A L  *
                                              ***********************
  



 =============================================================
 P A R A L L E L I Z A T I O N  and  V E C T O R I Z A T I O N
 =============================================================
  
 Nr of parallel processes:                                1
 Maximum vector length in NumInt loops:                 128

 IO buffersize (Mb):                                     64.000000



 =====================
 S C F   U P D A T E S
 =====================
  
 Max. nr. of cycles:                               300
 Convergence criterion:                              0.0000000100
   secondary criterion:                              0.0000000100

 Mix parameter (when DIIS does not apply):           0.2000000000
 Special mix parameter for the first cycle:          1.0000000000
 Mixed ADIIS+DIIS will be used
    Max number of expansion vectors:                10
    Pure ADIIS when Max([F,P]) is above              0.1000000000
    Pure DIIS when Max([F,P]) is below               0.0010000000
 Automatic ElectronSmearing (in case of problematic SCF convergence) disabled



 =================
 P R E C I S I O N  ***  (General: NumInt, NeglectFunctionTails, ...)  ***
 =================
  

 NumInt:           Target precision:                12.0000000000
 -------           Initial precision:               10.0000000000
                   Min. precision (optimization):   10.0000000000

 Neglect Functions:          Basis functions:        0.1000000000E-13
 ------------------          Fit functions:          0.1000000000E-13



 ===========================
 L I N E A R   S C A L I N G
 ===========================
  

 Cut-off radii density fit:                        0.1000000000E-97
 Overlap cut-off criterion AO matrix elements:     0.1000000000E-97
 Cut-offs for Coulomb potential and fitted density:0.1000000000E-97
 Cut-off criterion for Coulomb multipole terms:    0.1000000000E-97
 Progressive Convergence parameter:                 0.000000000    
1
 ***************************************************************************************************



                                            ***************************
                                            *  C O M P U T A T I O N  *
                                            ***************************
  

 Number of elements of the density matrix on this node (used, total):      2016      2016



 ===========================================
 Numerical Integration : Fuzzy Cells (Becke)
 ===========================================
  
 Becke grid quality: VERYGOOD       
  
 Lebedev angular grid order:             min:  13 max:  41
 Nr. of radial points:                   min: 106 max: 106

 Total nr. of points:        106
 Nr. of blocks:                1
 Block length:               106
 Nr. of dummy points:          0


 Test of Precision of the Numerical Integration Grid
 ===================================================

 Integral of the Total Core Density:                   0.00000000000000



 ========================
 Density Fitting (zlmFit)
 ========================
  
 ZlmFit Fit Quality: VERYGOOD       
  
 Max L-expansion:                        min:   0 max:   0
 Nr. of radial interpolation points:     min: 240 max: 240



 =====
 S C F  ***  ScaSCF  ***
 =====
  

 CYCLE    1
 SCF Error: norm([F,P])=      0.000000000000, max([F,P])=      0.000000000000
 orbitals (Q,E):
 ---------------
 S :1...8            ( 2.00  -612.4786)  ( 2.00  -152.6714)  ( 2.00   -67.1618)  ( 2.00   -37.3471)
                     ( 0.00   -23.4672)  ( 0.00   -15.4322)  ( 0.00    -9.8352)  ( 0.00   627.8721)
 P :1...7            ( 6.00  -153.0715)  ( 6.00   -67.2002)  ( 5.00   -36.6918)  ( 0.00   -21.5714)
                     ( 0.00   -12.7861)  ( 0.00    -7.3590)  ( 0.00    16.5106)
 D :1...4            (10.00   -67.9473)  ( 0.00   -38.1263)  ( 0.00   -23.3212)  ( 0.00   -12.4393)
 F :1...1            ( 0.00   -14.1300)

 CYCLE    2
  SDIIS (wt  0.000):  1.0000  0.0000
 A-DIIS (wt  1.000):  0.0000  1.0000
  DIIS coefficients:  0.0000  1.0000
 SCF Error: norm([F,P])=    133.903788591766, max([F,P])=     33.002638835768
 orbitals (Q,E):
 ---------------
 S :1...5            ( 2.00  -440.6623)  ( 2.00   -34.4608)  ( 2.00    -0.4838)  ( 2.00     0.2836)
                     ( 0.00     1.7588)
 P :1...4            ( 6.00   -26.4444)  ( 6.00     0.0834)  ( 5.00     0.3720)  ( 0.00     1.4169)
 D :1...2            (10.00     0.6774)  ( 0.00     3.4882)
 F :1...1            ( 0.00     1.3965)

 CYCLE    3
  SDIIS (wt  0.000):  0.1412  0.8588
 A-DIIS (wt  1.000):  0.4812  0.5188
  DIIS coefficients:  0.4812  0.5188
 SCF Error: norm([F,P])=     49.629143697465, max([F,P])=     17.595188807561
 orbitals (Q,E):
 ---------------
 S :1...5            ( 2.00  -480.8932)  ( 2.00   -64.7226)  ( 2.00   -13.6294)  ( 2.00    -3.4868)
                     ( 0.00    -0.5582)
 P :1...4            ( 6.00   -58.1726)  ( 6.00   -11.4786)  ( 5.00    -2.7508)  ( 0.00    -0.3243)
 D :1...2            (10.00    -7.6458)  ( 0.00    -1.4985)
 F :1...1            ( 0.00    -0.1774)

 CYCLE    4
  SDIIS (wt  0.000):  0.0224 -0.0021  0.9797
 A-DIIS (wt  1.000):  0.0000  0.0000  1.0000
  DIIS coefficients:  0.0000  0.0000  1.0000
 SCF Error: norm([F,P])=      9.092094844053, max([F,P])=      2.124855053538
 orbitals (Q,E):
 ---------------
 S :1...5            ( 2.00  -477.9553)  ( 2.00   -58.6455)  ( 2.00    -6.0025)  ( 2.00    -0.0887)
                     ( 0.00     0.6741)
 P :1...4            ( 6.00   -52.5726)  ( 6.00    -3.9206)  ( 5.00     0.0754)  ( 0.00     0.4470)
 D :1...2            (10.00    -0.2229)  ( 0.00     0.6460)
 F :1...1            ( 0.00     1.2104)

 CYCLE    5
  SDIIS (wt  0.000):  0.0181 -0.0308  0.6039  0.4089
 A-DIIS (wt  1.000):  0.0000  0.0000  0.5822  0.4178
  DIIS coefficients:  0.0000  0.0000  0.5822  0.4178
 SCF Error: norm([F,P])=     11.701584191548, max([F,P])=      3.988425979039
 orbitals (Q,E):
 ---------------
 S :1...5            ( 2.00  -481.8352)  ( 2.00   -62.3102)  ( 2.00    -8.5155)  ( 2.00    -0.7697)
                     ( 0.00     0.1875)
 P :1...4            ( 6.00   -56.2897)  ( 6.00    -6.4201)  ( 5.00    -0.3523)  ( 0.00     0.1239)
 D :1...2            (10.00    -2.6384)  ( 0.00     0.1906)
 F :1...1            ( 0.00     0.7840)

 CYCLE    6
  SDIIS (wt  0.000): -0.0026 -0.0016  0.0582  0.1076  0.8383
 A-DIIS (wt  1.000):  0.0000  0.0000  0.0000  0.0000  1.0000
  DIIS coefficients:  0.0000  0.0000  0.0000  0.0000  1.0000
 SCF Error: norm([F,P])=      1.823540048332, max([F,P])=      0.456619293025
 orbitals (Q,E):
 ---------------
 S :1...5            ( 2.00  -480.3974)  ( 2.00   -61.3034)  ( 2.00    -8.2095)  ( 2.00    -0.6754)
                     ( 0.00     0.2537)
 P :1...4            ( 6.00   -55.2073)  ( 6.00    -6.1080)  ( 5.00    -0.2621)  ( 0.00     0.1463)
 D :1...2            (10.00    -2.3134)  ( 0.00     0.2796)
 F :1...1            ( 0.00     0.8617)

 CYCLE    7
  SDIIS (wt  0.000): -0.0001  0.0001  0.0162 -0.0122  0.4359  0.5600
 A-DIIS (wt  1.000):  0.0000  0.0000  0.0000  0.0000  0.5218  0.4782
  DIIS coefficients:  0.0000  0.0000  0.0000  0.0000  0.5218  0.4782
 SCF Error: norm([F,P])=      1.607695839969, max([F,P])=      0.415842628955
 orbitals (Q,E):
 ---------------
 S :1...5            ( 2.00  -481.0075)  ( 2.00   -61.7929)  ( 2.00    -8.4313)  ( 2.00    -0.7171)
                     ( 0.00     0.2346)
 P :1...4            ( 6.00   -55.7193)  ( 6.00    -6.3308)  ( 5.00    -0.2925)  ( 0.00     0.1353)
 D :1...2            (10.00    -2.5382)  ( 0.00     0.2584)
 F :1...1            ( 0.00     0.8462)

 CYCLE    8
  SDIIS (wt  0.813): -0.0000  0.0000  0.0003 -0.0007  0.1156  0.1336  0.7512
 A-DIIS (wt  0.187):  0.0000  0.0000  0.0000  0.0000  0.0000  0.0000  1.0000
  DIIS coefficients: -0.0000  0.0000  0.0003 -0.0005  0.0941  0.1086  0.7976
 SCF Error: norm([F,P])=      0.065754007621, max([F,P])=      0.019467288040
 orbitals (Q,E):
 ---------------
 S :1...5            ( 2.00  -480.9996)  ( 2.00   -61.7672)  ( 2.00    -8.3915)  ( 2.00    -0.6991)
                     ( 0.00     0.2415)
 P :1...4            ( 6.00   -55.6965)  ( 6.00    -6.2914)  ( 5.00    -0.2791)  ( 0.00     0.1389)
 D :1...2            (10.00    -2.4995)  ( 0.00     0.2673)
 F :1...1            ( 0.00     0.8551)

 CYCLE    9
  SDIIS (wt  0.928): -0.0000 -0.0000 -0.0004  0.0001  0.0270  0.0241  0.3726  0.5766
 A-DIIS (wt  0.072):  0.0000  0.0000  0.0000  0.0000  0.0000  0.0000  0.1253  0.8747
  DIIS coefficients: -0.0000 -0.0000 -0.0004  0.0001  0.0251  0.0224  0.3549  0.5979
 SCF Error: norm([F,P])=      0.026013191771, max([F,P])=      0.008091160142
 orbitals (Q,E):
 ---------------
 S :1...5            ( 2.00  -481.0129)  ( 2.00   -61.7801)  ( 2.00    -8.4039)  ( 2.00    -0.7064)
                     ( 0.00     0.2380)
 P :1...4            ( 6.00   -55.7094)  ( 6.00    -6.3038)  ( 5.00    -0.2850)  ( 0.00     0.1366)
 D :1...2            (10.00    -2.5117)  ( 0.00     0.2628)
 F :1...1            ( 0.00     0.8506)

 CYCLE   10
  SDIIS (wt  1.000): -0.0000  0.0000 -0.0000 -0.0000  0.0019  0.0015  0.0216  0.0490  0.9260
  DIIS coefficients: -0.0000  0.0000 -0.0000 -0.0000  0.0019  0.0015  0.0216  0.0490  0.9260
 SCF Error: norm([F,P])=      0.000463673933, max([F,P])=      0.000100374139
 orbitals (Q,E):
 ---------------
 S :1...5            ( 2.00  -481.0128)  ( 2.00   -61.7801)  ( 2.00    -8.4038)  ( 2.00    -0.7064)
                     ( 0.00     0.2380)
 P :1...4            ( 6.00   -55.7094)  ( 6.00    -6.3036)  ( 5.00    -0.2850)  ( 0.00     0.1366)
 D :1...2            (10.00    -2.5116)  ( 0.00     0.2628)
 F :1...1            ( 0.00     0.8506)

 CYCLE   11
  SDIIS (wt  1.000): -0.0000  0.0000 -0.0000 -0.0000  0.0000  0.0000  0.0003  0.0002 -0.0123  1.0118
  DIIS coefficients: -0.0000  0.0000 -0.0000 -0.0000  0.0000  0.0000  0.0003  0.0002 -0.0123  1.0118
 SCF Error: norm([F,P])=      0.000010859575, max([F,P])=      0.000002783509
 orbitals (Q,E):
 ---------------
 S :1...5            ( 2.00  -481.0127)  ( 2.00   -61.7800)  ( 2.00    -8.4038)  ( 2.00    -0.7064)
                     ( 0.00     0.2380)
 P :1...4            ( 6.00   -55.7094)  ( 6.00    -6.3036)  ( 5.00    -0.2850)  ( 0.00     0.1366)
 D :1...2            (10.00    -2.5116)  ( 0.00     0.2628)
 F :1...1            ( 0.00     0.8506)

 CYCLE   12
  SDIIS (wt  1.000): -0.0000  0.0000  0.0000 -0.0114  1.0114
  DIIS coefficients: -0.0000  0.0000  0.0000 -0.0114  1.0114
 SCF Error: norm([F,P])=      0.000000253956, max([F,P])=      0.000000059059
 orbitals (Q,E):
 ---------------
 S :1...5            ( 2.00  -481.0127)  ( 2.00   -61.7800)  ( 2.00    -8.4038)  ( 2.00    -0.7064)
                     ( 0.00     0.2380)
 P :1...4            ( 6.00   -55.7094)  ( 6.00    -6.3036)  ( 5.00    -0.2850)  ( 0.00     0.1366)
 D :1...2            (10.00    -2.5116)  ( 0.00     0.2628)
 F :1...1            ( 0.00     0.8506)

 CYCLE   13
  SDIIS (wt  1.000):  0.0000 -0.0000 -0.0002  0.0472  0.9530
  DIIS coefficients:  0.0000 -0.0000 -0.0002  0.0472  0.9530
 SCF Error: norm([F,P])=      0.000000008156, max([F,P])=      0.000000002198
 orbitals (Q,E):
 ---------------
 S :1...5            ( 2.00  -481.0127)  ( 2.00   -61.7800)  ( 2.00    -8.4038)  ( 2.00    -0.7064)
                     ( 0.00     0.2380)
 P :1...4            ( 6.00   -55.7094)  ( 6.00    -6.3036)  ( 5.00    -0.2850)  ( 0.00     0.1366)
 D :1...2            (10.00    -2.5116)  ( 0.00     0.2628)
 F :1...1            ( 0.00     0.8506)

 SCF CONVERGED

 CYCLE   14
1
 ***************************************************************************************************



                                                *******************
                                                *  R E S U L T S  *
                                                *******************
  
 *** Setting up for NEW gradients in Focky
 *** Using FIT density in Focky

 Orbital Energies, per Irrep and Spin:
 ======================================
                        Occup              E (au)              E (eV)       Diff (eV) with prev. cycle
                        -----      --------------------        ------       --------------------------
 S
               1        2.000     -0.48101274587878E+03    -13089.023              -3.04E-09
               2        2.000     -0.61780048652770E+02     -1681.121              -1.31E-09
               3        2.000     -0.84037718795876E+01      -228.678              -2.39E-09
               4        2.000     -0.70640809652946E+00       -19.222              -2.94E-09
               5        0.000      0.23797090184212E+00         6.476
               6        0.000      0.24655941619123E+01        67.092
               7        0.000      0.14293653166507E+02       388.950
               8        0.000      0.74647931329126E+03     20312.736
 P
               1        6.000     -0.55709370544448E+02     -1515.929              -1.51E-09
               2        6.000     -0.63036166135521E+01      -171.530              -2.40E-09
               3        5.000     -0.28498840632736E+00        -7.755              -2.43E-09
               4        0.000      0.13662305746037E+00         3.718
               5        0.000      0.12150701661254E+01        33.064
               6        0.000      0.88352207867396E+01       240.419
               7        0.000      0.10087703617678E+03      2745.004
 D
               1       10.000     -0.25115984206638E+01       -68.344              -2.31E-09
               2        0.000      0.26280809227202E+00         7.151
               3        0.000      0.26773687643251E+01        72.855
               4        0.000      0.20605889125446E+02       560.715
 F
               1        0.000      0.85063213392394E+00        23.147


 Partially Occupied:
               3 P                -0.28498840632736E+00
  
 HOMO :        4 S                -0.70640809652946E+00
 LUMO :        4 P                 0.13662305746037E+00
  


 Orbital Energies, all Irreps
 ========================================

 Irrep        no.  (spin)   Occup              E (au)                E (eV)
 ---------------------------------------------------------------------------
 S             1             2.00       -0.48101274587878E+03    -13089.0228
 S             2             2.00       -0.61780048652770E+02     -1681.1207
 P             1             6.00       -0.55709370544448E+02     -1515.9291
 S             3             2.00       -0.84037718795876E+01      -228.6783
 P             2             6.00       -0.63036166135521E+01      -171.5301
 D             1            10.00       -0.25115984206638E+01       -68.3441
 S             4             2.00       -0.70640809652946E+00       -19.2223
 P             3             5.00       -0.28498840632736E+00        -7.7549
 P             4             0.00        0.13662305746037E+00         3.7177
 S             5             0.00        0.23797090184212E+00         6.4755
 D             2             0.00        0.26280809227202E+00         7.1514
 F             1             0.00        0.85063213392394E+00        23.1469
 P             5             0.00        0.12150701661254E+01        33.0637
 S             6             0.00        0.24655941619123E+01        67.0922
 D             3             0.00        0.26773687643251E+01        72.8549
 P             6             0.00        0.88352207867396E+01       240.4186
 S             7             0.00        0.14293653166507E+02       388.9501
 D             4             0.00        0.20605889125446E+02       560.7148
 P             7             0.00        0.10087703617678E+03      2745.0038
 S             8             0.00        0.74647931329126E+03     20312.7356


 All Electron Calculation, thus no Orbital Energies of the Core Orbitals are calculated



 =======================================
 M U L L I K E N   P O P U L A T I O N S
 =======================================
  
 The survey below gives for each atom:
 a) the total charge (Z minus electrons)
 b) the net spin polarization (nr of electrons spin-A minus spin-B)
 c) for each spin the atomic electron valence density (integrated) per L-value.

 Atom              Charge    Spin density          S         P         D         F
 ----              ------    ------------       ------    ------    ------    ------
 1 Br              0.0000                       8.0000   17.0000   10.0000    0.0000

 Populations of individual BAS functions
 ----------------------------------------
 1 Br           0.3604  1.5689  2.0728  0.7136  0.7136  0.7136  1.2644  1.2644  1.2644  1.4494
                0.5676  1.1356  1.1356  1.1356  0.8920  0.8920  0.8920  0.2683  0.4025  0.4025
                0.2683  0.4025  0.2683  0.7743  1.1615  1.1615  0.7743  1.1615  0.7743  0.2907
                0.4361  0.4361  0.2907  0.4361  0.2907  0.2958  1.2583  0.4268  0.5585  0.5585
                0.5585  0.8946  0.8946  0.8946  0.2080  0.2080  0.2080 -0.0001 -0.0001 -0.0001
               -0.0001 -0.0001 -0.0001  0.0000  0.0000  0.0000  0.0000  0.0000  0.0000  0.0000
                0.0000  0.0000  0.0000

 Gross Charges per Atom (Z minus electrons)
 ==========================================
             0.0000
 Net Total:  0.00000000



 =======================================================================
 Electrostatic potential at the Nuclei due to electrons and other nuclei
 =======================================================================
  
         Atom                  Potential
         ----                  ---------
     1)   Br                175.92949555
 
 
 ========================
 No memory problems found
 ========================
 
 Maximum number of active allocate calls:         447
 
 *******************************************************************************

                             A D F   E X I T
 NORMAL TERMINATION



 =================
 Timing Statistics
 =================
  
 Total Used :                     CPU=        1.30      System=        0.04     Elapsed=        1.34

 Calls  Section                     ( Mean, Percentage )
 ---------------------------------------------------------------------------------------------------
     3  ><      ................      0.00    0.00             0.00    0.00             0.00    0.06
     1  INIT    ................      0.01    1.15             0.02   42.50             0.03    2.57
     1  GEOMET  ................      0.01    0.69             0.00   12.50             0.01    1.00
     1  INPUTA  ................      0.00    0.31             0.00    0.00             0.00    0.25
     1  MAINSY  ................      0.01    0.54             0.00    2.50             0.01    0.59
     1  SYMFIT  ................      0.00    0.00             0.00    2.50             0.00    0.09
     1  CORORT  ................      0.00    0.00             0.00    0.00             0.00    0.03
     1  SYMORB  ................      0.00    0.15             0.00    0.00             0.00    0.12
     1  CLSMAT  ................      0.01    0.69             0.00    0.00             0.01    0.69
     1  ORTHON  ................      0.00    0.15             0.00    2.50             0.00    0.24
     1  GENPT   ................      0.03    2.62             0.00    0.00             0.03    2.55
     1  PTBAS   ................      0.01    0.46             0.00    2.50             0.01    0.48
    14  FOCKY   ................      0.08   81.14             0.00   17.50             0.08   79.16
    14  FOCKTR  ................      0.00    1.62             0.00    2.50             0.00    1.52
    14  SDIIS   ................      0.00    2.62             0.00    7.50             0.00    2.87
     1  COREPS  ................      0.06    4.70             0.00    2.50             0.06    4.64
     1  POPAN   ................      0.01    0.77             0.00    0.00             0.01    0.69
     1  DEBYE   ................      0.00    0.08             0.00    0.00             0.00    0.10
     1  EXIT PROCEDURE .........      0.03    2.31             0.00    5.00             0.03    2.37


 Currently Open Files (EXIT00)
 ====================

 Unit    Access Format  Status   Type       Ident (file)
 -------------------------------------------------------
   3      SEQ    FORM   TRANSP  NORMAL      LOGFILE
                                          ( logfile )


 Buffered I/O statistics
 =======================
 Memory available:                     67108864
 Number of records fitting in memory:     16131
 Input :   0.1% of                        29670  *4k bytes
 Output:  12.0% of                         1573  *4k bytes
 Records from serial files evicted:           0
                    others evicted:           0
 Hash table lookups:      77031 with          0 conflicts (  0.00%)

 ***************************************************************************************************
 (LOGFILE)
 <May09-2019> <16:32:12>  ADF 2017  RunTime: May09-2019 16:32:12  Nodes: 1  Procs: 1
 <May09-2019> <16:32:12>  Bromine (TZ2P)
 <May09-2019> <16:32:12>  RunType   : CREATE
 <May09-2019> <16:32:12>  Net Charge: 0 (Nuclei minus Electrons)
 <May09-2019> <16:32:12>  Symmetry  : ATOM
  Coordinates
    Atom         X           Y           Z   (Angstrom)
    1.Br        0.000000    0.000000    0.000000
 <May09-2019> <16:32:12>  >>>> CORORT
 <May09-2019> <16:32:12>  >>>> CLSMAT
 <May09-2019> <16:32:12>  >>>> ORTHON
 <May09-2019> <16:32:12>  >>>> GENPT
 <May09-2019> <16:32:12>  Block Length= 106
 <May09-2019> <16:32:12>  >>>> PTBAS
 <May09-2019> <16:32:12>  >>>> CYCLE
 <May09-2019> <16:32:12>              |Error|         MaxErr       Wt(A-DIIS)
 <May09-2019> <16:32:12>      1      0.00000000      0.00000000
 <May09-2019> <16:32:12>      2    133.90378859     33.00263884    100.0
 <May09-2019> <16:32:12>      3     49.62914370     17.59518881    100.0
 <May09-2019> <16:32:12>      4      9.09209484      2.12485505    100.0
 <May09-2019> <16:32:12>      5     11.70158419      3.98842598    100.0
 <May09-2019> <16:32:12>      6      1.82354005      0.45661929    100.0
 <May09-2019> <16:32:13>      7      1.60769584      0.41584263    100.0
 <May09-2019> <16:32:13>      8      0.06575401      0.01946729     18.7
 <May09-2019> <16:32:13>      9      0.02601319      0.00809116      7.2
 <May09-2019> <16:32:13>     10      0.00046367      0.00010037      0.0
 <May09-2019> <16:32:13>     11      0.00001086      0.00000278      0.0
 <May09-2019> <16:32:13>     12      0.00000025      0.00000006      0.0
 <May09-2019> <16:32:13>     13      0.00000001      0.00000000      0.0
 <May09-2019> <16:32:13>  SCF converged
 <May09-2019> <16:32:13>     14      0.00000000      0.00000000      0.0
 <May09-2019> <16:32:13>  >>>> POPAN
 <May09-2019> <16:32:13>  >>>> DEBYE
 <May09-2019> <16:32:13>  NORMAL TERMINATION
 <May09-2019> <16:32:13>  END

Create Cl   file=TZ2P-Cl
XC
  GGA blyp
  DISPERSION Grimme3 BJDAMP
End
End Input

 *******************************************************************************
 *                                                                             *
 *  -------------------------------------                                      *
 *   Amsterdam Density Functional  (ADF)         2017                          *
 *  -------------------------------------                                      *
 *                                               r58813 2017-04-12             *
 *                                                                             *
 *                                                                             *
 *                              =================                              *
 *                              |               |                              *
 *                              |     A D F     |                              *
 *                              |               |                              *
 *                              =================                              *
 *                                                                             *
 *                                                                             *
 *   Online information and documentation:  https://www.scm.com/support/       *
 *   E-mail:  support@scm.com   info@scm.com                                   *
 *                                                                             *
 *   Scientific publications using ADF results must be properly referenced     *
 *   See the User Manuals (or the web site) for recommended citations          *
 *   The terms and conditions of the End User License Agreement apply to       *
 *   the use of ADF, https://www.scm.com/license-terms/                        *
 *                                                                             *
 **********************  x86_64_linux_intel / intelmpi  ************************
 
 Licensed to: VU/FEW (+ SARA) / ALGEMEEN / Amsterdam / THE NETHERLANDS
 SCM User ID: u7668
  
 ADF 2017  RunTime: May09-2019 16:32:13  Nodes: 1  Procs: 1

 Temporary files are created in /local/datastore0/tcst25/189662/kid_0.cZWhDY

 Chlorine (TZ2P)



 ===========================
 A T T A C H E D   F I L E S
 ===========================
  
 CREATE - Data File:    TZ2P-Cl
                        Chlorine (TZ2P)



 ===============================
 M O D E L   P A R A M E T E R S
 ===============================
  
 DENSITY FUNCTIONAL POTENTIAL (scf)
    LDA:                               Exchange only                           == Not Default ==
    Gradient Corrections:              Becke88 LYP                             == Not Default ==

 SPIN  (restricted / unrestr.)
    Molecule:                          Restricted                               

 OTHER ASPECTS
    Relativistic Corrections:          ---                                      

    Nuclear Charge Density Model:      Point Charge Nuclei                      
    Core Treatment:                    Frozen Orbital(s)                        

    Hyperfine or Zeeman Interaction:   ---                                      

 Settings for Grimme 3 dispersion correction

      damping                        BJ
      s6                          1.000
      a1                          0.430
      s8                          2.700
      a2                          4.236

 Other (technical) parameters

      alpha                      14.000
      version                         4
 



 =====================================
 S Y M M E T R Y ,   E L E C T R O N S
 =====================================
  
 Symmetry: ATOM

 Irreducible Representations, including subspecies
 -------------------------------------------------
 S
 P:x  P:y  P:z
 D:z2  D:x2-y2  D:xy  D:xz  D:yz
 F:z3  F:z  F:xyz  F:z2x  F:z2y  F:x  F:y


 Configuration of Valence Electrons
 ==================================

          Occupation Numbers
          -------------------------------------------------
 S        3*2
 P        6 5
 D        0
 F        0
          -------------------------------------------------

 Total:   17

 Net Charge: 0 (Nuclei minus Electrons)

 Preset values for MO occupations will be applied through SCF cycle no. 1000000
 Thereafter, the program will assign electrons to MOs that are spatially
 similar to the occupied MOs in a "reference" cycle ("KeepOrbitals").
 The reference cycle is always the PREVIOUS cycle: it will evolve with
 the SCF procedure.



 ================================
 (Slater-type)  F U N C T I O N S  ***  (Basis and Fit)  ***
 ================================
  

 Atom Type    1  (Cl)
 ==============

 Valence Basis Sets:  14
 -----------------------
   1 S   20.300000
   1 S   15.250000
   2 S    6.250000
   2 S    4.450000
   2 P    8.850000
   2 P    5.050000
   3 S    3.450000
   3 S    2.300000
   3 S    1.600000
   3 P    3.350000
   3 P    2.050000
   3 P    1.200000
   3 D    2.000000
   4 F    2.000000


 BAS: List of all Elementary Cartesian Basis Functions
 =====================================================

 The numbering in the list below (to the right of the function characteristics) is referred
 to in print-outs of MO eigenvectors and Mulliken populations in the BAS representation
 (as contrasted to the SFO representation).

 Notes:
 1. The functions are characterized by a polynomial prefactor (powers of x,y,z and r) and
    an exponential decay factor alpha.
 2. Since the basis sets are specific for an atom TYPE, the individual functions occur on
    all atoms of that type.
 3. The word 'Core' in the left margin signals that it is a Core Function (CF) : not a
    degree of freedom in the valence set, but only used to ensure orthogonalization of
    the other valence basis functions on the frozen Core Orbitals.


 (power of) X  Y  Z  R     Alpha  on Atom
            ==========     =====     ==========

 Cl                                   1
                                  ---------------------------------------------------------------------------
            0  0  0  0    20.300      1
            0  0  0  0    15.250      2
            0  0  0  1     6.250      3
            0  0  0  1     4.450      4
            1  0  0  0     8.850      5
            0  1  0  0     8.850      6
            0  0  1  0     8.850      7
            1  0  0  0     5.050      8
            0  1  0  0     5.050      9
            0  0  1  0     5.050     10
            0  0  0  2     3.450     11
            0  0  0  2     2.300     12
            0  0  0  2     1.600     13
            1  0  0  1     3.350     14
            0  1  0  1     3.350     15
            0  0  1  1     3.350     16
            1  0  0  1     2.050     17
            0  1  0  1     2.050     18
            0  0  1  1     2.050     19
            1  0  0  1     1.200     20
            0  1  0  1     1.200     21
            0  0  1  1     1.200     22
            2  0  0  0     2.000     23
            1  1  0  0     2.000     24
            1  0  1  0     2.000     25
            0  2  0  0     2.000     26
            0  1  1  0     2.000     27
            0  0  2  0     2.000     28
            3  0  0  0     2.000     29
            2  1  0  0     2.000     30
            2  0  1  0     2.000     31
            1  2  0  0     2.000     32
            1  1  1  0     2.000     33
            1  0  2  0     2.000     34
            0  3  0  0     2.000     35
            0  2  1  0     2.000     36
            0  1  2  0     2.000     37
            0  0  3  0     2.000     38

 Total number of charge fitting functions (nprimf)       106
 Total number of Cartesian basis functions (naos)         38
 Total number of Cartesian core functions  (ncos)          0



 BAS: List of all Elementary Cartesian Basis Functions
 =====================================================

 The numbering in the list below (to the right of the function characteristics) is referred
 to in print-outs of MO eigenvectors and Mulliken populations in the BAS representation
 (as contrasted to the SFO representation).

 Notes:
 1. The functions are characterized by a polynomial prefactor (powers of x,y,z and r) and
    an exponential decay factor alpha.
 2. Since the basis sets are specific for an atom TYPE, the individual functions occur on
    all atoms of that type.
 3. The word 'Core' in the left margin signals that it is a Core Function (CF) : not a
    degree of freedom in the valence set, but only used to ensure orthogonalization of
    the other valence basis functions on the frozen Core Orbitals.


 (power of) X  Y  Z  R     Alpha  on Atom
            ==========     =====     ==========

 Cl                                   1
                                  ---------------------------------------------------------------------------
            0  0  0  0    20.300      1
            0  0  0  0    15.250      2
            0  0  0  1     6.250      3
            0  0  0  1     4.450      4
            1  0  0  0     8.850      5
            0  1  0  0     8.850      6
            0  0  1  0     8.850      7
            1  0  0  0     5.050      8
            0  1  0  0     5.050      9
            0  0  1  0     5.050     10
            0  0  0  2     3.450     11
            0  0  0  2     2.300     12
            0  0  0  2     1.600     13
            1  0  0  1     3.350     14
            0  1  0  1     3.350     15
            0  0  1  1     3.350     16
            1  0  0  1     2.050     17
            0  1  0  1     2.050     18
            0  0  1  1     2.050     19
            1  0  0  1     1.200     20
            0  1  0  1     1.200     21
            0  0  1  1     1.200     22
            2  0  0  0     2.000     23
            1  1  0  0     2.000     24
            1  0  1  0     2.000     25
            0  2  0  0     2.000     26
            0  1  1  0     2.000     27
            0  0  2  0     2.000     28
            3  0  0  0     2.000     29
            2  1  0  0     2.000     30
            2  0  1  0     2.000     31
            1  2  0  0     2.000     32
            1  1  1  0     2.000     33
            1  0  2  0     2.000     34
            0  3  0  0     2.000     35
            0  2  1  0     2.000     36
            0  1  2  0     2.000     37
            0  0  3  0     2.000     38
1
 ***************************************************************************************************



                                              ***********************
                                              *  T E C H N I C A L  *
                                              ***********************
  



 =============================================================
 P A R A L L E L I Z A T I O N  and  V E C T O R I Z A T I O N
 =============================================================
  
 Nr of parallel processes:                                1
 Maximum vector length in NumInt loops:                 128

 IO buffersize (Mb):                                     64.000000



 =====================
 S C F   U P D A T E S
 =====================
  
 Max. nr. of cycles:                               300
 Convergence criterion:                              0.0000000100
   secondary criterion:                              0.0000000100

 Mix parameter (when DIIS does not apply):           0.2000000000
 Special mix parameter for the first cycle:          1.0000000000
 Mixed ADIIS+DIIS will be used
    Max number of expansion vectors:                10
    Pure ADIIS when Max([F,P]) is above              0.1000000000
    Pure DIIS when Max([F,P]) is below               0.0010000000
 Automatic ElectronSmearing (in case of problematic SCF convergence) disabled



 =================
 P R E C I S I O N  ***  (General: NumInt, NeglectFunctionTails, ...)  ***
 =================
  

 NumInt:           Target precision:                12.0000000000
 -------           Initial precision:               10.0000000000
                   Min. precision (optimization):   10.0000000000

 Neglect Functions:          Basis functions:        0.1000000000E-13
 ------------------          Fit functions:          0.1000000000E-13



 ===========================
 L I N E A R   S C A L I N G
 ===========================
  

 Cut-off radii density fit:                        0.1000000000E-97
 Overlap cut-off criterion AO matrix elements:     0.1000000000E-97
 Cut-offs for Coulomb potential and fitted density:0.1000000000E-97
 Cut-off criterion for Coulomb multipole terms:    0.1000000000E-97
 Progressive Convergence parameter:                 0.000000000    
1
 ***************************************************************************************************



                                            ***************************
                                            *  C O M P U T A T I O N  *
                                            ***************************
  

 Number of elements of the density matrix on this node (used, total):       741       741



 ===========================================
 Numerical Integration : Fuzzy Cells (Becke)
 ===========================================
  
 Becke grid quality: VERYGOOD       
  
 Lebedev angular grid order:             min:  13 max:  41
 Nr. of radial points:                   min:  93 max:  93

 Total nr. of points:         93
 Nr. of blocks:                1
 Block length:                93
 Nr. of dummy points:          0


 Test of Precision of the Numerical Integration Grid
 ===================================================

 Integral of the Total Core Density:                   0.00000000000000



 ========================
 Density Fitting (zlmFit)
 ========================
  
 ZlmFit Fit Quality: VERYGOOD       
  
 Max L-expansion:                        min:   0 max:   0
 Nr. of radial interpolation points:     min: 200 max: 200



 =====
 S C F  ***  ScaSCF  ***
 =====
  

 CYCLE    1
 SCF Error: norm([F,P])=      0.000000000000, max([F,P])=      0.000000000000
 orbitals (Q,E):
 ---------------
 S :1...7            ( 2.00  -144.4893)  ( 2.00   -36.0966)  ( 2.00   -16.0338)  ( 0.00    -8.9253)
                     ( 0.00    -5.5262)  ( 0.00    -3.6296)  ( 0.00   175.9783)
 P :1...5            ( 6.00   -36.1179)  ( 5.00   -15.7666)  ( 0.00    -8.4199)  ( 0.00    -4.8064)
                     ( 0.00    -2.9092)
 D :1...1            ( 0.00    -9.3333)
 F :1...1            ( 0.00    -6.5000)

 CYCLE    2
  SDIIS (wt  0.000):  1.0000  0.0000
 A-DIIS (wt  1.000):  0.0000  1.0000
  DIIS coefficients:  0.0000  1.0000
 SCF Error: norm([F,P])=     37.918093115371, max([F,P])=     10.754162001971
 orbitals (Q,E):
 ---------------
 S :1...4            ( 2.00   -86.3665)  ( 2.00    -3.0042)  ( 2.00     0.0879)  ( 0.00     0.9074)
 P :1...3            ( 6.00    -0.5941)  ( 5.00     0.2005)  ( 0.00     1.0624)
 D :1...1            ( 0.00     1.3908)
 F :1...1            ( 0.00     1.7118)

 CYCLE    3
  SDIIS (wt  0.000):  0.2468  0.7532
 A-DIIS (wt  1.000):  0.2184  0.7816
  DIIS coefficients:  0.2184  0.7816
 SCF Error: norm([F,P])=     20.757708249348, max([F,P])=      6.871796656039
 orbitals (Q,E):
 ---------------
 S :1...4            ( 2.00  -105.5772)  ( 2.00   -12.2185)  ( 2.00    -1.9200)  ( 0.00    -0.1982)
 P :1...3            ( 6.00   -10.2793)  ( 5.00    -1.3974)  ( 0.00    -0.0873)
 D :1...1            ( 0.00    -0.4679)
 F :1...1            ( 0.00     0.6062)

 CYCLE    4
  SDIIS (wt  0.000): -0.0788  0.1328  0.9460
 A-DIIS (wt  1.000):  0.0000  0.0000  1.0000
  DIIS coefficients:  0.0000  0.0000  1.0000
 SCF Error: norm([F,P])=      6.021405452047, max([F,P])=      2.061487593708
 orbitals (Q,E):
 ---------------
 S :1...4            ( 2.00   -97.6728)  ( 2.00    -7.4155)  ( 2.00    -0.2425)  ( 0.00     0.4293)
 P :1...3            ( 6.00    -5.1248)  ( 5.00     0.0322)  ( 0.00     0.5151)
 D :1...1            ( 0.00     0.8498)
 F :1...1            ( 0.00     1.4674)

 CYCLE    5
  SDIIS (wt  0.000): -0.0198 -0.0624  0.3895  0.6927
 A-DIIS (wt  1.000):  0.0000  0.0000  0.4691  0.5309
  DIIS coefficients:  0.0000  0.0000  0.4691  0.5309
 SCF Error: norm([F,P])=      4.122826282833, max([F,P])=      1.762338952725
 orbitals (Q,E):
 ---------------
 S :1...4            ( 2.00  -100.7640)  ( 2.00    -9.3467)  ( 2.00    -0.9097)  ( 0.00     0.1217)
 P :1...3            ( 6.00    -7.1584)  ( 5.00    -0.4570)  ( 0.00     0.1672)
 D :1...1            ( 0.00     0.2335)
 F :1...1            ( 0.00     1.0657)

 CYCLE    6
  SDIIS (wt  0.000): -0.0001 -0.0138  0.0424  0.0981  0.8734
 A-DIIS (wt  1.000):  0.0000  0.0000  0.0000  0.0000  1.0000
  DIIS coefficients:  0.0000  0.0000  0.0000  0.0000  1.0000
 SCF Error: norm([F,P])=      0.297134459880, max([F,P])=      0.111907135573
 orbitals (Q,E):
 ---------------
 S :1...4            ( 2.00  -100.6199)  ( 2.00    -9.0705)  ( 2.00    -0.6673)  ( 0.00     0.2275)
 P :1...3            ( 6.00    -6.8928)  ( 5.00    -0.2439)  ( 0.00     0.2570)
 D :1...1            ( 0.00     0.4575)
 F :1...1            ( 0.00     1.2382)

 CYCLE    7
  SDIIS (wt  0.000): -0.0002  0.0003  0.0119 -0.0199  0.3831  0.6249
 A-DIIS (wt  1.000):  0.0000  0.0000  0.0000  0.0000  0.4431  0.5569
  DIIS coefficients:  0.0000  0.0000  0.0000  0.0000  0.4431  0.5569
 SCF Error: norm([F,P])=      0.268270877863, max([F,P])=      0.112251171075
 orbitals (Q,E):
 ---------------
 S :1...4            ( 2.00  -100.8158)  ( 2.00    -9.2442)  ( 2.00    -0.7560)  ( 0.00     0.1940)
 P :1...3            ( 6.00    -7.0691)  ( 5.00    -0.3171)  ( 0.00     0.2236)
 D :1...1            ( 0.00     0.3804)
 F :1...1            ( 0.00     1.1860)

 CYCLE    8
  SDIIS (wt  0.746):  0.0001 -0.0001 -0.0028  0.0035  0.0906  0.1300  0.7787
 A-DIIS (wt  0.254):  0.0000  0.0000  0.0000  0.0000  0.0000  0.0000  1.0000
  DIIS coefficients:  0.0000 -0.0001 -0.0021  0.0026  0.0676  0.0969  0.8350
 SCF Error: norm([F,P])=      0.071559445742, max([F,P])=      0.026187079052
 orbitals (Q,E):
 ---------------
 S :1...4            ( 2.00  -100.7523)  ( 2.00    -9.2108)  ( 2.00    -0.7461)  ( 0.00     0.1973)
 P :1...3            ( 6.00    -7.0328)  ( 5.00    -0.3089)  ( 0.00     0.2267)
 D :1...1            ( 0.00     0.3881)
 F :1...1            ( 0.00     1.1908)

 CYCLE    9
  SDIIS (wt  0.957):  0.0000 -0.0000 -0.0001  0.0003  0.0037 -0.0063  0.1578  0.8445
 A-DIIS (wt  0.043):  0.0000  0.0000  0.0000  0.0000  0.0000  0.0000  0.0000  1.0000
  DIIS coefficients:  0.0000 -0.0000 -0.0001  0.0003  0.0036 -0.0060  0.1511  0.8511
 SCF Error: norm([F,P])=      0.013066268530, max([F,P])=      0.005220141314
 orbitals (Q,E):
 ---------------
 S :1...4            ( 2.00  -100.7623)  ( 2.00    -9.2169)  ( 2.00    -0.7484)  ( 0.00     0.1965)
 P :1...3            ( 6.00    -7.0393)  ( 5.00    -0.3108)  ( 0.00     0.2259)
 D :1...1            ( 0.00     0.3862)
 F :1...1            ( 0.00     1.1896)

 CYCLE   10
  SDIIS (wt  1.000):  0.0000  0.0000 -0.0000 -0.0000  0.0002  0.0011 -0.0030  0.0039  0.9977
  DIIS coefficients:  0.0000  0.0000 -0.0000 -0.0000  0.0002  0.0011 -0.0030  0.0039  0.9977
 SCF Error: norm([F,P])=      0.000485727204, max([F,P])=      0.000202934401
 orbitals (Q,E):
 ---------------
 S :1...4            ( 2.00  -100.7620)  ( 2.00    -9.2166)  ( 2.00    -0.7483)  ( 0.00     0.1965)
 P :1...3            ( 6.00    -7.0390)  ( 5.00    -0.3107)  ( 0.00     0.2259)
 D :1...1            ( 0.00     0.3863)
 F :1...1            ( 0.00     1.1896)

 CYCLE   11
  SDIIS (wt  1.000):  0.0000  0.0000  0.0000  0.0000 -0.0002 -0.0009  0.0045  0.9965
  DIIS coefficients:  0.0000  0.0000  0.0000  0.0000 -0.0002 -0.0009  0.0045  0.9965
 SCF Error: norm([F,P])=      0.000002451023, max([F,P])=      0.000000874872
 orbitals (Q,E):
 ---------------
 S :1...4            ( 2.00  -100.7620)  ( 2.00    -9.2166)  ( 2.00    -0.7483)  ( 0.00     0.1965)
 P :1...3            ( 6.00    -7.0390)  ( 5.00    -0.3107)  ( 0.00     0.2259)
 D :1...1            ( 0.00     0.3863)
 F :1...1            ( 0.00     1.1896)

 CYCLE   12
  SDIIS (wt  1.000):  0.0000  0.0000 -0.0000 -0.0000  0.0001  0.0049  0.9950
  DIIS coefficients:  0.0000  0.0000 -0.0000 -0.0000  0.0001  0.0049  0.9950
 SCF Error: norm([F,P])=      0.000000029116, max([F,P])=      0.000000011194
 orbitals (Q,E):
 ---------------
 S :1...4            ( 2.00  -100.7620)  ( 2.00    -9.2166)  ( 2.00    -0.7483)  ( 0.00     0.1965)
 P :1...3            ( 6.00    -7.0390)  ( 5.00    -0.3107)  ( 0.00     0.2259)
 D :1...1            ( 0.00     0.3863)
 F :1...1            ( 0.00     1.1896)

 CYCLE   13
  SDIIS (wt  1.000):  0.0000 -0.0004  0.0111  0.9893
  DIIS coefficients:  0.0000 -0.0004  0.0111  0.9893
 SCF Error: norm([F,P])=      0.000000001289, max([F,P])=      0.000000000494
 orbitals (Q,E):
 ---------------
 S :1...4            ( 2.00  -100.7620)  ( 2.00    -9.2166)  ( 2.00    -0.7483)  ( 0.00     0.1965)
 P :1...3            ( 6.00    -7.0390)  ( 5.00    -0.3107)  ( 0.00     0.2259)
 D :1...1            ( 0.00     0.3863)
 F :1...1            ( 0.00     1.1896)

 SCF CONVERGED

 CYCLE   14
1
 ***************************************************************************************************



                                                *******************
                                                *  R E S U L T S  *
                                                *******************
  
 *** Setting up for NEW gradients in Focky
 *** Using FIT density in Focky

 Orbital Energies, per Irrep and Spin:
 ======================================
                        Occup              E (au)              E (eV)       Diff (eV) with prev. cycle
                        -----      --------------------        ------       --------------------------
 S
               1        2.000     -0.10076196025470E+03     -2741.872               4.81E-10
               2        2.000     -0.92166234791376E+01      -250.797               4.97E-10
               3        2.000     -0.74829309878317E+00       -20.362               4.14E-10
               4        0.000      0.19650378945434E+00         5.347
               5        0.000      0.20105214794378E+01        54.709
               6        0.000      0.12737820956868E+02       346.614
               7        0.000      0.21467502602049E+03      5841.605
 P
               1        6.000     -0.70390087591571E+01      -191.541               4.91E-10
               2        5.000     -0.31074821072058E+00        -8.456               3.59E-10
               3        0.000      0.22590803353600E+00         6.147
               4        0.000      0.21023976914888E+01        57.209
               5        0.000      0.18828233069566E+02       512.342
 D
               1        0.000      0.38627333037826E+00        10.511
 F
               1        0.000      0.11896264283968E+01        32.371


 Partially Occupied:
               2 P                -0.31074821072058E+00
  
 HOMO :        3 S                -0.74829309878317E+00
 LUMO :        4 S                 0.19650378945434E+00
  


 Orbital Energies, all Irreps
 ========================================

 Irrep        no.  (spin)   Occup              E (au)                E (eV)
 ---------------------------------------------------------------------------
 S             1             2.00       -0.10076196025470E+03     -2741.8724
 S             2             2.00       -0.92166234791376E+01      -250.7971
 P             1             6.00       -0.70390087591571E+01      -191.5412
 S             3             2.00       -0.74829309878317E+00       -20.3621
 P             2             5.00       -0.31074821072058E+00        -8.4559
 S             4             0.00        0.19650378945434E+00         5.3471
 P             3             0.00        0.22590803353600E+00         6.1473
 D             1             0.00        0.38627333037826E+00        10.5110
 F             1             0.00        0.11896264283968E+01        32.3714
 S             5             0.00        0.20105214794378E+01        54.7091
 P             4             0.00        0.21023976914888E+01        57.2092
 S             6             0.00        0.12737820956868E+02       346.6137
 P             5             0.00        0.18828233069566E+02       512.3423
 S             7             0.00        0.21467502602049E+03      5841.6047


 All Electron Calculation, thus no Orbital Energies of the Core Orbitals are calculated



 =======================================
 M U L L I K E N   P O P U L A T I O N S
 =======================================
  
 The survey below gives for each atom:
 a) the total charge (Z minus electrons)
 b) the net spin polarization (nr of electrons spin-A minus spin-B)
 c) for each spin the atomic electron valence density (integrated) per L-value.

 Atom              Charge    Spin density          S         P         D         F
 ----              ------    ------------       ------    ------    ------    ------
 1 Cl              0.0000                       6.0000   11.0000    0.0000    0.0000

 Populations of individual BAS functions
 ----------------------------------------
 1 Cl           0.5041  1.4544  1.7124  0.2493  0.7286  0.7286  0.7286  1.2681  1.2681  1.2681
                0.6256  1.0927  0.3615  0.2681  0.2681  0.2681  1.0016  1.0016  1.0016  0.4002
                0.4002  0.4002  0.0000  0.0000  0.0000  0.0000  0.0000  0.0000  0.0000  0.0000
                0.0000  0.0000  0.0000  0.0000  0.0000  0.0000  0.0000  0.0000

 Gross Charges per Atom (Z minus electrons)
 ==========================================
             0.0000
 Net Total:  0.00000000



 =======================================================================
 Electrostatic potential at the Nuclei due to electrons and other nuclei
 =======================================================================
  
         Atom                  Potential
         ----                  ---------
     1)   Cl                 64.38336388
 
 
 ========================
 No memory problems found
 ========================
 
 Maximum number of active allocate calls:         447
 
 *******************************************************************************

                             A D F   E X I T
 NORMAL TERMINATION



 =================
 Timing Statistics
 =================
  
 Total Used :                     CPU=        0.95      System=        0.04     Elapsed=        0.99

 Calls  Section                     ( Mean, Percentage )
 ---------------------------------------------------------------------------------------------------
     3  ><      ................      0.00    0.11             0.00    0.00             0.00    0.08
     1  INIT    ................      0.01    1.58             0.02   46.15             0.04    3.54
     1  GEOMET  ................      0.01    1.37             0.00    0.00             0.01    1.35
     1  INPUTA  ................      0.00    0.21             0.00    2.56             0.00    0.32
     1  MAINSY  ................      0.01    0.63             0.00    5.13             0.01    0.80
     1  SYMFIT  ................      0.00    0.00             0.00    2.56             0.00    0.12
     1  CORORT  ................      0.00    0.11             0.00    0.00             0.00    0.04
     1  SYMORB  ................      0.00    0.00             0.00    2.56             0.00    0.16
     1  CLSMAT  ................      0.01    0.95             0.00    0.00             0.01    0.92
     1  ORTHON  ................      0.00    0.21             0.00    2.56             0.00    0.30
     1  GENPT   ................      0.03    2.74             0.00    2.56             0.03    2.66
     1  PTBAS   ................      0.01    0.63             0.00    0.00             0.01    0.63
    14  FOCKY   ................      0.05   77.47             0.00   15.38             0.05   74.95
    14  FOCKTR  ................      0.00    2.00             0.00    5.13             0.00    1.99
    14  SDIIS   ................      0.00    3.68             0.00   10.26             0.00    3.86
     1  COREPS  ................      0.04    4.42             0.00    0.00             0.04    4.23
     1  POPAN   ................      0.01    0.95             0.00    0.00             0.01    0.93
     1  DEBYE   ................      0.00    0.11             0.00    0.00             0.00    0.10
     1  EXIT PROCEDURE .........      0.03    2.84             0.00    5.13             0.03    3.00


 Currently Open Files (EXIT00)
 ====================

 Unit    Access Format  Status   Type       Ident (file)
 -------------------------------------------------------
   3      SEQ    FORM   TRANSP  NORMAL      LOGFILE
                                          ( logfile )


 Buffered I/O statistics
 =======================
 Memory available:                     67108864
 Number of records fitting in memory:     16131
 Input :   0.1% of                        29179  *4k bytes
 Output:  12.9% of                         1455  *4k bytes
 Records from serial files evicted:           0
                    others evicted:           0
 Hash table lookups:      75511 with          0 conflicts (  0.00%)

 ***************************************************************************************************
 (LOGFILE)
 <May09-2019> <16:32:12>  ADF 2017  RunTime: May09-2019 16:32:12  Nodes: 1  Procs: 1
 <May09-2019> <16:32:12>  Bromine (TZ2P)
 <May09-2019> <16:32:12>  RunType   : CREATE
 <May09-2019> <16:32:12>  Net Charge: 0 (Nuclei minus Electrons)
 <May09-2019> <16:32:12>  Symmetry  : ATOM
  Coordinates
    Atom         X           Y           Z   (Angstrom)
    1.Br        0.000000    0.000000    0.000000
 <May09-2019> <16:32:12>  >>>> CORORT
 <May09-2019> <16:32:12>  >>>> CLSMAT
 <May09-2019> <16:32:12>  >>>> ORTHON
 <May09-2019> <16:32:12>  >>>> GENPT
 <May09-2019> <16:32:12>  Block Length= 106
 <May09-2019> <16:32:12>  >>>> PTBAS
 <May09-2019> <16:32:12>  >>>> CYCLE
 <May09-2019> <16:32:12>              |Error|         MaxErr       Wt(A-DIIS)
 <May09-2019> <16:32:12>      1      0.00000000      0.00000000
 <May09-2019> <16:32:12>      2    133.90378859     33.00263884    100.0
 <May09-2019> <16:32:12>      3     49.62914370     17.59518881    100.0
 <May09-2019> <16:32:12>      4      9.09209484      2.12485505    100.0
 <May09-2019> <16:32:12>      5     11.70158419      3.98842598    100.0
 <May09-2019> <16:32:12>      6      1.82354005      0.45661929    100.0
 <May09-2019> <16:32:13>      7      1.60769584      0.41584263    100.0
 <May09-2019> <16:32:13>      8      0.06575401      0.01946729     18.7
 <May09-2019> <16:32:13>      9      0.02601319      0.00809116      7.2
 <May09-2019> <16:32:13>     10      0.00046367      0.00010037      0.0
 <May09-2019> <16:32:13>     11      0.00001086      0.00000278      0.0
 <May09-2019> <16:32:13>     12      0.00000025      0.00000006      0.0
 <May09-2019> <16:32:13>     13      0.00000001      0.00000000      0.0
 <May09-2019> <16:32:13>  SCF converged
 <May09-2019> <16:32:13>     14      0.00000000      0.00000000      0.0
 <May09-2019> <16:32:13>  >>>> POPAN
 <May09-2019> <16:32:13>  >>>> DEBYE
 <May09-2019> <16:32:13>  NORMAL TERMINATION
 <May09-2019> <16:32:13>  END
 <May09-2019> <16:32:13>  ADF 2017  RunTime: May09-2019 16:32:13  Nodes: 1  Procs: 1
 <May09-2019> <16:32:13>  Chlorine (TZ2P)
 <May09-2019> <16:32:13>  RunType   : CREATE
 <May09-2019> <16:32:13>  Net Charge: 0 (Nuclei minus Electrons)
 <May09-2019> <16:32:13>  Symmetry  : ATOM
  Coordinates
    Atom         X           Y           Z   (Angstrom)
    1.Cl        0.000000    0.000000    0.000000
 <May09-2019> <16:32:13>  >>>> CORORT
 <May09-2019> <16:32:13>  >>>> CLSMAT
 <May09-2019> <16:32:13>  >>>> ORTHON
 <May09-2019> <16:32:13>  >>>> GENPT
 <May09-2019> <16:32:13>  Block Length=  93
 <May09-2019> <16:32:13>  >>>> PTBAS
 <May09-2019> <16:32:13>  >>>> CYCLE
 <May09-2019> <16:32:14>              |Error|         MaxErr       Wt(A-DIIS)
 <May09-2019> <16:32:14>      1      0.00000000      0.00000000
 <May09-2019> <16:32:14>      2     37.91809312     10.75416200    100.0
 <May09-2019> <16:32:14>      3     20.75770825      6.87179666    100.0
 <May09-2019> <16:32:14>      4      6.02140545      2.06148759    100.0
 <May09-2019> <16:32:14>      5      4.12282628      1.76233895    100.0
 <May09-2019> <16:32:14>      6      0.29713446      0.11190714    100.0
 <May09-2019> <16:32:14>      7      0.26827088      0.11225117    100.0
 <May09-2019> <16:32:14>      8      0.07155945      0.02618708     25.4
 <May09-2019> <16:32:14>      9      0.01306627      0.00522014      4.3
 <May09-2019> <16:32:14>     10      0.00048573      0.00020293      0.0
 <May09-2019> <16:32:14>     11      0.00000245      0.00000087      0.0
 <May09-2019> <16:32:14>     12      0.00000003      0.00000001      0.0
 <May09-2019> <16:32:14>     13      0.00000000      0.00000000      0.0
 <May09-2019> <16:32:14>  SCF converged
 <May09-2019> <16:32:14>     14      0.00000000      0.00000000      0.0
 <May09-2019> <16:32:14>  >>>> POPAN
 <May09-2019> <16:32:14>  >>>> DEBYE
 <May09-2019> <16:32:14>  NORMAL TERMINATION
 <May09-2019> <16:32:14>  END


 Parallel Execution: Process Information
 ==============================================================================
 Rank   Node Name                              NodeID   MyNodeRank  NodeMaster
    0   BAZIS-cn025                               0          0          0
    1   BAZIS-cn025                               0          1         -1
    2   BAZIS-cn025                               0          2         -1
    3   BAZIS-cn025                               0          3         -1
    4   BAZIS-cn025                               0          4         -1
    5   BAZIS-cn025                               0          5         -1
    6   BAZIS-cn025                               0          6         -1
    7   BAZIS-cn025                               0          7         -1
    8   BAZIS-cn025                               0          8         -1
    9   BAZIS-cn025                               0          9         -1
   10   BAZIS-cn025                               0         10         -1
   11   BAZIS-cn025                               0         11         -1
 ==============================================================================


May use up to 30771MB of RAM as shared memory on node 0


XC
  GGA blyp
  DISPERSION Grimme3 BJDAMP
END

SCF
  iterations 250
END

SYMMETRY nosym
CHARGE 0

ZLMFIT
  Quality normal
END

BECKEGRID
  Quality good
End

ATOMS
    1.Cl       -4.925760    3.099436   -0.044824
    2.Br       -3.717238    0.865333    0.205929
END

Fragments
Br t21.Br
Cl t21.Cl
End
end input

 *******************************************************************************
 *                                                                             *
 *  -------------------------------------                                      *
 *   Amsterdam Density Functional  (ADF)         2017                          *
 *  -------------------------------------                                      *
 *                                               r58813 2017-04-12             *
 *                                                                             *
 *                                                                             *
 *                              =================                              *
 *                              |               |                              *
 *                              |     A D F     |                              *
 *                              |               |                              *
 *                              =================                              *
 *                                                                             *
 *                                                                             *
 *   Online information and documentation:  https://www.scm.com/support/       *
 *   E-mail:  support@scm.com   info@scm.com                                   *
 *                                                                             *
 *   Scientific publications using ADF results must be properly referenced     *
 *   See the User Manuals (or the web site) for recommended citations          *
 *   The terms and conditions of the End User License Agreement apply to       *
 *   the use of ADF, https://www.scm.com/license-terms/                        *
 *                                                                             *
 **********************  x86_64_linux_intel / intelmpi  ************************
 
 Licensed to: VU/FEW (+ SARA) / ALGEMEEN / Amsterdam / THE NETHERLANDS
 SCM User ID: u7668
  
 ADF 2017  RunTime: May09-2019 16:32:14  Nodes: 1  Procs: 12

 Temporary files are created in /local/datastore0/tcst25/189662/kid_0.wQKLOk


Communication costs MPI_COMM_WORLD:      3.891 usec per message,   0.0176 usec per 8-byte item
Communication costs for intra-node:      3.876 usec per message,   0.0175 usec per 8-byte item

 *** (NO TITLE) ***



 ===========================
 A T T A C H E D   F I L E S
 ===========================
  



 ===============================
 M O D E L   P A R A M E T E R S
 ===============================
  
 DENSITY FUNCTIONAL POTENTIAL (scf)
    LDA:                               Exchange only                           == Not Default ==
    Gradient Corrections:              Becke88 LYP                             == Not Default ==

 SPIN  (restricted / unrestr.)
    Molecule:                          Restricted                               
    Fragments:                         Restricted                               

 OTHER ASPECTS
    Relativistic Corrections:          ---                                      

    Nuclear Charge Density Model:      Point Charge Nuclei                      
    Core Treatment:                    Frozen Orbital(s)                        

    Hyperfine or Zeeman Interaction:   ---                                      

 Settings for Grimme 3 dispersion correction

      damping                        BJ
      s6                          1.000
      a1                          0.430
      s8                          2.700
      a2                          4.236

 Other (technical) parameters

      alpha                      14.000
      version                         4
 


 Fragment File(s)
 ----------------
 Cl:
         file : t21.Cl
         jobid: ADF 2017  RunTime: May09-2019 16:32:13  Nodes: 1  Procs: 1
         title: Chlorine (TZ2P)
 Br:
         file : t21.Br
         jobid: ADF 2017  RunTime: May09-2019 16:32:12  Nodes: 1  Procs: 1
         title: Bromine (TZ2P)



                                        ************************************
                                        *  R U N   T Y P E : SINGLE POINT  *
                                        ************************************
  



 ===============
 G E O M E T R Y  ***  Linear Molecule  ***
 ===============
  

 ATOMS
 =====                            X Y Z                    CHARGE
                                (Angstrom)             Nucl     +Core       At.Mass
                       --------------------------    ----------------       -------
    1  Cl             -4.9258    3.0994   -0.0448     17.00     17.00       34.9689
    2  Br             -3.7172    0.8653    0.2059     35.00     35.00       78.9183


 FRAGMENTS
 =========                                     Atoms in this Fragment     Cart. coord.s (Angstrom)
                                               -------------------------------------------------------
    1  Cl                                                1  Cl          -4.9258    3.0994   -0.0448
    2  Br                                                2  Br          -3.7172    0.8653    0.2059


 Interatomic Distance Matrix (Angstrom)
 --------------------------------------

   1)     0.000
   2)     2.552   0.000



 =====================================
 S Y M M E T R Y ,   E L E C T R O N S
 =====================================
  
 Symmetry: NOSYM

 Irreducible Representations, including subspecies
 -------------------------------------------------
 A


 Configuration of Valence Electrons
 ==================================
 ( determined in the SCF procedure )

 Total:   52

 Net Charge: 0 (Nuclei minus Electrons)

 Aufbau principle for MO occupations will be applied through SCF cycle no.     125
 Thereafter, the program will assign electrons to MOs that are spatially
 similar to the occupied MOs in a "reference" cycle ("KeepOrbitals").
 The reference cycle is always the PREVIOUS cycle: it will evolve with
 the SCF procedure.
1
 ***************************************************************************************************



                                      ****************************************
                                      *  B U I L D : (Fragments, Functions)  *
                                      ****************************************
  



 =======
 S F O s  ***  (Symmetrized Fragment Orbitals)  ***
 =======
  
 SFOs are linear combinations of (valence) Fragment Orbitals (FOs), such that the SFOs transform as the
 irreducible representations of the (molecular) symmetry group. Each SFO is therefore characterized by
 an irrep of the molecule and by a few (or only one) generating FOs.
 The SFOs constitute a symmetry-adapted basis for the Fock matrix. The MO eigenvector coefficients in
 this basis provide a direct interpretation of the MOs in terms of Frontier Orbital Theory.

 The SFOs are combined with auxiliary Core Functions (CFs) to ensure orthogonalization on the (frozen)
 Core Orbitals (COs). The Core-orthogonalized SFOs (CSFOs) constitute the true Fock basis.

 The FOs, and hence also the (C)SFOs are combinations of the elementary basis functions (BAS). The basis
 functions that participate in the description of the SFOs depend on the irrep. The indices of the
 involved functions are printed below for each irrep.
 (The complete list of primitive basis functions is printed in another section)

 Total nr. of (C)SFOs (summation over all irreps) :    90

 NOTE: a (C)SFO that is defined as a combination of more than one FO is usually NOT normalized.



                                       === A ===
 Nr. of SFOs :   90
 Cartesian basis functions that participate in this irrep (total number =   101) :
      1     2     3     4    11    12    13     5     8    14
     17    20     6     9    15    18    21     7    10    16
     19    22    23    24    25    26    27    28    29    30
     31    32    33    34    35    36    37    38    39    40
     41    48    49    74    75    76    42    45    50    53
     77    80    83    43    46    51    54    78    81    84
     44    47    52    55    79    82    85    56    62    68
     86    57    63    69    87    58    64    70    88    59
     65    71    89    60    66    72    90    61    67    73
     91    92    93    94    95    96    97    98    99   100
    101

    SFO  (index         Fragment          Generating    Expansion in Fragment Orbitals
  indx  incl.CFs)   Occup   Orb.Energy   FragmentType  Coeff.   Orbital     on Fragment
 --------------------------------------------------------------------------------------
     1       1      2.000    -100.762 au  Cl            1.00      1 S               1
                        (   -2741.872 eV)
     2       2      2.000      -9.217 au  Cl            1.00      2 S               1
                        (    -250.797 eV)
     3       3      2.000      -0.748 au  Cl            1.00      3 S               1
                        (     -20.362 eV)
     4       4       --         0.197 au  Cl            1.00      4 S               1
                        (       5.347 eV)
[...]
======================================================================================

  Electrostatic Energy:                 -0.049941192511191         -1.3590           -31.34          -131.12
  Kinetic Energy:                        0.033352869682669          0.9076            20.93            87.57
  Coulomb (Steric+OrbInt) Energy:       -0.017871475836694         -0.4863           -11.21           -46.92
  XC Energy:                            -0.050218670508671         -1.3665           -31.51          -131.85
  Dispersion Energy:                    -0.002759735739824         -0.0751            -1.73            -7.25
                                      --------------------     -----------       ----------      -----------
  Total Bonding Energy:                 -0.087438204913711         -2.3793           -54.87          -229.57


Correction terms (incorporated in energies above; only for test purposes):

1. Indication of fit-quality: 1st-order fit-correction used in the energy (hartree):  -0.0000557066
2. Electrostatic (Fit correction):   0.0000000000



 =========================================
 F R A G M E N T   E N E R G Y   T E R M S  ***  (summed over all fragments)  ***
 =========================================
  

The energy terms below are (parts of) the Total Energy of the fragments from which the molecule
 is built.

Exchange and Correlation
  Exchange LDA:                       -109.911935973001050      -2990.8560        -68970.79       -288573.75
  Exchange GGA:                         -7.192888922639984       -195.7285         -4513.61        -18884.93
  Correlation LDA:                       0.000000000000000          0.0000             0.00             0.00
  Correlation GGA:                      -2.390734314664251        -65.0552         -1500.21         -6276.87
                                      --------------------     -----------       ----------      -----------
  Total XC:                           -119.495559210305288      -3251.6396        -74984.60       -313735.55
1



 =======================================================
 S F O   P O P U L A T I O N S ,   M O   A N A L Y S I S
 =======================================================
  
 A Mulliken population analysis is performed on (input-)selected MOs. All populations refer to SFOs.
 BAS populations may have been printed directly after the SCF part.


                                       === A ===


 SFO contributions (%) per orbital
 (multiplication by the orbital occupation yields the SFO Gross Populations)

 Orb.:       17     18     19     20     21     22     23     24     25     26     27     28     29     30
 occup:     2.00   2.00   2.00   2.00   2.00   2.00   2.00   2.00   2.00   2.00   0.00   0.00   0.00   0.00
 CF+SFO     ----   ----   ----   ----   ----   ----   ----   ----   ----   ----   ----   ----   ----   ----
 ------
      3:    0.00   0.00   0.00  68.61  29.65   1.04   0.00   0.00   0.00   0.00   0.46  -0.52   0.00   0.00
      4:    0.00   0.00   0.00  -0.07  -0.10  -0.21  -0.00   0.00  -0.00   0.00  -0.51  -5.17   0.00  -0.00
      9:    0.00   0.00   0.00   0.14   0.14  11.67  47.84   0.05  28.68   0.61  10.15  -0.19  -0.07  -0.02
     10:    0.00   0.00   0.00  -0.05  -0.05  -0.04  -0.03  -0.00  -0.11  -0.00  -0.18   1.21   1.93   0.59
     14:    0.00   0.00   0.00   0.49   0.47  39.90  13.45   0.98   8.76   0.07  34.68  -0.64  -0.01  -0.01
     15:    0.00   0.00   0.00  -0.16  -0.18  -0.14  -0.01  -0.00  -0.03  -0.00  -0.63   4.12   0.42   0.34
     19:    0.00   0.00   0.00   0.01   0.01   0.50   0.43  60.70   0.32  37.08   0.44  -0.01  -0.03  -0.08
     20:    0.00   0.00   0.00  -0.00  -0.00  -0.00  -0.00  -0.03  -0.00  -0.14  -0.01   0.05   0.90   2.32
     25:    0.00   0.00   0.00   0.09  -0.00   0.15   0.04   0.00   0.03   0.00   0.29   1.05   0.11   0.02
     38:    0.00  -0.00  -0.00  29.10  70.05   0.89  -0.00   0.00  -0.00   0.00   0.51   0.10   0.00   0.00
     39:   -0.00   0.00   0.00   0.02  -0.00  -0.06   0.00  -0.00  -0.00   0.00  -0.16   1.15   0.00  -0.00
     45:    0.00   0.00   0.00   0.28   0.04  10.17  29.19   0.03  47.26   1.01  12.12   0.11   0.00   0.00
     46:    0.00   0.00  -0.00  -0.03  -0.02   0.02  -0.07  -0.00  -0.02  -0.00  -0.09  21.35  57.10  17.45
     52:    0.00   0.00  -0.00   0.94   0.15  34.74   8.21   0.60  14.44   0.11  41.43   0.38   0.00   0.00
     53:    0.00   0.00   0.00  -0.09  -0.09   0.06  -0.02  -0.00  -0.01  -0.00  -0.30  72.97  12.30  10.17
     59:    0.00   0.00   0.00   0.01   0.00   0.44   0.27  37.04   0.52  61.10   0.52   0.00   0.00   0.00
     60:    0.00   0.00   0.00  -0.00  -0.00   0.00  -0.00  -0.09  -0.00  -0.02  -0.00   0.92  26.69  68.47
     64:    2.85   0.00  73.55   0.00   0.00   0.00   0.00   0.00  -0.00  -0.00  -0.00  -0.00  -0.00  -0.00
     68:    1.25   0.68   7.63   0.00   0.00   0.00   0.00   0.00  -0.00  -0.00  -0.00  -0.00  -0.00  -0.00
     72:    0.19   0.28  17.86   0.00   0.00   0.00   0.00   0.00  -0.00  -0.00  -0.00  -0.00  -0.00  -0.00
     76:   22.24  76.60   0.23   0.00   0.00   0.00   0.00   0.00  -0.00  -0.00  -0.00  -0.00  -0.00  -0.00
     80:   73.47  22.44   0.73   0.00   0.00   0.00   0.00   0.00  -0.00  -0.00  -0.00  -0.00  -0.00  -0.00


 Summation over all MOs, multiplied by occupation: Total SFO Gross Populations in this Irrep
 ===========================================================================================

     2.00    2.00    1.99   -0.01    0.00    0.00    0.00    2.00    1.78   -0.01   -0.00   -0.00
     2.00    1.28   -0.01   -0.00    0.00    2.00    1.98   -0.00    0.00   -0.00    0.00    0.01
     0.01    0.00    0.00    0.00    0.00    0.00    0.00    0.00    0.00    0.00    2.00    2.00
     2.00    2.00   -0.00   -0.00    0.00   -0.00    2.00    2.00    1.76   -0.00   -0.00   -0.00
     0.00    2.00    2.00    1.18   -0.00   -0.00   -0.00    0.00    2.00    2.00    1.99   -0.00
     0.00    0.00   -0.00    2.00    0.00   -0.00   -0.00    2.00    0.01   -0.00   -0.00    2.00
     0.01   -0.00   -0.00    2.00    0.00   -0.00   -0.00    2.00    0.01   -0.00   -0.00    0.00
     0.00    0.00    0.00    0.00    0.00    0.00



 List of all MOs, ordered by energy, with the most significant SFO gross populations
 ===================================================================================

 Each percentage contribution in the table below corresponds to the indicated SFO.
 In general, a SFO may be a linear combination of several Fragment Orbitals on the same,
 or on symmetry-related Fragments. Only the first 'member' of such a combination is
 specified here. A full definition of all SFOs is given in an earlier part of the output.
 The numbering of the SFOs in this table does NOT include the Core Orbitals, and starts
 from one for each symmetry representation, as in the SFO definition list earlier.

       E(eV)  Occ       MO           %     SFO (first member)   E(eV)  Occ   Fragment
 -------------------------------------------------------------------------------------

     -20.873  2.00    20 A         68.61%     3 S             -20.362  2.00     1 Cl
                                   29.10%     4 S             -19.222  2.00     2 Br
     -19.323  2.00    21 A         70.05%     4 S             -19.222  2.00     2 Br
                                   29.65%     3 S             -20.362  2.00     1 Cl
     -10.428  2.00    22 A         39.90%     2 P:y            -8.456  1.67     1 Cl
                                   34.74%     3 P:y            -7.755  1.67     2 Br
                                   11.67%     2 P:x            -8.456  1.67     1 Cl
                                   10.17%     3 P:x            -7.755  1.67     2 Br
                                    1.04%     3 S             -20.362  2.00     1 Cl
      -8.606  2.00    23 A         47.84%     2 P:x            -8.456  1.67     1 Cl
                                   29.19%     3 P:x            -7.755  1.67     2 Br
                                   13.45%     2 P:y            -8.456  1.67     1 Cl
                                    8.21%     3 P:y            -7.755  1.67     2 Br
      -8.606  2.00    24 A         60.70%     2 P:z            -8.456  1.67     1 Cl
                                   37.04%     3 P:z            -7.755  1.67     2 Br
      -7.508  2.00    25 A         47.26%     3 P:x            -7.755  1.67     2 Br
                                   28.68%     2 P:x            -8.456  1.67     1 Cl
                                   14.44%     3 P:y            -7.755  1.67     2 Br
                                    8.76%     2 P:y            -8.456  1.67     1 Cl
      -7.508  2.00    26 A         61.10%     3 P:z            -7.755  1.67     2 Br
                                   37.08%     2 P:z            -8.456  1.67     1 Cl
                                    1.01%     3 P:x            -7.755  1.67     2 Br
      -6.494  0.00    27 A         41.43%     3 P:y            -7.755  1.67     2 Br
                                   34.68%     2 P:y            -8.456  1.67     1 Cl
                                   12.12%     3 P:x            -7.755  1.67     2 Br
                                   10.15%     2 P:x            -8.456  1.67     1 Cl



 =======================================================================
 Electrostatic potential at the Nuclei due to electrons and other nuclei
 =======================================================================
  
         Atom                  Potential
         ----                  ---------
     1)   Cl                 64.37766856
     2)   Br                175.88864480
 
 
 ========================
 No memory problems found
 ========================
 
 Maximum number of active allocate calls:         942
 
 *******************************************************************************

                             A D F   E X I T
 NORMAL TERMINATION



 =================
 Timing Statistics
 =================
  
 Total Used :                     CPU=        1.81      System=        0.07     Elapsed=        1.92

 Calls  Section                     ( Mean, Percentage )
 ---------------------------------------------------------------------------------------------------
     3  ><      ................      0.00    0.00             0.00    1.43             0.00    0.08
     1  INIT    ................      0.43   24.05             0.02   34.29             0.46   24.07
     1  GEOMET  ................      0.04    1.99             0.01   12.86             0.05    2.53
     1  FRAGM   ................      0.02    1.05             0.00    5.72             0.03    1.72
     1  INPUTA  ................      0.00    0.00             0.00    0.00             0.00    0.02
     1  ATDEN   ................      0.01    0.50             0.00    5.71             0.01    0.67
     1  MAINSY  ................      0.01    0.33             0.00    7.14             0.01    0.68
     1  SYMFIT  ................      0.00    0.06             0.00    1.43             0.00    0.10
     1  CORORT  ................      0.00    0.00             0.00    0.00             0.00    0.02
     1  SYMORB  ................      0.00    0.28             0.00    0.00             0.00    0.23
     1  CLSMAT  ................      0.01    0.44             0.00    0.00             0.01    0.44
     1  ORTHON  ................      0.01    0.50             0.00    0.00             0.01    0.48
     1  GENPT   ................      0.10    5.47             0.00    4.29             0.10    5.33
     1  PTBAS   ................      0.02    1.22             0.00    0.00             0.02    1.19
    11  FOCKY   ................      0.07   45.22             0.00    2.86             0.07   42.99
    11  FOCKTR  ................      0.00    0.77             0.00    2.86             0.00    1.00
    11  SDIIS   ................      0.00    2.21             0.00    2.86             0.00    2.14
     1  COREPS  ................      0.06    3.43             0.00    1.43             0.06    3.30
     1  TOTEN   ................      0.17    9.34             0.01   10.00             0.18    9.18
     1  POPAN   ................      0.00    0.06             0.00    2.86             0.01    0.42
     1  DEBYE   ................      0.00    0.22             0.00    0.00             0.00    0.21
     1  INPUTE  ................      0.00    0.06             0.00    0.00             0.00    0.06
     1  SYMORE  ................      0.00    0.06             0.00    0.00             0.00    0.08
     1  METS    ................      0.00    0.06             0.00    0.00             0.00    0.04
     1  CETS    ................      0.00    0.17             0.00    1.43             0.00    0.18
     1  ELNRGY  ................      0.00    0.17             0.00    0.00             0.00    0.20
     1  POPUL   ................      0.01    0.83             0.00    0.00             0.02    1.00
     1  EXIT PROCEDURE .........      0.03    1.55             0.00    2.86             0.03    1.60


 Currently Open Files (EXIT00)
 ====================

 Unit    Access Format  Status   Type       Ident (file)
 -------------------------------------------------------
   3      SEQ    FORM   TRANSP  NORMAL      LOGFILE
                                          ( logfile )


 Buffered I/O statistics
 =======================
 Memory available:                     67108864
 Number of records fitting in memory:     16131
 Input :   1.7% of                        43310  *4k bytes
 Output:  11.9% of                         3502  *4k bytes
 Records from serial files evicted:           0
                    others evicted:           0
 Hash table lookups:     121211 with          0 conflicts (  0.00%)

 ***************************************************************************************************
 (LOGFILE)
 <May09-2019> <16:32:12>  ADF 2017  RunTime: May09-2019 16:32:12  Nodes: 1  Procs: 1
 <May09-2019> <16:32:12>  Bromine (TZ2P)
 <May09-2019> <16:32:12>  RunType   : CREATE
 <May09-2019> <16:32:12>  Net Charge: 0 (Nuclei minus Electrons)
 <May09-2019> <16:32:12>  Symmetry  : ATOM
  Coordinates
    Atom         X           Y           Z   (Angstrom)
    1.Br        0.000000    0.000000    0.000000
 <May09-2019> <16:32:12>  >>>> CORORT
 <May09-2019> <16:32:12>  >>>> CLSMAT
 <May09-2019> <16:32:12>  >>>> ORTHON
 <May09-2019> <16:32:12>  >>>> GENPT
 <May09-2019> <16:32:12>  Block Length= 106
 <May09-2019> <16:32:12>  >>>> PTBAS
 <May09-2019> <16:32:12>  >>>> CYCLE
 <May09-2019> <16:32:12>              |Error|         MaxErr       Wt(A-DIIS)
 <May09-2019> <16:32:12>      1      0.00000000      0.00000000
 <May09-2019> <16:32:12>      2    133.90378859     33.00263884    100.0
 <May09-2019> <16:32:12>      3     49.62914370     17.59518881    100.0
 <May09-2019> <16:32:12>      4      9.09209484      2.12485505    100.0
 <May09-2019> <16:32:12>      5     11.70158419      3.98842598    100.0
 <May09-2019> <16:32:12>      6      1.82354005      0.45661929    100.0
 <May09-2019> <16:32:13>      7      1.60769584      0.41584263    100.0
 <May09-2019> <16:32:13>      8      0.06575401      0.01946729     18.7
 <May09-2019> <16:32:13>      9      0.02601319      0.00809116      7.2
 <May09-2019> <16:32:13>     10      0.00046367      0.00010037      0.0
 <May09-2019> <16:32:13>     11      0.00001086      0.00000278      0.0
 <May09-2019> <16:32:13>     12      0.00000025      0.00000006      0.0
 <May09-2019> <16:32:13>     13      0.00000001      0.00000000      0.0
 <May09-2019> <16:32:13>  SCF converged
 <May09-2019> <16:32:13>     14      0.00000000      0.00000000      0.0
 <May09-2019> <16:32:13>  >>>> POPAN
 <May09-2019> <16:32:13>  >>>> DEBYE
 <May09-2019> <16:32:13>  NORMAL TERMINATION
 <May09-2019> <16:32:13>  END
 <May09-2019> <16:32:13>  ADF 2017  RunTime: May09-2019 16:32:13  Nodes: 1  Procs: 1
 <May09-2019> <16:32:13>  Chlorine (TZ2P)
 <May09-2019> <16:32:13>  RunType   : CREATE
 <May09-2019> <16:32:13>  Net Charge: 0 (Nuclei minus Electrons)
 <May09-2019> <16:32:13>  Symmetry  : ATOM
  Coordinates
    Atom         X           Y           Z   (Angstrom)
    1.Cl        0.000000    0.000000    0.000000
 <May09-2019> <16:32:13>  >>>> CORORT
 <May09-2019> <16:32:13>  >>>> CLSMAT
 <May09-2019> <16:32:13>  >>>> ORTHON
 <May09-2019> <16:32:13>  >>>> GENPT
 <May09-2019> <16:32:13>  Block Length=  93
 <May09-2019> <16:32:13>  >>>> PTBAS
 <May09-2019> <16:32:13>  >>>> CYCLE
 <May09-2019> <16:32:14>              |Error|         MaxErr       Wt(A-DIIS)
 <May09-2019> <16:32:14>      1      0.00000000      0.00000000
 <May09-2019> <16:32:14>      2     37.91809312     10.75416200    100.0
 <May09-2019> <16:32:14>      3     20.75770825      6.87179666    100.0
 <May09-2019> <16:32:14>      4      6.02140545      2.06148759    100.0
 <May09-2019> <16:32:14>      5      4.12282628      1.76233895    100.0
 <May09-2019> <16:32:14>      6      0.29713446      0.11190714    100.0
 <May09-2019> <16:32:14>      7      0.26827088      0.11225117    100.0
 <May09-2019> <16:32:14>      8      0.07155945      0.02618708     25.4
 <May09-2019> <16:32:14>      9      0.01306627      0.00522014      4.3
 <May09-2019> <16:32:14>     10      0.00048573      0.00020293      0.0
 <May09-2019> <16:32:14>     11      0.00000245      0.00000087      0.0
 <May09-2019> <16:32:14>     12      0.00000003      0.00000001      0.0
 <May09-2019> <16:32:14>     13      0.00000000      0.00000000      0.0
 <May09-2019> <16:32:14>  SCF converged
 <May09-2019> <16:32:14>     14      0.00000000      0.00000000      0.0
 <May09-2019> <16:32:14>  >>>> POPAN
 <May09-2019> <16:32:14>  >>>> DEBYE
 <May09-2019> <16:32:14>  NORMAL TERMINATION
 <May09-2019> <16:32:14>  END
 <May09-2019> <16:32:14>  ADF 2017  RunTime: May09-2019 16:32:14  Nodes: 1  Procs: 12
 <May09-2019> <16:32:15>  *** (NO TITLE) ***
 <May09-2019> <16:32:15>  RunType   : SINGLE POINT
 <May09-2019> <16:32:15>  Net Charge: 0 (Nuclei minus Electrons)
 <May09-2019> <16:32:15>  Symmetry  : NOSYM
 <May09-2019> <16:32:15>  >>>> FRAGM
  Coordinates
    Atom         X           Y           Z   (Angstrom)
    1.Cl       -4.925760    3.099436   -0.044824
    2.Br       -3.717238    0.865333    0.205929
 <May09-2019> <16:32:15>  >>>> CORORT
 <May09-2019> <16:32:15>  >>>> CLSMAT
 <May09-2019> <16:32:15>  >>>> ORTHON
 <May09-2019> <16:32:15>  >>>> GENPT
 <May09-2019> <16:32:15>  Block Length= 128
 <May09-2019> <16:32:15>  >>>> PTBAS
 <May09-2019> <16:32:15>  >>>> CYCLE
 <May09-2019> <16:32:15>              |Error|         MaxErr       Wt(A-DIIS)
 <May09-2019> <16:32:15>      1      1.07232220      0.48319512
 <May09-2019> <16:32:15>      2      0.16726432      0.06562244    100.0
 <May09-2019> <16:32:15>      3      0.08814250      0.02310614    100.0
 <May09-2019> <16:32:16>      4      0.09167595      0.03304414     32.4
 <May09-2019> <16:32:16>      5      0.00947323      0.00256607      1.6
 <May09-2019> <16:32:16>      6      0.00317247      0.00127068      0.3
 <May09-2019> <16:32:16>      7      0.00066116      0.00014035      0.0
 <May09-2019> <16:32:16>      8      0.00008647      0.00002106      0.0
 <May09-2019> <16:32:16>      9      0.00002254      0.00000844      0.0
 <May09-2019> <16:32:16>     10      0.00000098      0.00000030      0.0
 <May09-2019> <16:32:16>  SCF converged
 <May09-2019> <16:32:16>     11      0.00000045      0.00000013      0.0
 <May09-2019> <16:32:16>  >>>> TOTEN
 <May09-2019> <16:32:16>  >>>> POPAN
 <May09-2019> <16:32:16>  >>>> DEBYE
 <May09-2019> <16:32:16>  >>>> AMETS
 <May09-2019> <16:32:16>   Bond Energy          -0.08743820 a.u.
 <May09-2019> <16:32:16>   Bond Energy          -2.37931462 eV
 <May09-2019> <16:32:16>   Bond Energy         -54.87       kcal/mol
 <May09-2019> <16:32:16>  >>>> POPUL
 <May09-2019> <16:32:16>  NORMAL TERMINATION
 <May09-2019> <16:32:16>  END
