

 Parallel Execution: Process Information
 ==============================================================================
 Rank   Node Name                              NodeID   MyNodeRank  NodeMaster
    0   BAZIS-cn021                               0          0          0
    1   BAZIS-cn021                               0          1         -1
    2   BAZIS-cn021                               0          2         -1
    3   BAZIS-cn021                               0          3         -1
    4   BAZIS-cn021                               0          4         -1
    5   BAZIS-cn021                               0          5         -1
    6   BAZIS-cn021                               0          6         -1
    7   BAZIS-cn021                               0          7         -1
    8   BAZIS-cn021                               0          8         -1
    9   BAZIS-cn021                               0          9         -1
   10   BAZIS-cn021                               0         10         -1
   11   BAZIS-cn021                               0         11         -1
 ==============================================================================


May use up to 30771MB of RAM as shared memory on node 0


XC
    GGA BP86
END

SCF
    iterations 250
END

EPRINT
    SFO Eig Ovl
END

ZLMFIT
    Quality normal
END

BECKEGRID
    Quality good
End

SYMMETRY nosym
CHARGE -1

ATOMS
1.Br       -4.008834   -0.381143   -0.063856 f=BrH
2.H        -2.507210    0.445110    0.798797 f=BrH
3.Cl       -1.364452    1.073901    1.455288 f=Cl
END

Fragments
BrH /home/tcst25/advanced_comp_chemistry/exercise2/hydrogen/BrHCl/frag1_BrH.t21
Cl /home/tcst25/advanced_comp_chemistry/exercise2/hydrogen/BrHCl/frag2_Cl.t21
End
end input

 *******************************************************************************
 *                                                                             *
 *  -------------------------------------                                      *
 *   Amsterdam Density Functional  (ADF)         2017                          *
 *  -------------------------------------                                      *
 *                                               r58813 2017-04-12             *
 *                                                                             *
 *                                                                             *
 *                              =================                              *
 *                              |               |                              *
 *                              |     A D F     |                              *
 *                              |               |                              *
 *                              =================                              *
 *                                                                             *
 *                                                                             *
 *   Online information and documentation:  https://www.scm.com/support/       *
 *   E-mail:  support@scm.com   info@scm.com                                   *
 *                                                                             *
 *   Scientific publications using ADF results must be properly referenced     *
 *   See the User Manuals (or the web site) for recommended citations          *
 *   The terms and conditions of the End User License Agreement apply to       *
 *   the use of ADF, https://www.scm.com/license-terms/                        *
 *                                                                             *
 **********************  x86_64_linux_intel / intelmpi  ************************
 
 Licensed to: VU/FEW (+ SARA) / ALGEMEEN / Amsterdam / THE NETHERLANDS
 SCM User ID: u7668
  
 ADF 2017  RunTime: May09-2019 17:23:36  Nodes: 1  Procs: 12

 Temporary files are created in /local/datastore0/tcst25/189811/kid_0.1tMsqD


Communication costs MPI_COMM_WORLD:      3.891 usec per message,   0.0183 usec per 8-byte item
Communication costs for intra-node:      3.934 usec per message,   0.0177 usec per 8-byte item

 *** (NO TITLE) ***



 ===========================
 A T T A C H E D   F I L E S
 ===========================
  



 ===============================
 M O D E L   P A R A M E T E R S
 ===============================
  
 DENSITY FUNCTIONAL POTENTIAL (scf)
    LDA:                               VWN                                      
    Gradient Corrections:              Becke88 Perdew86                        == Not Default ==

 SPIN  (restricted / unrestr.)
    Molecule:                          Restricted                               
    Fragments:                         Restricted                               

 OTHER ASPECTS
    Relativistic Corrections:          ---                                      

    Nuclear Charge Density Model:      Point Charge Nuclei                      
    Core Treatment:                    Frozen Orbital(s)                        

    Hyperfine or Zeeman Interaction:   ---                                      


 Fragment File(s)
 ----------------
 BrH:
         file : /home/tcst25/advanced_comp_chemistry/exercise2/hydrogen/BrHCl/frag1_BrH.t21
         jobid: ADF 2017  RunTime: May09-2019 17:12:33  Nodes: 1  Procs: 12
         title: *** (NO TITLE) ***
 Cl:
         file : /home/tcst25/advanced_comp_chemistry/exercise2/hydrogen/BrHCl/frag2_Cl.t21
         jobid: ADF 2017  RunTime: May09-2019 17:12:32  Nodes: 1  Procs: 12
         title: *** (NO TITLE) ***



                                        ************************************
                                        *  R U N   T Y P E : SINGLE POINT  *
                                        ************************************
  



 ===============
 G E O M E T R Y  ***  Linear Molecule  ***
 ===============
  

 ATOMS
 =====                            X Y Z                    CHARGE
                                (Angstrom)             Nucl     +Core       At.Mass
                       --------------------------    ----------------       -------
    1  Br             -4.0088   -0.3811   -0.0639     35.00     35.00       78.9183
    2  H              -2.5072    0.4451    0.7988      1.00      1.00        1.0078
    3  Cl             -1.3645    1.0739    1.4553     17.00     17.00       34.9689


 FRAGMENTS
 =========                                     Atoms in this Fragment     Cart. coord.s (Angstrom)
                                               -------------------------------------------------------
    1  BrH                                               1  Br          -4.0088   -0.3811   -0.0639
                                                         2  H           -2.5072    0.4451    0.7988
    2  Cl                                                3  Cl          -1.3645    1.0739    1.4553


 Interatomic Distance Matrix (Angstrom)
 --------------------------------------

   1)     0.000
   2)     1.919   0.000
   3)     3.379   1.460   0.000

 Min. Distance =    1.4602
 Max. Distance =    3.3790



 =====================================
 S Y M M E T R Y ,   E L E C T R O N S
 =====================================
  
 Symmetry: NOSYM

 Irreducible Representations, including subspecies
 -------------------------------------------------
 A


 Configuration of Valence Electrons
 ==================================
 ( determined in the SCF procedure )

 Total:   54

 Net Charge: -1 (Nuclei minus Electrons)

 Aufbau principle for MO occupations will be applied through SCF cycle no.     125
 Thereafter, the program will assign electrons to MOs that are spatially
 similar to the occupied MOs in a "reference" cycle ("KeepOrbitals").
 The reference cycle is always the PREVIOUS cycle: it will evolve with
 the SCF procedure.
1
 ***************************************************************************************************



                                      ****************************************
                                      *  B U I L D : (Fragments, Functions)  *
                                      ****************************************
  

 The individual fragments are copies of the corresponding 'Master' fragments defined on the fragment files.
 However, they may have been rotated (and translated) with respect to the Master. The local coordinate axes
 of each fragment (which define for instance the spatial orientation in the current molecule of a fragment
 P:x orbital) are not necessarily those of the molecule.
 The local frame (if different from the molecular one) is printed to enable an interpretation of the expan-
 sion of an MO in Fragment Orbitals.



                                             *************************
                                             *  Fragment Type : BrH  *
                                             *************************
  

 Fragment no.    1   (in the list of all fragments)
 -----------------
 The local coordinate frame is identical to the molecular frame.

 Check Atomic Coordinates:

                  Master (on file)          After Computed Tranformation               As specified on Input
           ----------------------------     ----------------------------     ---------------------------------
     1)    -4.00883  -0.38114  -0.06386     -4.00883  -0.38114  -0.06386       1  -4.00883  -0.38114  -0.06386
     2)    -2.50721   0.44511   0.79880     -2.50721   0.44511   0.79880       2  -2.50721   0.44511   0.79880



                                              ************************
                                              *  Fragment Type : Cl  *
                                              ************************
  

 Fragment no.    2   (in the list of all fragments)
 -----------------
 The local coordinate frame is identical to the molecular frame.

 Check Atomic Coordinates:

                  Master (on file)          After Computed Tranformation               As specified on Input
           ----------------------------     ----------------------------     ---------------------------------
     1)    -1.36445   1.07390   1.45529     -1.36445   1.07390   1.45529       3  -1.36445   1.07390   1.45529



 =======
 S F O s  ***  (Symmetrized Fragment Orbitals)  ***
 =======
  
 SFOs are linear combinations of (valence) Fragment Orbitals (FOs), such that the SFOs transform as the
 irreducible representations of the (molecular) symmetry group. Each SFO is therefore characterized by
 an irrep of the molecule and by a few (or only one) generating FOs.
 The SFOs constitute a symmetry-adapted basis for the Fock matrix. The MO eigenvector coefficients in
 this basis provide a direct interpretation of the MOs in terms of Frontier Orbital Theory.

 The SFOs are combined with auxiliary Core Functions (CFs) to ensure orthogonalization on the (frozen)
 Core Orbitals (COs). The Core-orthogonalized SFOs (CSFOs) constitute the true Fock basis.

 The FOs, and hence also the (C)SFOs are combinations of the elementary basis functions (BAS). The basis
 functions that participate in the description of the SFOs depend on the irrep. The indices of the
 involved functions are printed below for each irrep.
 (The complete list of primitive basis functions is printed in another section)

 Total nr. of (C)SFOs (summation over all irreps) :   101

 NOTE: a (C)SFO that is defined as a combination of more than one FO is usually NOT normalized.



                                       === A ===
 Nr. of SFOs :  101
 Cartesian basis functions that participate in this irrep (total number =   113) :
      1     2     3    10    11    36    37    38     4     7
     12    15    39    42    45     5     8    13    16    40
     43    46     6     9    14    17    41    44    47    18
     24    30    48    19    25    31    49    20    26    32
     50    21    27    33    51    22    28    34    52    23
     29    35    53    54    55    56    57    58    59    60
     61    62    63    64    65    66    67    68    69    70
     71    72    73    74    75    76    77    78    79    86
     87    88    80    83    89    92    95    81    84    90
     93    96    82    85    91    94    97    98    99   100
    101   102   103   104   105   106   107   108   109   110
    111   112   113

    SFO  (index         Fragment          Generating    Expansion in Fragment Orbitals
  indx  incl.CFs)   Occup   Orb.Energy   FragmentType  Coeff.   Orbital     on Fragment
 --------------------------------------------------------------------------------------
     1       1      2.000    -481.013 au  BrH           1.00      1 A               1
                        (  -13089.032 eV)
     2       2      2.000     -61.768 au  BrH           1.00      2 A               1
                        (   -1680.804 eV)
     3       3      2.000     -55.702 au  BrH           1.00      3 A               1
                        (   -1515.726 eV)
     4       4      2.000     -55.696 au  BrH           1.00      4 A               1
                        (   -1515.575 eV)
     5       5      2.000     -55.696 au  BrH           1.00      5 A               1
                        (   -1515.575 eV)
     6       6      2.000      -8.388 au  BrH           1.00      6 A               1
                        (    -228.257 eV)
     7       7      2.000      -6.298 au  BrH           1.00      7 A               1
                        (    -171.385 eV)
     8       8      2.000      -6.283 au  BrH           1.00      8 A               1
                        (    -170.961 eV)
     9       9      2.000      -6.283 au  BrH           1.00      9 A               1
                        (    -170.961 eV)
    10      10      2.000      -2.503 au  BrH           1.00     10 A               1
                        (     -68.113 eV)
    11      11      2.000      -2.499 au  BrH           1.00     11 A               1
                        (     -68.011 eV)
    12      12      2.000      -2.499 au  BrH           1.00     12 A               1
                        (     -68.011 eV)
    13      13      2.000      -2.488 au  BrH           1.00     13 A               1
                        (     -67.702 eV)
    14      14      2.000      -2.488 au  BrH           1.00     14 A               1
                        (     -67.702 eV)
    15      15      2.000      -0.697 au  BrH           1.00     15 A               1
                        (     -18.954 eV)
    16      16      2.000      -0.358 au  BrH           1.00     16 A               1
                        (      -9.734 eV)
    17      17      2.000      -0.265 au  BrH           1.00     17 A               1
                        (      -7.207 eV)
    18      18      2.000      -0.265 au  BrH           1.00     18 A               1
                        (      -7.207 eV)
    19      19       --        -0.159 au  BrH           1.00     19 A               1
                        (      -4.318 eV)
    20      20       --         0.057 au  BrH           1.00     20 A               1
                        (       1.542 eV)
    21      21       --         0.133 au  BrH           1.00     21 A               1
                        (       3.611 eV)
    22      22       --         0.140 au  BrH           1.00     22 A               1
                        (       3.823 eV)
    23      23       --         0.140 au  BrH           1.00     23 A               1
                        (       3.823 eV)
    24      24       --         0.225 au  BrH           1.00     24 A               1
                        (       6.131 eV)
    25      25       --         0.225 au  BrH           1.00     25 A               1
                        (       6.131 eV)
    26      26       --         0.284 au  BrH           1.00     26 A               1
                        (       7.735 eV)
    27      27       --         0.284 au  BrH           1.00     27 A               1
                        (       7.735 eV)
    28      28       --         0.319 au  BrH           1.00     28 A               1
                        (       8.673 eV)
    29      29       --         0.400 au  BrH           1.00     29 A               1
                        (      10.889 eV)
    30      30       --         0.543 au  BrH           1.00     30 A               1
                        (      14.782 eV)
    31      31       --         0.543 au  BrH           1.00     31 A               1
                        (      14.782 eV)
    32      32       --         0.811 au  BrH           1.00     32 A               1
                        (      22.066 eV)
    33      33       --         0.857 au  BrH           1.00     33 A               1
                        (      23.331 eV)
    34      34       --         0.857 au  BrH           1.00     34 A               1
                        (      23.332 eV)
    35      35       --         0.875 au  BrH           1.00     35 A               1
                        (      23.799 eV)
    36      36       --         0.875 au  BrH           1.00     36 A               1
                        (      23.799 eV)
    37      37       --         1.001 au  BrH           1.00     37 A               1
                        (      27.229 eV)
    38      38       --         1.001 au  BrH           1.00     38 A               1
                        (      27.229 eV)
    39      39       --         1.053 au  BrH           1.00     39 A               1
                        (      28.667 eV)
    40      40       --         1.231 au  BrH           1.00     40 A               1
                        (      33.500 eV)
    41      41       --         1.231 au  BrH           1.00     41 A               1
                        (      33.500 eV)
    42      42       --         1.468 au  BrH           1.00     42 A               1
                        (      39.933 eV)
    43      43       --         1.851 au  BrH           1.00     43 A               1
                        (      50.375 eV)
    44      44       --         2.553 au  BrH           1.00     44 A               1
                        (      69.482 eV)
    45      45       --         2.570 au  BrH           1.00     45 A               1
                        (      69.924 eV)
    46      46       --         2.570 au  BrH           1.00     46 A               1
                        (      69.924 eV)
    47      47       --         2.647 au  BrH           1.00     47 A               1
                        (      72.039 eV)
    48      48       --         2.647 au  BrH           1.00     48 A               1
                        (      72.039 eV)
    49      49       --         2.749 au  BrH           1.00     49 A               1
                        (      74.801 eV)
    50      50       --         2.749 au  BrH           1.00     50 A               1
                        (      74.801 eV)
    51      51       --         3.151 au  BrH           1.00     51 A               1
                        (      85.752 eV)
    52      52       --         3.151 au  BrH           1.00     52 A               1
                        (      85.753 eV)
    53      53       --         3.153 au  BrH           1.00     53 A               1
                        (      85.795 eV)
    54      54       --         3.957 au  BrH           1.00     54 A               1
                        (     107.665 eV)
    55      55       --         8.866 au  BrH           1.00     55 A               1
                        (     241.267 eV)
    56      56       --         8.866 au  BrH           1.00     56 A               1
                        (     241.268 eV)
    57      57       --         9.154 au  BrH           1.00     57 A               1
                        (     249.082 eV)
    58      58       --        14.669 au  BrH           1.00     58 A               1
                        (     399.158 eV)
    59      59       --        20.631 au  BrH           1.00     59 A               1
                        (     561.389 eV)
    60      60       --        20.631 au  BrH           1.00     60 A               1
                        (     561.390 eV)
    61      61       --        20.759 au  BrH           1.00     61 A               1
                        (     564.872 eV)
    62      62       --        20.759 au  BrH           1.00     62 A               1
                        (     564.873 eV)
    63      63       --        21.304 au  BrH           1.00     63 A               1
                        (     579.720 eV)
    64      64       --       100.907 au  BrH           1.00     64 A               1
                        (    2745.827 eV)
    65      65       --       100.907 au  BrH           1.00     65 A               1
                        (    2745.827 eV)
    66      66       --       101.543 au  BrH           1.00     66 A               1
                        (    2763.121 eV)
    67      67       --       748.097 au  BrH           1.00     67 A               1
                        (   20356.765 eV)
    68      68      2.000    -100.372 au  Cl            1.00      1 A               2
                        (   -2731.270 eV)
    69      69      2.000      -8.827 au  Cl            1.00      2 A               2
                        (    -240.193 eV)
    70      70      2.000      -6.649 au  Cl            1.00      3 A               2
                        (    -180.916 eV)
    71      71      2.000      -6.649 au  Cl            1.00      4 A               2
                        (    -180.916 eV)
    72      72      2.000      -6.649 au  Cl            1.00      5 A               2
                        (    -180.916 eV)
    73      73      2.000      -0.385 au  Cl            1.00      6 A               2
                        (     -10.473 eV)
    74      74      2.000       0.033 au  Cl            1.00      7 A               2
                        (       0.909 eV)
    75      75      2.000       0.033 au  Cl            1.00      8 A               2
                        (       0.909 eV)
    76      76      2.000       0.033 au  Cl            1.00      9 A               2
                        (       0.909 eV)
    77      77       --         0.475 au  Cl            1.00     10 A               2
                        (      12.914 eV)
    78      78       --         0.489 au  Cl            1.00     11 A               2
                        (      13.299 eV)
    79      79       --         0.489 au  Cl            1.00     12 A               2
                        (      13.299 eV)
    80      80       --         0.489 au  Cl            1.00     13 A               2
                        (      13.299 eV)
    81      81       --         0.741 au  Cl            1.00     14 A               2
                        (      20.162 eV)
    82      82       --         0.741 au  Cl            1.00     15 A               2
                        (      20.162 eV)
    83      83       --         0.741 au  Cl            1.00     16 A               2
                        (      20.162 eV)
    84      84       --         0.741 au  Cl            1.00     17 A               2
                        (      20.162 eV)
    85      85       --         0.741 au  Cl            1.00     18 A               2
                        (      20.162 eV)
    86      86       --         1.518 au  Cl            1.00     19 A               2
                        (      41.294 eV)
    87      87       --         1.518 au  Cl            1.00     20 A               2
                        (      41.294 eV)
    88      88       --         1.518 au  Cl            1.00     21 A               2
                        (      41.294 eV)
    89      89       --         1.518 au  Cl            1.00     22 A               2
                        (      41.294 eV)
    90      90       --         1.518 au  Cl            1.00     23 A               2
                        (      41.294 eV)
    91      91       --         1.518 au  Cl            1.00     24 A               2
                        (      41.294 eV)
    92      92       --         1.518 au  Cl            1.00     25 A               2
                        (      41.294 eV)
    93      93       --         2.351 au  Cl            1.00     26 A               2
                        (      63.962 eV)
    94      94       --         2.448 au  Cl            1.00     27 A               2
                        (      66.612 eV)
    95      95       --         2.448 au  Cl            1.00     28 A               2
                        (      66.612 eV)
    96      96       --         2.448 au  Cl            1.00     29 A               2
                        (      66.612 eV)
    97      97       --        13.113 au  Cl            1.00     30 A               2
                        (     356.814 eV)
    98      98       --        19.210 au  Cl            1.00     31 A               2
                        (     522.735 eV)
    99      99       --        19.210 au  Cl            1.00     32 A               2
                        (     522.735 eV)
   100     100       --        19.210 au  Cl            1.00     33 A               2
                        (     522.735 eV)
   101     101       --       215.062 au  Cl            1.00     34 A               2
                        (    5852.138 eV)



 ================================
 (Slater-type)  F U N C T I O N S  ***  (Basis and Fit)  ***
 ================================
  

 Atom Type    1  (Br)
 ==============

 Valence Basis Sets:  20
 -----------------------
   1 S   41.300000
   1 S   32.800000
   2 S   13.900000
   2 P   19.450000
   2 P   13.100000
   3 S    7.200000
   3 S    4.950000
   3 P    7.900000
   3 P    5.050000
   3 D   10.900000
   3 D    6.050000
   3 D    3.500000
   4 S    4.500000
   4 S    2.800000
   4 S    1.800000
   4 P    3.250000
   4 P    1.950000
   4 P    1.200000
   4 D    1.800000
   4 F    1.800000

 Atom Type    2  (H)
 ==============

 Valence Basis Sets:   5
 -----------------------
   1 S    0.690000
   1 S    0.920000
   1 S    1.580000
   2 P    1.250000
   3 D    2.500000

 Atom Type    3  (Cl)
 ==============

 Valence Basis Sets:  14
 -----------------------
   1 S   20.300000
   1 S   15.250000
   2 S    6.250000
   2 S    4.450000
   2 P    8.850000
   2 P    5.050000
   3 S    3.450000
   3 S    2.300000
   3 S    1.600000
   3 P    3.350000
   3 P    2.050000
   3 P    1.200000
   3 D    2.000000
   4 F    2.000000


 BAS: List of all Elementary Cartesian Basis Functions
 =====================================================

 The numbering in the list below (to the right of the function characteristics) is referred
 to in print-outs of MO eigenvectors and Mulliken populations in the BAS representation
 (as contrasted to the SFO representation).

 Notes:
 1. The functions are characterized by a polynomial prefactor (powers of x,y,z and r) and
    an exponential decay factor alpha.
 2. Since the basis sets are specific for an atom TYPE, the individual functions occur on
    all atoms of that type.
 3. The word 'Core' in the left margin signals that it is a Core Function (CF) : not a
    degree of freedom in the valence set, but only used to ensure orthogonalization of
    the other valence basis functions on the frozen Core Orbitals.


 (power of) X  Y  Z  R     Alpha  on Atom
            ==========     =====     ==========

 Br                                   1
                                  ---------------------------------------------------------------------------
            0  0  0  0    41.300      1
            0  0  0  0    32.800      2
            0  0  0  1    13.900      3
            1  0  0  0    19.450      4
            0  1  0  0    19.450      5
            0  0  1  0    19.450      6
            1  0  0  0    13.100      7
            0  1  0  0    13.100      8
            0  0  1  0    13.100      9
            0  0  0  2     7.200     10
            0  0  0  2     4.950     11
            1  0  0  1     7.900     12
            0  1  0  1     7.900     13
            0  0  1  1     7.900     14
            1  0  0  1     5.050     15
            0  1  0  1     5.050     16
            0  0  1  1     5.050     17
            2  0  0  0    10.900     18
            1  1  0  0    10.900     19
            1  0  1  0    10.900     20
            0  2  0  0    10.900     21
            0  1  1  0    10.900     22
            0  0  2  0    10.900     23
            2  0  0  0     6.050     24
            1  1  0  0     6.050     25
            1  0  1  0     6.050     26
            0  2  0  0     6.050     27
            0  1  1  0     6.050     28
            0  0  2  0     6.050     29
            2  0  0  0     3.500     30
            1  1  0  0     3.500     31
            1  0  1  0     3.500     32
            0  2  0  0     3.500     33
            0  1  1  0     3.500     34
            0  0  2  0     3.500     35
            0  0  0  3     4.500     36
            0  0  0  3     2.800     37
            0  0  0  3     1.800     38
            1  0  0  2     3.250     39
            0  1  0  2     3.250     40
            0  0  1  2     3.250     41
            1  0  0  2     1.950     42
            0  1  0  2     1.950     43
            0  0  1  2     1.950     44
            1  0  0  2     1.200     45
            0  1  0  2     1.200     46
            0  0  1  2     1.200     47
            2  0  0  1     1.800     48
            1  1  0  1     1.800     49
            1  0  1  1     1.800     50
            0  2  0  1     1.800     51
            0  1  1  1     1.800     52
            0  0  2  1     1.800     53
            3  0  0  0     1.800     54
            2  1  0  0     1.800     55
            2  0  1  0     1.800     56
            1  2  0  0     1.800     57
            1  1  1  0     1.800     58
            1  0  2  0     1.800     59
            0  3  0  0     1.800     60
            0  2  1  0     1.800     61
            0  1  2  0     1.800     62
            0  0  3  0     1.800     63

 H                                    2
                                  ---------------------------------------------------------------------------
            0  0  0  0     0.690     64
            0  0  0  0     0.920     65
            0  0  0  0     1.580     66
            1  0  0  0     1.250     67
            0  1  0  0     1.250     68
            0  0  1  0     1.250     69
            2  0  0  0     2.500     70
            1  1  0  0     2.500     71
            1  0  1  0     2.500     72
            0  2  0  0     2.500     73
            0  1  1  0     2.500     74
            0  0  2  0     2.500     75

 Cl                                   3
                                  ---------------------------------------------------------------------------
            0  0  0  0    20.300     76
            0  0  0  0    15.250     77
            0  0  0  1     6.250     78
            0  0  0  1     4.450     79
            1  0  0  0     8.850     80
            0  1  0  0     8.850     81
            0  0  1  0     8.850     82
            1  0  0  0     5.050     83
            0  1  0  0     5.050     84
            0  0  1  0     5.050     85
            0  0  0  2     3.450     86
            0  0  0  2     2.300     87
            0  0  0  2     1.600     88
            1  0  0  1     3.350     89
            0  1  0  1     3.350     90
            0  0  1  1     3.350     91
            1  0  0  1     2.050     92
            0  1  0  1     2.050     93
            0  0  1  1     2.050     94
            1  0  0  1     1.200     95
            0  1  0  1     1.200     96
            0  0  1  1     1.200     97
            2  0  0  0     2.000     98
            1  1  0  0     2.000     99
            1  0  1  0     2.000    100
            0  2  0  0     2.000    101
            0  1  1  0     2.000    102
            0  0  2  0     2.000    103
            3  0  0  0     2.000    104
            2  1  0  0     2.000    105
            2  0  1  0     2.000    106
            1  2  0  0     2.000    107
            1  1  1  0     2.000    108
            1  0  2  0     2.000    109
            0  3  0  0     2.000    110
            0  2  1  0     2.000    111
            0  1  2  0     2.000    112
            0  0  3  0     2.000    113

 Total number of charge fitting functions (nprimf)       326
 Total number of Cartesian basis functions (naos)        113
 Total number of Cartesian core functions  (ncos)          0

1
 ***************************************************************************************************



                                              ***********************
                                              *  T E C H N I C A L  *
                                              ***********************
  



 =============================================================
 P A R A L L E L I Z A T I O N  and  V E C T O R I Z A T I O N
 =============================================================
  
 Nr of parallel processes:                               12
 Maximum vector length in NumInt loops:                 128

 IO buffersize (Mb):                                     64.000000



 =====================
 S C F   U P D A T E S
 =====================
  
 Max. nr. of cycles:                               250
 Convergence criterion:                              0.0000010000
   secondary criterion:                              0.0010000000

 Mix parameter (when DIIS does not apply):           0.2000000000
 Mixed ADIIS+DIIS will be used
    Max number of expansion vectors:                10
    Pure ADIIS when Max([F,P]) is above              0.1000000000
    Pure DIIS when Max([F,P]) is below               0.0010000000
 Automatic ElectronSmearing (in case of problematic SCF convergence) disabled



 =================
 P R E C I S I O N  ***  (General: NumInt, NeglectFunctionTails, ...)  ***
 =================
  

 NumInt:           Target precision:                 6.0000000000
 -------           Initial precision:                6.0000000000
                   Min. precision (optimization):    6.0000000000

 Neglect Functions:          Basis functions:        0.1000000000E-07
 ------------------          Fit functions:          0.1000000000E-07



 ===========================
 L I N E A R   S C A L I N G
 ===========================
  

 Cut-off radii density fit:                        0.1000000000E-09
 Overlap cut-off criterion AO matrix elements:     0.1000000000E-07
 Cut-offs for Coulomb potential and fitted density:0.1000000000E-09
 Cut-off criterion for Coulomb multipole terms:    0.1000000000E-09
 Progressive Convergence parameter:                 0.000000000    
1
 ***************************************************************************************************



                                            ***************************
                                            *  C O M P U T A T I O N  *
                                            ***************************
  

 Number of elements of the density matrix on this node (used, total):      2016      6441



 ===========================================
 Numerical Integration : Fuzzy Cells (Becke)
 ===========================================
  
 Becke grid quality: GOOD           
  
 Lebedev angular grid order:             min:  11 max:  31
 Nr. of radial points:                   min:  54 max:  90

 Total nr. of points:      48350
 Nr. of blocks:              378
 Block length:               128
 Nr. of dummy points:         34


 Test of Precision of the Numerical Integration Grid
 ===================================================

 Integral of the Total Core Density:                   0.00000000000000



 ========================
 Density Fitting (zlmFit)
 ========================
  
 ZlmFit Fit Quality: NORMAL         
  
 Max L-expansion:                        min:   6 max:   7
 Nr. of radial interpolation points:     min:  39 max:  72



 =====
 S C F  ***  ScaSCF  ***
 =====
  
 Initial density matrix is calculated as sum of fragments

 CYCLE    1
 SCF Error: norm([F,P])=      1.156817417756, max([F,P])=      0.758612266331
 orbitals (Q,E):
 ---------------
 A :18...37          ( 2.00    -2.3487)  ( 2.00    -2.3487)  ( 2.00    -0.5538)  ( 2.00    -0.4721)
                     ( 2.00    -0.1951)  ( 2.00    -0.1270)  ( 2.00    -0.1270)  ( 2.00    -0.0846)
                     ( 2.00    -0.0208)  ( 2.00    -0.0208)  ( 0.00     0.1636)  ( 0.00     0.2394)
                     ( 0.00     0.2763)  ( 0.00     0.2821)  ( 0.00     0.2821)  ( 0.00     0.3757)
                     ( 0.00     0.3758)  ( 0.00     0.4182)  ( 0.00     0.4182)  ( 0.00     0.4334)

 CYCLE    2
  SDIIS (wt  0.000):  0.1347  0.8653
 A-DIIS (wt  1.000):  0.9556  0.0444
  DIIS coefficients:  0.9556  0.0444
 SCF Error: norm([F,P])=      0.414068944695, max([F,P])=      0.109131928052
 orbitals (Q,E):
 ---------------
 A :18...28          ( 2.00    -2.3357)  ( 2.00    -2.3357)  ( 2.00    -0.5448)  ( 2.00    -0.4792)
                     ( 2.00    -0.1932)  ( 2.00    -0.1191)  ( 2.00    -0.1191)  ( 2.00    -0.0852)
                     ( 2.00    -0.0280)  ( 2.00    -0.0280)  ( 0.00     0.1649)

 CYCLE    3
  SDIIS (wt  0.000):  0.0835 -2.0000  2.9165
 A-DIIS (wt  1.000):  0.9519  0.0000  0.0481
  DIIS coefficients:  0.9519  0.0000  0.0481
 SCF Error: norm([F,P])=      0.366438639811, max([F,P])=      0.096266879394
 orbitals (Q,E):
 ---------------
 A :18...28          ( 2.00    -2.3355)  ( 2.00    -2.3355)  ( 2.00    -0.5445)  ( 2.00    -0.4793)
                     ( 2.00    -0.1932)  ( 2.00    -0.1189)  ( 2.00    -0.1189)  ( 2.00    -0.0852)
                     ( 2.00    -0.0281)  ( 2.00    -0.0281)  ( 0.00     0.1649)

 CYCLE    4
  SDIIS (wt  0.038): -2.0000  0.0000  3.0000
 A-DIIS (wt  0.962):  0.0000  0.0000  1.0000
  DIIS coefficients: -0.0761  0.0000  1.0761
 SCF Error: norm([F,P])=      0.366117328248, max([F,P])=      0.096231621002
 orbitals (Q,E):
 ---------------
 A :18...28          ( 2.00    -2.0771)  ( 2.00    -2.0771)  ( 2.00    -0.6387)  ( 2.00    -0.3692)
                     ( 2.00    -0.2686)  ( 2.00    -0.1788)  ( 2.00    -0.1788)  ( 2.00    -0.0060)
                     ( 2.00     0.0322)  ( 2.00     0.0322)  ( 0.00     0.1658)

 CYCLE    5
  SDIIS (wt  0.000): -2.0000  2.7721  0.2279
 A-DIIS (wt  1.000):  0.0000  0.7259  0.2741
  DIIS coefficients:  0.0000  0.7259  0.2741
 SCF Error: norm([F,P])=      0.784031500697, max([F,P])=      0.234614304650
 orbitals (Q,E):
 ---------------
 A :18...28          ( 2.00    -2.2159)  ( 2.00    -2.2159)  ( 2.00    -0.5665)  ( 2.00    -0.4393)
                     ( 2.00    -0.2213)  ( 2.00    -0.1138)  ( 2.00    -0.1138)  ( 2.00    -0.0442)
                     ( 2.00    -0.0289)  ( 2.00    -0.0289)  ( 0.00     0.1682)

 CYCLE    6
  SDIIS (wt  0.656): -0.6511 -2.0000  2.9912  0.0113  0.6485
 A-DIIS (wt  0.344):  0.0000  0.0000  0.0790  0.0000  0.9210
  DIIS coefficients: -0.4271 -1.3120  1.9894  0.0074  0.7422
 SCF Error: norm([F,P])=      0.135091309173, max([F,P])=      0.035057873822
 orbitals (Q,E):
 ---------------
 A :18...28          ( 2.00    -2.2507)  ( 2.00    -2.2507)  ( 2.00    -0.5444)  ( 2.00    -0.4646)
                     ( 2.00    -0.2111)  ( 2.00    -0.0916)  ( 2.00    -0.0916)  ( 2.00    -0.0595)
                     ( 2.00    -0.0503)  ( 2.00    -0.0503)  ( 0.00     0.1672)

 CYCLE    7
  SDIIS (wt  0.852): -0.5900  2.7063 -2.0000 -0.0049  0.3487  0.5399
 A-DIIS (wt  0.148):  0.0000  0.0000  0.0000  0.0000  0.1219  0.8781
  DIIS coefficients: -0.5029  2.3068 -1.7048 -0.0042  0.3152  0.5899
 SCF Error: norm([F,P])=      0.060085656245, max([F,P])=      0.015612753223
 orbitals (Q,E):
 ---------------
 A :18...28          ( 2.00    -2.2414)  ( 2.00    -2.2414)  ( 2.00    -0.5515)  ( 2.00    -0.4585)
                     ( 2.00    -0.2142)  ( 2.00    -0.0988)  ( 2.00    -0.0988)  ( 2.00    -0.0566)
                     ( 2.00    -0.0452)  ( 2.00    -0.0452)  ( 0.00     0.1674)

 CYCLE    8
  SDIIS (wt  0.980): -0.1832 -0.5671  0.7857 -0.0010  0.1000  0.2622  0.6034
 A-DIIS (wt  0.020):  0.0000  0.0000  0.0000  0.0000  0.0000  0.0000  1.0000
  DIIS coefficients: -0.1795 -0.5556  0.7698 -0.0010  0.0979  0.2569  0.6115
 SCF Error: norm([F,P])=      0.012373694275, max([F,P])=      0.003004613049
 orbitals (Q,E):
 ---------------
 A :18...28          ( 2.00    -2.2433)  ( 2.00    -2.2433)  ( 2.00    -0.5503)  ( 2.00    -0.4599)
                     ( 2.00    -0.2137)  ( 2.00    -0.0976)  ( 2.00    -0.0976)  ( 2.00    -0.0573)
                     ( 2.00    -0.0464)  ( 2.00    -0.0464)  ( 0.00     0.1673)

 CYCLE    9
  SDIIS (wt  1.000): -0.0476  0.2910 -0.2366 -0.0005  0.0268  0.0875  0.2484  0.6310
  DIIS coefficients: -0.0476  0.2910 -0.2366 -0.0005  0.0268  0.0875  0.2484  0.6310
 SCF Error: norm([F,P])=      0.001800825743, max([F,P])=      0.000402879552
 orbitals (Q,E):
 ---------------
 A :18...28          ( 2.00    -2.2428)  ( 2.00    -2.2428)  ( 2.00    -0.5502)  ( 2.00    -0.4596)
                     ( 2.00    -0.2135)  ( 2.00    -0.0975)  ( 2.00    -0.0975)  ( 2.00    -0.0571)
                     ( 2.00    -0.0462)  ( 2.00    -0.0462)  ( 0.00     0.1674)

 CYCLE   10
  SDIIS (wt  1.000): -0.0091  0.0562 -0.0458 -0.0001  0.0058  0.0181  0.0593  0.2834  0.6321
  DIIS coefficients: -0.0091  0.0562 -0.0458 -0.0001  0.0058  0.0181  0.0593  0.2834  0.6321
 SCF Error: norm([F,P])=      0.000458842723, max([F,P])=      0.000097267635
 orbitals (Q,E):
 ---------------
 A :18...28          ( 2.00    -2.2429)  ( 2.00    -2.2429)  ( 2.00    -0.5503)  ( 2.00    -0.4596)
                     ( 2.00    -0.2136)  ( 2.00    -0.0976)  ( 2.00    -0.0976)  ( 2.00    -0.0572)
                     ( 2.00    -0.0462)  ( 2.00    -0.0462)  ( 0.00     0.1673)

 CYCLE   11
  SDIIS (wt  1.000): -0.0001 -0.0105  0.0106 -0.0000  0.0006  0.0010  0.0058  0.0875  0.2985  0.6065
  DIIS coefficients: -0.0001 -0.0105  0.0106 -0.0000  0.0006  0.0010  0.0058  0.0875  0.2985  0.6065
 SCF Error: norm([F,P])=      0.000133387961, max([F,P])=      0.000028613814
 orbitals (Q,E):
 ---------------
 A :18...28          ( 2.00    -2.2429)  ( 2.00    -2.2429)  ( 2.00    -0.5503)  ( 2.00    -0.4596)
                     ( 2.00    -0.2136)  ( 2.00    -0.0976)  ( 2.00    -0.0976)  ( 2.00    -0.0572)
                     ( 2.00    -0.0462)  ( 2.00    -0.0462)  ( 0.00     0.1673)

 CYCLE   12
  SDIIS (wt  1.000): -0.0068  0.0068  0.0000  0.0000  0.0000  0.0001  0.0142  0.0692  0.1351  0.7814
  DIIS coefficients: -0.0068  0.0068  0.0000  0.0000  0.0000  0.0001  0.0142  0.0692  0.1351  0.7814
 SCF Error: norm([F,P])=      0.000013735488, max([F,P])=      0.000002844435
 orbitals (Q,E):
 ---------------
 A :18...28          ( 2.00    -2.2429)  ( 2.00    -2.2429)  ( 2.00    -0.5503)  ( 2.00    -0.4596)
                     ( 2.00    -0.2136)  ( 2.00    -0.0976)  ( 2.00    -0.0976)  ( 2.00    -0.0572)
                     ( 2.00    -0.0462)  ( 2.00    -0.0462)  ( 0.00     0.1673)

 CYCLE   13
  SDIIS (wt  1.000): -0.0000  0.0000 -0.0000 -0.0000 -0.0000  0.0003  0.0014  0.0075  0.0788  0.9120
  DIIS coefficients: -0.0000  0.0000 -0.0000 -0.0000 -0.0000  0.0003  0.0014  0.0075  0.0788  0.9120
 SCF Error: norm([F,P])=      0.000001447144, max([F,P])=      0.000000491870
 orbitals (Q,E):
 ---------------
 A :18...28          ( 2.00    -2.2429)  ( 2.00    -2.2429)  ( 2.00    -0.5503)  ( 2.00    -0.4596)
                     ( 2.00    -0.2136)  ( 2.00    -0.0976)  ( 2.00    -0.0976)  ( 2.00    -0.0572)
                     ( 2.00    -0.0462)  ( 2.00    -0.0462)  ( 0.00     0.1673)

 SCF CONVERGED

 CYCLE   14
1
 ***************************************************************************************************



                                                *******************
                                                *  R E S U L T S  *
                                                *******************
  
 *** Setting up for NEW gradients in Focky
 *** Using FIT density in Focky

 Orbital Energies, per Irrep and Spin:
 ======================================
                        Occup              E (au)              E (eV)       Diff (eV) with prev. cycle
                        -----      --------------------        ------       --------------------------
 A
              18        2.000     -0.22428926681681E+01       -61.032              -1.42E-07
              19        2.000     -0.22428901952656E+01       -61.032              -1.42E-07
              20        2.000     -0.55025347239170E+00       -14.973               2.55E-07
              21        2.000     -0.45963504044327E+00       -12.507              -2.71E-07
              22        2.000     -0.21359253164636E+00        -5.812               1.82E-08
              23        2.000     -0.97568127048798E-01        -2.655               3.08E-07
              24        2.000     -0.97565812941847E-01        -2.655               3.08E-07
              25        2.000     -0.57178625997385E-01        -1.556              -1.57E-07
              26        2.000     -0.46241621216172E-01        -1.258              -2.49E-07
              27        2.000     -0.46239138490533E-01        -1.258              -2.50E-07
              28        0.000      0.16732981576340E+00         4.553
              29        0.000      0.22335917685491E+00         6.078
              30        0.000      0.31164058813661E+00         8.480
              31        0.000      0.31517821152275E+00         8.576
              32        0.000      0.31518199064143E+00         8.577
              33        0.000      0.38855936320714E+00        10.573
              34        0.000      0.40290166304335E+00        10.964
              35        0.000      0.40291142751400E+00        10.964
              36        0.000      0.44531302954691E+00        12.118
              37        0.000      0.44532279232035E+00        12.118
  
 HOMO :       27 A                -0.46239138490533E-01
 LUMO :       28 A                 0.16732981576340E+00
  


 All Electron Calculation, thus no Orbital Energies of the Core Orbitals are calculated


 Fit test: (difference of exact and fit density, squared integrated, result summed over spins)
         Sum-of-Fragments:                             0.00084898214370
         Orthogonalized Fragments:                     0.00086408202956
         SCF:                                          0.00086722763589



 ==========================
 Electron Density at Nuclei
 ==========================
  
 The electron density is calculated at points on a small sphere around the center of a nucleus.
 The printed electron density is the average electron density on these points.
 The radius of the sphere is the printed approximate finite nuclear radius.

         Atom        Nuclear Radius (Angstrom)             Electron Density (a.u.)
         ----        -------------------------             -----------------------
     1)   Br                0.0000536685                            29312.60162
     2)   H                 0.0000181514                                0.33795
     3)   Cl                0.0000426624                             3210.24803



 =======================================
 M U L L I K E N   P O P U L A T I O N S
 =======================================
  
 The survey below gives for each atom:
 a) the total charge (Z minus electrons)
 b) the net spin polarization (nr of electrons spin-A minus spin-B)
 c) for each spin the atomic electron valence density (integrated) per L-value.

 Atom              Charge    Spin density          S         P         D         F
 ----              ------    ------------       ------    ------    ------    ------
 1 Br             -0.7226                       7.9803   17.7227   10.0160    0.0037
 2 H               0.1411                       0.7038    0.1492    0.0059    0.0000
 3 Cl             -0.4185                       5.9254   11.4649    0.0241    0.0041

 Populations of individual BAS functions
 ----------------------------------------
 1 Br           0.3611  1.5681  2.0732  0.7130  0.7131  0.7131  1.2650  1.2649  1.2649  1.4361
                0.5990  1.1356  1.1374  1.1373  0.8923  0.8907  0.8907  0.2677  0.4015  0.4015
                0.2676  0.4015  0.2676  0.7759  1.1647  1.1647  0.7769  1.1650  0.7769  0.2901
                0.4337  0.4338  0.2885  0.4334  0.2885  0.2637  1.1908  0.4882  0.5742  0.5998
                0.5988  0.9204  0.9525  0.9512  0.3379  0.3859  0.3841  0.0066  0.0052  0.0057
               -0.0016  0.0019 -0.0014  0.0044  0.0051  0.0052 -0.0022  0.0012 -0.0019 -0.0034
               -0.0008 -0.0006 -0.0032
 2 H           -0.2733  0.7368  0.2403  0.0679  0.0401  0.0412  0.0045  0.0015  0.0015 -0.0013
                0.0007 -0.0011
 3 Cl           0.5055  1.4530  1.7102  0.2604  0.7252  0.7274  0.7273  1.2735  1.2706  1.2707
                0.5857  1.0363  0.3743  0.2619  0.2895  0.2884  1.0080  1.0639  1.0617  0.4219
                0.5396  0.5350  0.0106  0.0079  0.0086 -0.0030  0.0027 -0.0027  0.0058  0.0067
                0.0069 -0.0030  0.0013 -0.0025 -0.0048 -0.0011 -0.0007 -0.0045

 Gross Charges per Atom (Z minus electrons)
 ==========================================
            -0.7226    0.1411   -0.4185
 Net Total: -1.00000000


 Atom-Atom Population Matrix (off-diagonal elements not doubled)
 ===============================================================

     1 :    35.6448
     2 :     0.1819    0.4044
     3 :    -0.1041    0.2726   17.2500


 Frag-Frag Population Matrix (off-diagonal elements not doubled)
 ===============================================================

     1 :    36.4130
     2 :     0.1685   17.2500



 =================================================
 H I R S H F E L D   C H A R G E   A N A L Y S I S
 =================================================
  
 For each fragment: the (numerical) integral of rho(scf) * rho(fragment)/rho(sum-of-fragments)
 (nuclear charges are included, electrons are counted negative)

 The fragments and their ordering are defined in the early G E O M E T R Y output section.
 If you use single-atom fragments, this usually implies that all atoms of the same
 chemical type are grouped together. This may not be the order in which you listed them
 in the input file!

    1  BrH                      -0.4073
    2  Cl                       -0.5927

 Sum of these charges (accuracy NumInt/Tails) =          -0.99999888



 =============================
 V O R O N O I   C H A R G E S
 =============================
  
 For each atom: the (numerical) integral of the total electronic charge density in its Voronoi cell,
 i.e. the region of space that is closer to that atom than to any other atom.
 (cf. Wigner-Seitz cells in crystals)

 Within the Voronoi cell the subintegrals over the atomic sphere and the remaining part are evaluated
 separately to give the numbers of electrons (negative charge) in these regions.
 The net total charge in the cell (including the nuclear charge) is also given.

 Values are provided for
    a) the Initial (sum-of-fragments) density
    b) the Orthogonalized-Fragments density
    c) the SCF density
    d) the Voronoi Deformation Density (VDD): the difference SCF-Initial for the complete atomic cell
 ---------------------------------------------------------------------------------------------------
 Total NetCharge:              -1.000                     -1.000                     -1.000    0.000
 (accuracy NumInt/Tails)

 Remark: the 'NetTotal' Voronoi charges often do not match the Mulliken and/or Hirshfeld charges very
 well. This is caused by the fact that chemically different atoms are not treated in accordance with
 their relative sizes. (Voronoi cells are defined by boundary planes halfway between the atoms.)
 However, the CHANGES in charge, comparing 'Initial' to 'SCF' for instance, do give a fair indication
 of the flow of charge caused by the relaxation from sum-of-fragments to self-consistency.

 Warning: the absolute accuracy of the VDD charges obtained using the Fuzzy Cells (Becke) integration
 scheme is much poorer than the one obtained with an 'equivalent' Voronoi integration grid. 



 =================================================================
 M U L T I P O L E   D E R I V E D   C H A R G E   A N A L Y S I S
 =================================================================

 This charge analysis uses the atomic multipoles (obtained from the fitted density) up to some level X,
 and reconstructs these multipoles exactly (up to level X) by distributing charges over all atoms.
 This is achieved by using Lagrange multipliers and a weight function to keep the multipoles local.

 Dummy atoms can be included (by setting INCDUM in MDC-block to 1) to obtain a fractional charge.
 This is generally useful and necessary only for small symmetrical molecules, when there are not
 enough degrees of freedom to reconstruct the multipoles.

 Since the atomic multipoles are reconstructed up to level X,
 the molecular multipoles are represented also up to level X.
 The recommended level is to reconstruct up to quadrupole : -> MDC-q charges.

 See: M. Swart, P.Th. van Duijnen, J.G. Snijders, J.Comput.Chem., (2001), p. 79-88.

 ------------------------------------------------------------- 
 Atomic electronic multipole moments from SCF equations (a.u.)
 ------------------------------------------------------------- 

   atom        charge        dip-x     dip-y     dip-z      quad-xx   quad-xy   quad-xz   quad-yy   quad-yz   quad-zz
 --------------------------------------------------------------------------------------------------------------------
    1 Br    -0.415866     0.652669  0.359127  0.374948     0.961485  0.773939  0.808043 -0.509508  0.444641 -0.451977
    2 H     -0.430516     0.067158  0.036912  0.038534     0.122222  0.098647  0.102978 -0.064768  0.056563 -0.057454
    3 Cl    -0.153618    -0.569982 -0.313615 -0.327430     0.794648  0.639616  0.667779 -0.421121  0.367478 -0.373526

 --------------------------------------- 
 Multipole derived atomic charges (a.u.)
 --------------------------------------- 

 The MDC-m charges are just the Monopole terms in the multipole expansion, while for the MDC-d charges
 also the Dipoles are reconstructed. The usually preferred charges are the MDC-q charges.
 These reconstruct the Monopoles, Dipoles and Quadrupoles (both atomic AND molecular).

        Atom    Level:     MDC-m        MDC-d        MDC-q
 ---------------------------------------------------------
     1     Br          -0.415866    -0.630027    -0.796474
     2     H           -0.430516    -0.004318     0.380846
     3     Cl          -0.153618    -0.365655    -0.584372

 ------------------------------------------------ 
 Average absolute deviations in atomic multipoles
 ------------------------------------------------ 

 Stated here are the average differences between the atomic multipoles
 and the reconstructed atomic multipoles (from the distributed charges).
 If these values are not zero, this means there are not enough degrees of freedom,
 to be able to reconstruct the atomic multipoles. (This usually happens only
 for small and/or highly symmetric molecules). If this is the case, one could add
 dummy atoms as extra point charges (and setting INCDUM in MDC-block to 1).

 Level:                                 MDC-d        MDC-q
 ---------------------------------------------------------
 Charge   (a.u.)                       0.0000       0.0000
 Dipole   (Debye)                      0.0000       0.0000
 Quad.    (a.u.)                       0.4574       0.1469

 --------------------------------------- 
 Represented molecular multipole moments
 --------------------------------------- 

 Given here are the Molecular multipole moments from the atomic charges, and from the Fit Density.
 Note that the atomic charges represent the latter, NOT the ones from the Exact density.

            Q (a.u.)             Dipole moment (Debye)                                          Quadrupole moment (a.u.)
                                 x         y         z              xx        xy        xz        yy        yz        zz
------------------------------------------------------------------------------------------------------------------------
MDC-m        -1.0000       14.1989   -0.9515   -2.5980        -32.9010    0.3756    5.6823   17.1974   -2.1602   15.7036
MDC-d        -1.0000       14.5797   -0.7419   -2.3793        -36.3749   -2.2607    3.0717   18.8989   -3.1514   17.4759
MDC-q        -1.0000       14.5797   -0.7419   -2.3793        -37.9884   -4.2087    1.0378   19.7539   -4.2706   18.2344
 
Fit.Dens.    -1.0000       14.5798   -0.7420   -2.3793        -36.8569   -3.5979    1.6756   19.1543   -3.9198   17.7025



 =============
 Dipole Moment  ***  (Debye)  ***
 =============
  
 Vector   :        14.58773388     -0.73750771     -2.37468050
 Magnitude:        14.79814194

 This molecular dipole moment is calculated with analytic integration
 ************************************************************************************
 Since the molecule is NOT NEUTRAL, the dipole moment depends on the choice of origin
 ************************************************************************************



 =========================================
 Quadrupole Moment (Buckingham convention)  ***  (a.u.)  ***
 =========================================
  
      quad-xx        quad-xy        quad-xz        quad-yy        quad-yz        quad-zz
    -36.90010315    -2.86204081     2.44690459    19.17434348    -3.48574517    17.72575967

 This molecular quadrupole moment is calculated with analytic integration
1



                                             *************************
                                             *  SFO MO coefficients  *
                                             *************************
  


                                       === A ===
 MOs expanded in CFs+SFOs
 ========================

 The SFOs have been characterized in an earlier part of output.
 To deduce the bonding / antibonding nature of SFO combinations in an MO, consider the products
 of the coefficients AND THE OVERLAP between the SFOs (may be NEGATIVE). The SFO overlap matrix
 is printed later, in the SFO Populations section.

 (The CF coefficients are not printed)

 MOs :      1        2        3        4        5        6        7        8        9       10
 occup:   2.00     2.00     2.00     2.00     2.00     2.00     2.00     2.00     2.00     2.00
 CF+SFO
     1   1.0000   0.0000   0.0000   0.0000   0.0000   0.0000   0.0000   0.0000   0.0000   0.0000
     2  -0.0000   0.0000   1.0000   0.0006   0.0000   0.0000   0.0000  -0.0001   0.0000   0.0000
     3   0.0000  -0.0000   0.0006  -1.0000  -0.0004  -0.0000  -0.0000   0.0000  -0.0000  -0.0000
     4  -0.0000   0.0000  -0.0000  -0.0004   0.9994   0.0355   0.0000  -0.0000   0.0000  -0.0000
     5  -0.0000   0.0000  -0.0000  -0.0000  -0.0355   0.9994   0.0000  -0.0000   0.0000   0.0000
     6  -0.0000  -0.0000   0.0001   0.0000   0.0000   0.0000  -0.0001   1.0001  -0.0000  -0.0000
     7   0.0000   0.0000  -0.0000   0.0000   0.0000  -0.0000   0.0000   0.0026   0.0000   0.0000
     8   0.0000   0.0000  -0.0000  -0.0000  -0.0000   0.0000   0.0000   0.0000   0.0000   0.0000
     9   0.0000   0.0000  -0.0000  -0.0000   0.0000   0.0000   0.0000   0.0000   0.0000   0.0000
    10  -0.0000   0.0000  -0.0000  -0.0000  -0.0000   0.0000   0.0000   0.0014  -0.0000   0.0000
    11   0.0000   0.0000  -0.0000  -0.0000   0.0000  -0.0000   0.0000   0.0000  -0.0000   0.0000
    12   0.0000  -0.0000   0.0000  -0.0000   0.0000   0.0000  -0.0000  -0.0000   0.0000  -0.0000
    13   0.0000  -0.0000   0.0000   0.0000  -0.0000  -0.0000  -0.0000  -0.0000   0.0000  -0.0000
    14   0.0000  -0.0000   0.0000   0.0000  -0.0000   0.0000  -0.0000  -0.0000   0.0000  -0.0000
    15  -0.0000   0.0000   0.0000   0.0000   0.0000   0.0000   0.0004  -0.0006  -0.0000   0.0000
    16   0.0000   0.0000   0.0000   0.0000   0.0000  -0.0000   0.0006  -0.0032  -0.0004   0.0000
    17   0.0000   0.0000  -0.0000  -0.0000   0.0000  -0.0000   0.0000  -0.0000  -0.0000   0.0000
    18   0.0000   0.0000   0.0000  -0.0000   0.0000   0.0000   0.0000  -0.0000  -0.0000  -0.0000
    19   0.0000   0.0000   0.0000   0.0000   0.0000  -0.0000   0.0002  -0.0039  -0.0006   0.0000
    20  -0.0000  -0.0001  -0.0000   0.0000  -0.0000   0.0000  -0.0015   0.0030  -0.0001  -0.0000
    21  -0.0000  -0.0000  -0.0000   0.0000  -0.0000   0.0000  -0.0003   0.0009   0.0001  -0.0000
    22  -0.0000  -0.0000   0.0000   0.0000  -0.0000  -0.0000  -0.0000   0.0000  -0.0000  -0.0000
    23   0.0000   0.0000   0.0000   0.0000  -0.0000   0.0000   0.0000  -0.0000  -0.0000   0.0000
    24  -0.0000  -0.0000  -0.0000   0.0000  -0.0000  -0.0000  -0.0000   0.0000  -0.0000  -0.0000
    25  -0.0000  -0.0000   0.0000   0.0000   0.0000  -0.0000  -0.0000   0.0000   0.0000   0.0001
    26  -0.0000  -0.0000   0.0000   0.0000   0.0000   0.0000  -0.0000  -0.0000   0.0000  -0.0000
    27  -0.0000   0.0000   0.0000   0.0000   0.0000   0.0000   0.0000   0.0000   0.0000  -0.0000
    28   0.0000   0.0000   0.0000   0.0000   0.0000   0.0000   0.0005  -0.0010  -0.0000   0.0000
    29   0.0000  -0.0000   0.0000  -0.0000   0.0000  -0.0000  -0.0010  -0.0012  -0.0002   0.0000
    30   0.0000  -0.0000   0.0000   0.0000  -0.0000  -0.0000  -0.0000  -0.0000   0.0000  -0.0000
    31   0.0000  -0.0000  -0.0000   0.0000  -0.0000   0.0000  -0.0000  -0.0000   0.0000   0.0002
    32   0.0000  -0.0000   0.0000   0.0000   0.0000  -0.0000  -0.0009  -0.0008  -0.0000   0.0000
    33   0.0000  -0.0000   0.0000   0.0000  -0.0000   0.0000  -0.0000  -0.0000   0.0000   0.0000
    34   0.0000  -0.0000   0.0000   0.0000   0.0000  -0.0000  -0.0000  -0.0000   0.0000  -0.0000
    35  -0.0000   0.0000  -0.0000  -0.0000   0.0000   0.0000   0.0000   0.0000  -0.0000  -0.0000
    36  -0.0000   0.0000   0.0000  -0.0000  -0.0000  -0.0000   0.0000   0.0000  -0.0000  -0.0000
    37  -0.0000  -0.0000  -0.0000   0.0000  -0.0000  -0.0000  -0.0000   0.0000   0.0000  -0.0000
    38   0.0000  -0.0000   0.0000   0.0000   0.0000  -0.0000  -0.0000  -0.0000  -0.0000  -0.0001
    39   0.0000  -0.0000   0.0000   0.0000   0.0000  -0.0000  -0.0003  -0.0006   0.0000   0.0000
    40  -0.0000   0.0000   0.0000   0.0000  -0.0000   0.0000   0.0000  -0.0000  -0.0000   0.0000
    41  -0.0000   0.0000   0.0000   0.0000  -0.0000  -0.0000   0.0000   0.0000  -0.0000  -0.0000
    42   0.0000   0.0000   0.0000   0.0000   0.0000  -0.0000  -0.0002  -0.0008   0.0000   0.0000
    43  -0.0000  -0.0000   0.0000   0.0000   0.0000   0.0000  -0.0005   0.0005   0.0002  -0.0000
    44   0.0000   0.0000  -0.0000  -0.0000  -0.0000  -0.0000   0.0000  -0.0007   0.0001   0.0000
    45   0.0000   0.0000  -0.0000  -0.0000  -0.0000   0.0000   0.0000  -0.0000   0.0000   0.0000
    46   0.0000   0.0000  -0.0000  -0.0000  -0.0000  -0.0000   0.0000  -0.0000   0.0000  -0.0000
    47   0.0000  -0.0000  -0.0000  -0.0000   0.0000  -0.0000  -0.0000  -0.0000  -0.0000   0.0001
    48   0.0000   0.0000  -0.0000  -0.0000   0.0000   0.0000  -0.0000  -0.0000  -0.0000  -0.0000
    49   0.0000  -0.0000  -0.0000  -0.0000  -0.0000  -0.0000  -0.0000  -0.0000   0.0000   0.0000
    50   0.0000   0.0000  -0.0000  -0.0000  -0.0000   0.0000  -0.0000  -0.0000   0.0000  -0.0000
    51  -0.0000  -0.0000  -0.0000  -0.0000   0.0000  -0.0000  -0.0000   0.0000   0.0000  -0.0000
    52  -0.0000  -0.0000  -0.0000  -0.0000   0.0000   0.0000  -0.0000   0.0000   0.0000   0.0000
    53   0.0000   0.0000   0.0000   0.0000   0.0000   0.0000   0.0002  -0.0002  -0.0002   0.0000
    54  -0.0000  -0.0000  -0.0000  -0.0000  -0.0000  -0.0000   0.0001  -0.0000  -0.0002  -0.0000
    55  -0.0000   0.0000  -0.0000   0.0000  -0.0000   0.0000   0.0000   0.0000   0.0000  -0.0000
    56  -0.0000  -0.0000  -0.0000   0.0000  -0.0000  -0.0000  -0.0000  -0.0000  -0.0000   0.0000
    57  -0.0000  -0.0000   0.0000   0.0000   0.0000   0.0000  -0.0000   0.0001   0.0000  -0.0000
    58  -0.0000   0.0000   0.0001   0.0000   0.0000   0.0000   0.0000  -0.0002  -0.0000   0.0000
    59   0.0000  -0.0000   0.0000  -0.0000   0.0000  -0.0000  -0.0000  -0.0000  -0.0000   0.0000
    60   0.0000  -0.0000   0.0000  -0.0000   0.0000  -0.0000  -0.0000  -0.0000  -0.0000  -0.0000
    61   0.0000  -0.0000   0.0000   0.0000  -0.0000  -0.0000  -0.0000  -0.0000  -0.0000  -0.0000
    62   0.0000  -0.0000  -0.0000   0.0000  -0.0000   0.0000  -0.0000  -0.0000   0.0000   0.0000
    63   0.0000  -0.0000   0.0000   0.0000   0.0000   0.0000  -0.0000   0.0002   0.0000  -0.0000
    64   0.0000   0.0000   0.0000   0.0000  -0.0000   0.0001   0.0000   0.0000   0.0000  -0.0000
    65  -0.0000   0.0000   0.0000   0.0000  -0.0001  -0.0000   0.0000   0.0000   0.0000   0.0000
    66  -0.0000   0.0000   0.0000  -0.0001  -0.0000  -0.0000   0.0000   0.0000  -0.0000   0.0000
    67  -0.0001  -0.0000   0.0000   0.0000   0.0000   0.0000  -0.0000  -0.0000   0.0000  -0.0000
    68  -0.0000  -1.0000  -0.0000   0.0000  -0.0000   0.0000   0.0001   0.0001  -0.0000  -0.0000
    69   0.0000  -0.0001   0.0000  -0.0000   0.0000  -0.0000  -1.0001  -0.0011   0.0030   0.0000
    70   0.0000   0.0000   0.0000   0.0000   0.0000   0.0000  -0.0014  -0.0001  -0.4346   0.7540
    71   0.0000   0.0000   0.0000   0.0000  -0.0000   0.0000  -0.0022  -0.0001  -0.6840   0.0796
    72   0.0000   0.0000   0.0000   0.0000   0.0000  -0.0000  -0.0019  -0.0001  -0.5860  -0.6521
    73   0.0000   0.0000   0.0000  -0.0000   0.0000  -0.0000   0.0008  -0.0047  -0.0004   0.0000
    74  -0.0000  -0.0000  -0.0000  -0.0000   0.0000   0.0000   0.0003   0.0018   0.0003  -0.0000
    75   0.0000   0.0000   0.0000   0.0000   0.0000   0.0000  -0.0002  -0.0010  -0.0001  -0.0001
    76  -0.0000  -0.0000  -0.0000  -0.0000  -0.0000   0.0000   0.0001   0.0003   0.0001  -0.0001
    77  -0.0000  -0.0000  -0.0000  -0.0000  -0.0000   0.0000  -0.0010   0.0040   0.0003  -0.0000
    78  -0.0000  -0.0000   0.0000  -0.0000  -0.0000   0.0000  -0.0004   0.0004   0.0001   0.0001
    79   0.0000   0.0000  -0.0000   0.0000  -0.0000   0.0000   0.0009  -0.0010  -0.0002   0.0001
    80   0.0000   0.0000  -0.0000   0.0000  -0.0000  -0.0000   0.0002  -0.0002  -0.0000  -0.0001
    81  -0.0000   0.0000  -0.0000  -0.0000   0.0000  -0.0000   0.0003   0.0001   0.0002  -0.0000
    82  -0.0000   0.0000  -0.0000  -0.0000  -0.0000   0.0000   0.0004   0.0001   0.0002   0.0003
    83  -0.0000   0.0000  -0.0000  -0.0000   0.0000  -0.0000   0.0002   0.0001   0.0001  -0.0001
    84  -0.0000   0.0000  -0.0000  -0.0000  -0.0000  -0.0000   0.0002   0.0001   0.0001  -0.0001
    85   0.0000  -0.0000   0.0000   0.0000   0.0000   0.0000  -0.0005  -0.0001  -0.0003   0.0001
    86  -0.0000  -0.0000   0.0000   0.0000  -0.0000   0.0000  -0.0000   0.0000  -0.0000   0.0001
    87   0.0000   0.0000  -0.0000  -0.0000   0.0000   0.0000   0.0002  -0.0001   0.0002   0.0001
    88  -0.0000  -0.0000   0.0000   0.0000  -0.0000   0.0000  -0.0001   0.0000  -0.0001   0.0001
    89   0.0000   0.0000  -0.0000  -0.0000  -0.0000  -0.0000   0.0002  -0.0001   0.0002  -0.0000
    90   0.0000   0.0000  -0.0000  -0.0000   0.0000   0.0000   0.0001  -0.0001   0.0001   0.0000
    91   0.0000   0.0000  -0.0000  -0.0000   0.0000   0.0000   0.0001  -0.0000   0.0001   0.0000
    92   0.0000   0.0000  -0.0000  -0.0000   0.0000   0.0000   0.0000  -0.0000   0.0000   0.0001
    93  -0.0000  -0.0000   0.0000  -0.0000  -0.0000  -0.0000  -0.0013  -0.0000  -0.0001  -0.0000
    94  -0.0000   0.0000  -0.0000   0.0000  -0.0000   0.0000   0.0002   0.0002   0.0002   0.0004
    95   0.0000  -0.0000   0.0000  -0.0000  -0.0000  -0.0000  -0.0002  -0.0002  -0.0002  -0.0002
    96   0.0000  -0.0000   0.0000  -0.0000   0.0000   0.0000  -0.0003  -0.0004  -0.0004   0.0004
    97  -0.0000   0.0001  -0.0000  -0.0000  -0.0000  -0.0000   0.0002   0.0001  -0.0000  -0.0000
    98  -0.0000   0.0000  -0.0000   0.0000   0.0000   0.0000   0.0001   0.0000   0.0005   0.0000
    99   0.0000  -0.0000   0.0000  -0.0000   0.0000   0.0000  -0.0001  -0.0000  -0.0003   0.0002
   100   0.0000  -0.0000   0.0000  -0.0000   0.0000  -0.0000  -0.0000  -0.0000  -0.0001  -0.0004
   101   0.0000   0.0001   0.0000   0.0000   0.0000   0.0000  -0.0000   0.0000   0.0000   0.0000

 MOs :     11       12       13       14       15       16       17       18       19       20
 occup:   2.00     2.00     2.00     2.00     2.00     2.00     2.00     2.00     2.00     2.00
 CF+SFO
     1  -0.0000   0.0000   0.0000   0.0000   0.0000  -0.0000  -0.0000  -0.0000  -0.0000  -0.0000
     2  -0.0000  -0.0000  -0.0000  -0.0000   0.0000  -0.0000  -0.0000   0.0000   0.0000  -0.0001
     3   0.0000  -0.0000  -0.0000   0.0000  -0.0000   0.0000   0.0000  -0.0000  -0.0000   0.0000
     4  -0.0000  -0.0000  -0.0000   0.0000  -0.0000   0.0000  -0.0000  -0.0000  -0.0000  -0.0000
     5  -0.0000  -0.0000   0.0000   0.0000  -0.0000  -0.0000  -0.0000  -0.0000   0.0000  -0.0000
     6   0.0000   0.0026   0.0000   0.0000  -0.0015   0.0000   0.0000  -0.0000  -0.0000   0.0004
     7  -0.0000  -1.0000  -0.0002  -0.0002   0.0011   0.0000  -0.0000   0.0000   0.0000  -0.0004
     8   0.0000   0.0002  -0.9999  -0.0165  -0.0000  -0.0011  -0.0002  -0.0000   0.0000  -0.0000
     9  -0.0000   0.0002   0.0165  -0.9999  -0.0000   0.0002  -0.0011  -0.0000  -0.0000  -0.0000
    10  -0.0000   0.0011   0.0000  -0.0000   1.0000  -0.0000  -0.0008   0.0005   0.0001  -0.0004
    11   0.0000  -0.0000   0.0011  -0.0002   0.0000  -0.9998   0.0220   0.0001   0.0003  -0.0000
    12   0.0000  -0.0000  -0.0002  -0.0011   0.0008   0.0220   0.9998   0.0003  -0.0001   0.0000
    13  -0.0000  -0.0000   0.0000   0.0000   0.0005  -0.0001   0.0003  -1.0000   0.0075   0.0000
    14   0.0000  -0.0000  -0.0000   0.0000   0.0001  -0.0003  -0.0001  -0.0075  -1.0000   0.0000
    15  -0.0000   0.0001   0.0000   0.0000  -0.0015   0.0000   0.0000  -0.0000  -0.0000   0.1283
    16  -0.0000   0.0005   0.0000   0.0000   0.0003  -0.0000  -0.0000  -0.0000  -0.0000   0.1074
    17   0.0000   0.0000   0.0001  -0.0001   0.0000   0.0000  -0.0000   0.0000  -0.0000   0.0000
    18   0.0000   0.0000  -0.0001  -0.0001   0.0000  -0.0000  -0.0000  -0.0000   0.0000   0.0000
    19  -0.0000  -0.0001  -0.0000   0.0000   0.0001  -0.0000   0.0000  -0.0000  -0.0000   0.0838
    20   0.0000  -0.0002  -0.0000  -0.0000  -0.0000   0.0000  -0.0000   0.0000   0.0000   0.0207
    21   0.0000   0.0001   0.0000  -0.0000   0.0003  -0.0000  -0.0000   0.0000   0.0000  -0.0045
    22   0.0000  -0.0000   0.0000   0.0000   0.0000  -0.0000   0.0001   0.0000  -0.0000   0.0000
    23   0.0000   0.0000  -0.0000   0.0000  -0.0000  -0.0001  -0.0000  -0.0000   0.0000   0.0000
    24  -0.0001   0.0000  -0.0000   0.0000   0.0000  -0.0001   0.0002   0.0000   0.0000   0.0000
    25  -0.0000   0.0000   0.0000   0.0000   0.0000   0.0002   0.0001  -0.0000  -0.0000   0.0000
    26   0.0000   0.0000  -0.0000  -0.0000   0.0000   0.0000   0.0000  -0.0001   0.0005   0.0000
    27  -0.0000   0.0000   0.0000  -0.0000   0.0000  -0.0000   0.0000  -0.0005  -0.0001  -0.0000
    28  -0.0000   0.0000  -0.0000   0.0000  -0.0002  -0.0000   0.0000  -0.0000  -0.0000  -0.0108
    29   0.0000   0.0001   0.0000   0.0000  -0.0004  -0.0000   0.0000  -0.0000  -0.0000   0.0200
    30   0.0002  -0.0000   0.0000   0.0001   0.0000  -0.0000   0.0001   0.0000  -0.0000  -0.0000
    31   0.0000   0.0000  -0.0001   0.0000  -0.0000  -0.0001  -0.0000   0.0000   0.0000  -0.0000
    32   0.0000  -0.0000  -0.0000   0.0000   0.0001  -0.0000  -0.0000  -0.0000  -0.0000   0.0055
    33   0.0000   0.0000   0.0000  -0.0000   0.0000   0.0000  -0.0000   0.0000  -0.0002   0.0000
    34  -0.0000   0.0000  -0.0000   0.0000  -0.0000  -0.0000   0.0000   0.0002   0.0000   0.0000
    35  -0.0000  -0.0000  -0.0000   0.0000  -0.0000  -0.0000   0.0000   0.0000   0.0000  -0.0000
    36   0.0000  -0.0000  -0.0000  -0.0000   0.0000  -0.0000  -0.0000  -0.0000   0.0000  -0.0000
    37   0.0001   0.0000   0.0000  -0.0001  -0.0000   0.0000  -0.0001  -0.0000  -0.0000  -0.0000
    38  -0.0000   0.0000  -0.0001  -0.0000  -0.0000  -0.0001  -0.0000   0.0000   0.0000   0.0000
    39  -0.0000   0.0005   0.0000   0.0000  -0.0000   0.0000   0.0000  -0.0000  -0.0000  -0.0000
    40   0.0000  -0.0000  -0.0000   0.0003   0.0000  -0.0000   0.0001   0.0000  -0.0000  -0.0000
    41   0.0000  -0.0000   0.0003   0.0000   0.0000   0.0001   0.0000   0.0000  -0.0000   0.0000
    42  -0.0000  -0.0003  -0.0000   0.0000  -0.0001   0.0000   0.0000  -0.0000  -0.0000  -0.0113
    43   0.0000  -0.0003  -0.0000  -0.0000  -0.0002   0.0000   0.0000  -0.0000  -0.0000   0.0161
    44  -0.0000  -0.0000  -0.0000   0.0000   0.0007  -0.0000  -0.0000   0.0000   0.0000   0.0001
    45  -0.0000  -0.0000  -0.0000   0.0000   0.0000  -0.0000   0.0000   0.0000  -0.0000  -0.0000
    46   0.0000  -0.0000   0.0000   0.0000   0.0000  -0.0000  -0.0000  -0.0000  -0.0000   0.0000
    47   0.0000  -0.0000  -0.0000   0.0000   0.0000  -0.0004   0.0001   0.0000   0.0000  -0.0000
    48   0.0001  -0.0000   0.0000   0.0000   0.0000   0.0001   0.0004   0.0000  -0.0000  -0.0000
    49  -0.0000  -0.0000  -0.0000   0.0000  -0.0000  -0.0000  -0.0000  -0.0000  -0.0000  -0.0000
    50   0.0000  -0.0000  -0.0000   0.0000   0.0000  -0.0000   0.0000   0.0000  -0.0000   0.0000
    51  -0.0000  -0.0000   0.0000  -0.0000   0.0000  -0.0003  -0.0000   0.0000   0.0000   0.0000
    52  -0.0000  -0.0000  -0.0000  -0.0000   0.0000  -0.0000   0.0003   0.0000  -0.0000   0.0000
    53  -0.0000   0.0000  -0.0000  -0.0000  -0.0003  -0.0000   0.0000  -0.0000  -0.0000  -0.0015
    54   0.0000  -0.0000  -0.0000  -0.0000   0.0003  -0.0000  -0.0000   0.0000   0.0000   0.0029
    55  -0.0000  -0.0000  -0.0000   0.0002  -0.0000   0.0000  -0.0001  -0.0000  -0.0000   0.0000
    56  -0.0000  -0.0000   0.0002   0.0000  -0.0000  -0.0001  -0.0000   0.0000   0.0000   0.0000
    57   0.0000   0.0000   0.0000  -0.0000  -0.0000   0.0000   0.0000  -0.0000  -0.0000   0.0003
    58  -0.0000   0.0000   0.0000   0.0000  -0.0001   0.0000   0.0000  -0.0000  -0.0000  -0.0001
    59  -0.0000  -0.0000  -0.0000   0.0000   0.0000  -0.0000  -0.0000   0.0000  -0.0004  -0.0000
    60   0.0000  -0.0000  -0.0000   0.0000   0.0000  -0.0000   0.0000  -0.0004  -0.0000  -0.0000
    61   0.0000   0.0000  -0.0001  -0.0000   0.0000   0.0004   0.0001   0.0000  -0.0000   0.0000
    62   0.0000  -0.0000   0.0000  -0.0001   0.0000  -0.0001   0.0004   0.0000   0.0000  -0.0000
    63   0.0000   0.0001   0.0000   0.0000   0.0004  -0.0000  -0.0000   0.0000   0.0000   0.0001
    64  -0.0000  -0.0000   0.0001  -0.0000  -0.0000   0.0000  -0.0000  -0.0000   0.0000   0.0000
    65  -0.0000   0.0000  -0.0000  -0.0001  -0.0000  -0.0000  -0.0000  -0.0000  -0.0000   0.0000
    66  -0.0000  -0.0001  -0.0000  -0.0000  -0.0000  -0.0000   0.0000  -0.0000  -0.0000  -0.0000
    67  -0.0000  -0.0000  -0.0000   0.0000   0.0000  -0.0000  -0.0000  -0.0000   0.0000  -0.0000
    68  -0.0000  -0.0000   0.0000  -0.0000   0.0000   0.0000  -0.0000   0.0000   0.0000  -0.0013
    69  -0.0000   0.0000  -0.0000   0.0000  -0.0000  -0.0000   0.0000  -0.0000  -0.0000   0.0102
    70  -0.4927   0.0000  -0.0000  -0.0000  -0.0000   0.0000   0.0000  -0.0000  -0.0000   0.0022
    71   0.7252   0.0000  -0.0000   0.0000  -0.0000   0.0000  -0.0000  -0.0000  -0.0000   0.0034
    72  -0.4811   0.0000   0.0000  -0.0000  -0.0000  -0.0000   0.0000  -0.0000  -0.0000   0.0030
    73  -0.0000   0.0002  -0.0000   0.0000  -0.0001  -0.0000   0.0000  -0.0000  -0.0000  -0.9210
    74   0.0001  -0.0001  -0.0000  -0.0000   0.0000   0.0000   0.0000   0.0000   0.0000   0.0414
    75   0.0001   0.0001  -0.0000  -0.0000  -0.0000   0.0000   0.0000  -0.0000  -0.0000  -0.0229
    76  -0.0001  -0.0000  -0.0001   0.0001   0.0000   0.0000  -0.0000   0.0000  -0.0000   0.0079
    77   0.0000  -0.0002  -0.0000  -0.0000  -0.0000   0.0000  -0.0000   0.0000   0.0000  -0.0270
    78   0.0001  -0.0001  -0.0001   0.0001  -0.0000   0.0000  -0.0000   0.0000  -0.0000  -0.0086
    79   0.0000   0.0002  -0.0000   0.0000   0.0000   0.0000  -0.0000  -0.0000  -0.0000   0.0183
    80   0.0002   0.0000   0.0001   0.0001   0.0000  -0.0000  -0.0000  -0.0000   0.0000   0.0037
    81  -0.0002  -0.0000   0.0000  -0.0000   0.0000  -0.0000   0.0000  -0.0000   0.0000   0.0087
    82  -0.0000  -0.0000  -0.0000  -0.0000   0.0000   0.0000   0.0000   0.0000  -0.0000   0.0096
    83  -0.0002  -0.0000   0.0000  -0.0000   0.0000  -0.0000   0.0000   0.0000  -0.0000   0.0055
    84   0.0002  -0.0000   0.0000   0.0000   0.0000  -0.0000  -0.0000   0.0000   0.0000   0.0052
    85  -0.0001   0.0000  -0.0000  -0.0000  -0.0000   0.0000   0.0000   0.0000   0.0000  -0.0128
    86   0.0001  -0.0000  -0.0000   0.0000   0.0000   0.0000  -0.0000   0.0000  -0.0000  -0.0006
    87  -0.0000   0.0000  -0.0000  -0.0000  -0.0000   0.0000   0.0000  -0.0000  -0.0000   0.0028
    88   0.0001  -0.0000  -0.0000   0.0000   0.0000   0.0000  -0.0000   0.0000   0.0000  -0.0011
    89   0.0001   0.0000   0.0000   0.0000  -0.0000   0.0000  -0.0000  -0.0000   0.0000   0.0028
    90  -0.0000   0.0000  -0.0000  -0.0000  -0.0000  -0.0000   0.0000   0.0000   0.0000   0.0022
    91  -0.0001   0.0000  -0.0000  -0.0000  -0.0000  -0.0000   0.0000  -0.0000   0.0000   0.0016
    92  -0.0000   0.0000  -0.0000  -0.0000  -0.0000   0.0000   0.0000  -0.0000   0.0000   0.0003
    93   0.0000  -0.0000  -0.0000   0.0000  -0.0000  -0.0000   0.0000  -0.0000  -0.0000   0.0008
    94   0.0003  -0.0000   0.0000  -0.0000   0.0000   0.0000  -0.0000   0.0000   0.0000  -0.0016
    95   0.0005   0.0000  -0.0000  -0.0000  -0.0000  -0.0000  -0.0000  -0.0000  -0.0000   0.0013
    96  -0.0001   0.0000   0.0000   0.0000  -0.0000   0.0000   0.0000  -0.0000  -0.0000   0.0028
    97   0.0000  -0.0000  -0.0000  -0.0000  -0.0000  -0.0000   0.0000  -0.0000  -0.0000   0.0005
    98  -0.0003  -0.0000  -0.0000   0.0000  -0.0000  -0.0000   0.0000   0.0000   0.0000  -0.0001
    99  -0.0003   0.0000   0.0000   0.0000   0.0000   0.0000   0.0000  -0.0000  -0.0000   0.0001
   100  -0.0002   0.0000  -0.0000   0.0000   0.0000  -0.0000   0.0000  -0.0000   0.0000   0.0000
   101   0.0000   0.0000   0.0000  -0.0000   0.0000   0.0000  -0.0000   0.0000   0.0000  -0.0001

 MOs :     21       22       23       24       25       26       27       28       29       30
 occup:   2.00     2.00     2.00     2.00     2.00     2.00     2.00     0.00     0.00     0.00
 CF+SFO
     1   0.0000   0.0001  -0.0000  -0.0000   0.0001   0.0000  -0.0000  -0.0005   0.0001   0.0002
     2  -0.0000   0.0005  -0.0000  -0.0000   0.0007   0.0000  -0.0000  -0.0035   0.0007   0.0016
     3   0.0000  -0.0001   0.0000   0.0000  -0.0001  -0.0000   0.0000   0.0005  -0.0001  -0.0002
     4  -0.0000   0.0000   0.0000   0.0000   0.0000   0.0000   0.0000  -0.0000   0.0000  -0.0000
     5  -0.0000   0.0000  -0.0000   0.0000   0.0000  -0.0000   0.0000  -0.0000  -0.0000   0.0000
     6  -0.0003  -0.0026  -0.0000   0.0000  -0.0035  -0.0000   0.0000   0.0168  -0.0035  -0.0075
     7   0.0000   0.0012  -0.0000  -0.0000   0.0021   0.0000  -0.0000  -0.0085   0.0014   0.0031
     8  -0.0000   0.0000  -0.0000   0.0006   0.0000  -0.0002   0.0000  -0.0000   0.0000   0.0000
     9  -0.0000  -0.0000   0.0006   0.0000   0.0000   0.0000   0.0002  -0.0000  -0.0000  -0.0000
    10   0.0015   0.0014  -0.0000  -0.0000   0.0012   0.0000  -0.0000  -0.0055   0.0008   0.0019
    11   0.0000   0.0000  -0.0002   0.0007   0.0000  -0.0001  -0.0000  -0.0000   0.0000   0.0000
[...]

 column          89                    90                    91                    92
 row
   89    1.00000000000000E+00
   90    7.38525785051564E-16  9.99999999999997E-01
   91   -3.07677733377032E-16 -8.07045362643517E-16  1.00000000000000E+00
   92    5.98724005543806E-16  8.79676348205551E-16 -5.12265161674611E-16  9.99999999999999E-01
   93   -1.04247627071257E-16 -9.94776404381336E-17 -4.97451862010610E-18  8.48824653548315E-17
   94    6.63075522909693E-16  2.69036087014569E-16 -3.71456955186174E-16 -3.23488361034975E-16
   95    2.13628194393537E-17  3.73774781436997E-16 -7.29188641434599E-16  4.42374483961703E-15
   96   -4.39747213083319E-16 -8.28876690150786E-16 -4.52881226554105E-16 -3.24441650294995E-16
   97    2.93398210415480E-16 -3.12592797563430E-16  5.49567800786807E-16  9.14177894184027E-17
   98    8.39055749775737E-17  9.92401271057675E-17 -1.56368171589105E-17 -1.99617596120932E-16
   99    3.70912485054657E-17 -4.92604537298935E-16  4.81769728589021E-16 -6.32957080231708E-16
  100   -1.56030308013547E-16 -5.18704123798012E-16  1.47403065687525E-16 -6.68612435838010E-16
  101    1.85371466440709E-16 -1.06970096842851E-16  4.17417836406919E-18 -2.66779803001320E-16

 column          93                    94                    95                    96
 row
   93    1.00000000000000E+00
   94    1.37772449969754E-16  1.00000000000000E+00
   95   -2.46714439513813E-16 -9.17067113640944E-16  9.99999999999998E-01
   96   -5.38950123678966E-17  5.60462219440384E-16 -8.68338366976588E-16  9.99999999999998E-01
   97    1.28566226742966E-14 -1.32641082023640E-15  3.69559627854104E-16  1.36580844019556E-15
   98   -9.89410715358276E-16  4.91786693901136E-16  4.23898485486362E-16 -2.33796340035237E-16
   99    6.13218396010697E-16 -6.91976684116704E-16 -8.96592315602557E-16  3.96262553274533E-16
  100    4.66030751315738E-16 -6.30915667135918E-16  4.53273905734496E-16  6.55466175958255E-16
  101   -7.89255813482548E-15 -9.41087485717418E-17  4.16333634234434E-17  2.94902990916057E-16

 column          97                    98                    99                   100
 row
   97    1.00000000000006E+00
   98    8.55245355194404E-16  1.00000000000000E+00
   99   -8.40475006418421E-16 -4.03077674489022E-16  1.00000000000000E+00
  100   -1.13812831331421E-15 -3.47465091062331E-17 -1.29025937463825E-15  1.00000000000000E+00
  101   -4.41929479122471E-14  1.15359111152458E-16 -7.31836466427715E-17  2.09630490050072E-16

 column         101
 row
  101    1.00000000000003E+00


 SFO contributions (%) per orbital
 (multiplication by the orbital occupation yields the SFO Gross Populations)

 Orb.:       18     19     20     21     22     23     24     25     26     27     28     29     30     31
 occup:     2.00   2.00   2.00   2.00   2.00   2.00   2.00   2.00   2.00   2.00   0.00   0.00   0.00   0.00
 CF+SFO     ----   ----   ----   ----   ----   ----   ----   ----   ----   ----   ----   ----   ----   ----
 ------
     13:   99.99   0.01   0.00   0.00  -0.00  -0.00   0.00  -0.00   0.00   0.00   0.00  -0.00  -0.00   0.00
     14:    0.01  99.99   0.00   0.00  -0.00   0.00  -0.00  -0.00   0.00  -0.00   0.00  -0.00  -0.00   0.00
     15:    0.00   0.00   2.03  97.55   0.23   0.00  -0.00   0.12  -0.00  -0.00  -0.09   0.03   0.03   0.00
     16:   -0.00  -0.00   3.34   0.07  34.11   0.00   0.00  57.55   0.00   0.00   7.01   0.62  -0.19  -0.00
     17:    0.00   0.00   0.00   0.00   0.00   1.20   0.36   0.00  44.05  54.10   0.00   0.00   0.00   0.09
     18:    0.00   0.00   0.00   0.00   0.00   0.36   1.20   0.00  54.10  44.05   0.00  -0.00   0.00   0.26
     19:   -0.00  -0.00   3.70   0.04   3.75   0.00  -0.00  21.35   0.00   0.00  63.92   9.54   2.39   0.00
     20:   -0.00  -0.00  -0.51  -0.04   1.51   0.00   0.00   0.92   0.00  -0.00  37.84  69.26   0.04   0.00
     21:    0.00   0.00   0.03   0.01   0.05  -0.00   0.00  -0.03   0.00  -0.00   2.69   0.97  86.69   0.00
     22:   -0.00   0.00  -0.00   0.00   0.00   0.18   0.01   0.00   0.00   0.17   0.00   0.00   0.00   2.55
     23:    0.00   0.00   0.00   0.00   0.00   0.01   0.18   0.00   0.17   0.00   0.00   0.00   0.00  88.35
     29:    0.00   0.00   0.63   0.03   0.10   0.00   0.00   0.47   0.00   0.00   0.43   0.16   1.03   0.00
     32:   -0.00  -0.00   0.12   0.00   0.01   0.00   0.00  -0.09  -0.00  -0.00  -1.08  -0.09   0.11  -0.00
     42:    0.00   0.00  -0.16  -0.00  -0.05   0.00   0.00  -0.16  -0.00  -0.00  -1.40  -0.05   0.01  -0.00
     73:    0.00   0.00  90.16   1.97   4.37   0.00  -0.00  -0.03  -0.00   0.00   1.68  -0.43   0.02  -0.00
     74:    0.00   0.00   0.46   0.24  41.45  18.38   6.32  14.20   0.03   0.35   7.54   9.07   0.31  -0.01
     75:    0.00  -0.00   0.14   0.07  12.64  28.23  46.81   4.33   0.46   0.71   2.30   2.77   0.09  -0.06
     76:    0.00  -0.00   0.02   0.01   1.50  50.51  43.98   0.51   1.02   0.46   0.27   0.33   0.01  -0.06
     77:    0.00   0.00  -0.07   0.04  -0.33  -0.00   0.00   0.16  -0.00   0.00 -18.72  -1.43   7.30   0.00
     78:    0.00  -0.00  -0.01  -0.01  -0.09   0.08   0.09   0.09   0.04   0.01  -0.71   0.01   0.31   3.55
     79:    0.00   0.00  -0.06  -0.06  -0.39   0.00   0.04   0.43   0.01   0.00  -3.21   0.03   1.40   1.47
     80:   -0.00  -0.00  -0.00  -0.00  -0.02   0.13   0.08   0.02   0.01   0.05  -0.13   0.00   0.06   2.64
     81:   -0.00  -0.00   0.03   0.00   0.18   0.01   0.00   0.01   0.00   0.00   0.29   1.94   0.07   0.01
     82:   -0.00  -0.00   0.03   0.00   0.22   0.00   0.02   0.01   0.01   0.00   0.35   2.37   0.09   0.58
     85:   -0.00  -0.00   0.06   0.01   0.38   0.00   0.00   0.03   0.00   0.00   0.63   4.18   0.15   0.07


 Summation over all MOs, multiplied by occupation: Total SFO Gross Populations in this Irrep
 ===========================================================================================

     2.00    2.00    2.00    2.00    2.00    2.00    2.00    2.00    2.00    2.00    2.00    2.00
     2.00    2.00    2.00    1.90    1.99    1.99    0.58    0.04    0.00    0.01    0.01    0.01
     0.01    0.00    0.00    0.00    0.02    0.01    0.01    0.00    0.00    0.00    0.00    0.00
     0.00    0.00    0.00    0.00    0.00   -0.01    0.00    0.00    0.00    0.00    0.00    0.00
     0.00    0.00    0.00    0.00    0.00   -0.00   -0.00   -0.00   -0.00    0.00    0.00    0.00
     0.00    0.00   -0.00    0.00    0.00    0.00   -0.00    2.00    2.00    2.00    2.00    2.00
     1.93    1.63    1.87    1.96   -0.00    0.00   -0.00    0.01    0.00    0.01    0.00    0.00
     0.01    0.00    0.00    0.00    0.00    0.00    0.00    0.00   -0.00   -0.00   -0.00   -0.00
     0.00   -0.00   -0.00   -0.00    0.00



 List of all MOs, ordered by energy, with the most significant SFO gross populations
 ===================================================================================

 Each percentage contribution in the table below corresponds to the indicated SFO.
 In general, a SFO may be a linear combination of several Fragment Orbitals on the same,
 or on symmetry-related Fragments. Only the first 'member' of such a combination is
 specified here. A full definition of all SFOs is given in an earlier part of the output.
 The numbering of the SFOs in this table does NOT include the Core Orbitals, and starts
 from one for each symmetry representation, as in the SFO definition list earlier.

       E(eV)  Occ       MO           %     SFO (first member)   E(eV)  Occ   Fragment
 -------------------------------------------------------------------------------------

     -14.973  2.00    20 A         90.16%     6 A             -10.473  2.00     2 Cl
                                    3.70%    19 A              -4.318  0.00     1 BrH
                                    3.34%    16 A              -9.734  2.00     1 BrH
                                    2.03%    15 A             -18.954  2.00     1 BrH
     -12.507  2.00    21 A         97.55%    15 A             -18.954  2.00     1 BrH
                                    1.97%     6 A             -10.473  2.00     2 Cl
      -5.812  2.00    22 A         41.45%     7 A               0.909  2.00     2 Cl
                                   34.11%    16 A              -9.734  2.00     1 BrH
                                   12.64%     8 A               0.909  2.00     2 Cl
                                    4.37%     6 A             -10.473  2.00     2 Cl
                                    3.75%    19 A              -4.318  0.00     1 BrH
                                    1.51%    20 A               1.542  0.00     1 BrH
                                    1.50%     9 A               0.909  2.00     2 Cl
      -2.655  2.00    23 A         50.51%     9 A               0.909  2.00     2 Cl
                                   28.23%     8 A               0.909  2.00     2 Cl
                                   18.38%     7 A               0.909  2.00     2 Cl
                                    1.20%    17 A              -7.207  2.00     1 BrH
      -2.655  2.00    24 A         46.81%     8 A               0.909  2.00     2 Cl
                                   43.98%     9 A               0.909  2.00     2 Cl
                                    6.32%     7 A               0.909  2.00     2 Cl
                                    1.20%    18 A              -7.207  2.00     1 BrH
      -1.556  2.00    25 A         57.55%    16 A              -9.734  2.00     1 BrH
                                   21.35%    19 A              -4.318  0.00     1 BrH
                                   14.20%     7 A               0.909  2.00     2 Cl
                                    4.33%     8 A               0.909  2.00     2 Cl
      -1.258  2.00    26 A         54.10%    18 A              -7.207  2.00     1 BrH
                                   44.05%    17 A              -7.207  2.00     1 BrH
                                    1.02%     9 A               0.909  2.00     2 Cl
      -1.258  2.00    27 A         54.10%    17 A              -7.207  2.00     1 BrH
                                   44.05%    18 A              -7.207  2.00     1 BrH
       4.553  0.00    28 A         63.92%    19 A              -4.318  0.00     1 BrH
                                   37.84%    20 A               1.542  0.00     1 BrH
                                  -18.72%    10 A              12.914  0.00     2 Cl
                                    7.54%     7 A               0.909  2.00     2 Cl
                                    7.01%    16 A              -9.734  2.00     1 BrH
                                   -3.21%    12 A              13.299  0.00     2 Cl
                                    2.69%    21 A               3.611  0.00     1 BrH
                                    2.30%     8 A               0.909  2.00     2 Cl
                                    1.68%     6 A             -10.473  2.00     2 Cl
                                   -1.40%    42 A              39.933  0.00     1 BrH
                                   -1.08%    32 A              22.066  0.00     1 BrH
       6.078  0.00    29 A         69.26%    20 A               1.542  0.00     1 BrH
                                    9.54%    19 A              -4.318  0.00     1 BrH
                                    9.07%     7 A               0.909  2.00     2 Cl
                                    4.18%    18 A              20.162  0.00     2 Cl
                                    2.77%     8 A               0.909  2.00     2 Cl
                                    2.37%    15 A              20.162  0.00     2 Cl
                                    1.94%    14 A              20.162  0.00     2 Cl
                                   -1.43%    10 A              12.914  0.00     2 Cl
       8.480  0.00    30 A         86.69%    21 A               3.611  0.00     1 BrH
                                    7.30%    10 A              12.914  0.00     2 Cl
                                    2.39%    19 A              -4.318  0.00     1 BrH
                                    1.40%    12 A              13.299  0.00     2 Cl
                                    1.03%    29 A              10.889  0.00     1 BrH
       8.576  0.00    31 A         88.35%    23 A               3.823  0.00     1 BrH
                                    3.55%    11 A              13.299  0.00     2 Cl
                                    2.64%    13 A              13.299  0.00     2 Cl
                                    2.55%    22 A               3.823  0.00     1 BrH
                                    1.47%    12 A              13.299  0.00     2 Cl
       8.577  0.00    32 A         88.35%    22 A               3.823  0.00     1 BrH
                                    4.77%    13 A              13.299  0.00     2 Cl
                                    2.77%    11 A              13.299  0.00     2 Cl
                                    2.55%    23 A               3.823  0.00     1 BrH



 =======================================================================
 Electrostatic potential at the Nuclei due to electrons and other nuclei
 =======================================================================
  
         Atom                  Potential
         ----                  ---------
     1)   Br                176.19638855
     2)   H                   1.14846645
     3)   Cl                 64.63116514
 
 
 ========================
 No memory problems found
 ========================
 
 Maximum number of active allocate calls:         606
 
 *******************************************************************************

                             A D F   E X I T
 NORMAL TERMINATION



 =================
 Timing Statistics
 =================
  
 Total Used :                     CPU=        5.51      System=        0.18     Elapsed=        6.02

 Calls  Section                     ( Mean, Percentage )
 ---------------------------------------------------------------------------------------------------
     3  ><      ................      0.00    0.02             0.00    0.00             0.00    0.02
     1  INIT    ................      0.43    7.89             0.02   13.51             0.46    7.68
     1  GEOMET  ................      0.03    0.53             0.01    4.32             0.30    4.92
     1  FRAGM   ................      0.01    0.25             0.00    2.16             0.03    0.43
     1  INPUTA  ................      0.00    0.00             0.00    0.00             0.00    0.01
     1  ATDEN   ................      0.00    0.05             0.00    0.54             0.00    0.08
     1  MAINSY  ................      0.01    0.16             0.00    0.54             0.01    0.20
     1  SYMFIT  ................      0.00    0.05             0.00    0.00             0.00    0.04
     1  CORORT  ................      0.00    0.00             0.00    0.00             0.00    0.01
     1  SYMORB  ................      0.00    0.04             0.00    1.08             0.00    0.06
     1  CLSMAT  ................      0.01    0.22             0.00    0.54             0.01    0.22
     1  ORTHON  ................      0.01    0.18             0.00    0.00             0.01    0.16
     1  GENPT   ................      0.11    2.01             0.00    2.16             0.12    1.95
     1  PTBAS   ................      0.03    0.56             0.00    0.54             0.03    0.53
    14  FOCKY   ................      0.11   28.05             0.00    8.11             0.11   25.98
    14  FOCKTR  ................      0.00    0.34             0.00    1.62             0.00    0.45
    14  SDIIS   ................      0.00    0.93             0.00    1.08             0.00    0.89
     1  COREPS  ................      0.09    1.67             0.00    0.54             0.09    1.55
     1  TOTEN   ................      0.29    5.26             0.01    3.24             0.30    4.94
     1  POPAN   ................      0.00    0.07             0.00    0.00             0.01    0.14
     1  DEBYE   ................      0.01    0.13             0.00    0.00             0.01    0.11
     1  INPUTE  ................      0.00    0.00             0.00    0.00             0.00    0.01
     1  SYMORE  ................      0.00    0.02             0.00    0.00             0.00    0.02
     1  METS    ................      0.00    0.02             0.00    0.00             0.00    0.02
     1  CETS    ................      0.01    0.15             0.00    1.62             0.02    0.39
     1  POPUL   ................      2.80   50.90             0.10   56.76             2.93   48.70
     1  EXIT PROCEDURE .........      0.03    0.49             0.00    1.62             0.03    0.50


 Currently Open Files (EXIT00)
 ====================

 Unit    Access Format  Status   Type       Ident (file)
 -------------------------------------------------------
   3      SEQ    FORM   TRANSP  NORMAL      LOGFILE
                                          ( logfile )


 Buffered I/O statistics
 =======================
 Memory available:                     67108864
 Number of records fitting in memory:     16131
 Input :   1.3% of                        48768  *4k bytes
 Output:  13.0% of                         3784  *4k bytes
 Records from serial files evicted:           0
                    others evicted:           0
 Hash table lookups:     138196 with          0 conflicts (  0.00%)

 ***************************************************************************************************
 (LOGFILE)
 <May09-2019> <17:23:36>  ADF 2017  RunTime: May09-2019 17:23:36  Nodes: 1  Procs: 12
 <May09-2019> <17:23:36>  *** (NO TITLE) ***
 <May09-2019> <17:23:36>  RunType   : SINGLE POINT
 <May09-2019> <17:23:36>  Net Charge: -1 (Nuclei minus Electrons)
 <May09-2019> <17:23:36>  Symmetry  : NOSYM
 <May09-2019> <17:23:36>  >>>> FRAGM
  Coordinates
    Atom         X           Y           Z   (Angstrom)
    1.Br       -4.008834   -0.381143   -0.063856
    2.H        -2.507210    0.445110    0.798797
    3.Cl       -1.364452    1.073901    1.455288
 <May09-2019> <17:23:36>  >>>> CORORT
 <May09-2019> <17:23:36>  >>>> CLSMAT
 <May09-2019> <17:23:36>  >>>> ORTHON
 <May09-2019> <17:23:36>  >>>> GENPT
 <May09-2019> <17:23:37>  Block Length= 128
 <May09-2019> <17:23:37>  >>>> PTBAS
 <May09-2019> <17:23:37>  >>>> CYCLE
 <May09-2019> <17:23:37>              |Error|         MaxErr       Wt(A-DIIS)
 <May09-2019> <17:23:37>      1      1.15681742      0.75861227
 <May09-2019> <17:23:37>      2      0.41406894      0.10913193    100.0
 <May09-2019> <17:23:37>      3      0.36643864      0.09626688    100.0
 <May09-2019> <17:23:37>      4      0.36611733      0.09623162     96.2
 <May09-2019> <17:23:37>      5      0.78403150      0.23461430    100.0
 <May09-2019> <17:23:37>      6      0.13509131      0.03505787     34.4
 <May09-2019> <17:23:37>      7      0.06008566      0.01561275     14.8
 <May09-2019> <17:23:38>      8      0.01237369      0.00300461      2.0
 <May09-2019> <17:23:38>      9      0.00180083      0.00040288      0.0
 <May09-2019> <17:23:38>     10      0.00045884      0.00009727      0.0
 <May09-2019> <17:23:38>     11      0.00013339      0.00002861      0.0
 <May09-2019> <17:23:38>     12      0.00001374      0.00000284      0.0
 <May09-2019> <17:23:38>     13      0.00000145      0.00000049      0.0
 <May09-2019> <17:23:38>  SCF converged
 <May09-2019> <17:23:38>     14      0.00000006      0.00000002      0.0
 <May09-2019> <17:23:38>  >>>> TOTEN
 <May09-2019> <17:23:39>  >>>> POPAN
 <May09-2019> <17:23:39>  >>>> DEBYE
 <May09-2019> <17:23:39>  >>>> AMETS
 <May09-2019> <17:23:42>   Bond Energy          -0.10557186 a.u.
 <May09-2019> <17:23:42>   Bond Energy          -2.87275651 eV
 <May09-2019> <17:23:42>   Bond Energy         -66.25       kcal/mol
 <May09-2019> <17:23:42>  >>>> POPUL
 <May09-2019> <17:23:42>  NORMAL TERMINATION
 <May09-2019> <17:23:42>  END
