
Create H   file=TZ2P-H
XC
  GGA blyp
  DISPERSION Grimme3 BJDAMP
End
End Input

 *******************************************************************************
 *                                                                             *
 *  -------------------------------------                                      *
 *   Amsterdam Density Functional  (ADF)         development version           *
 *  -------------------------------------                                      *
 *                                               r61132 2017-09-08             *
 *                                                                             *
 *                                                                             *
 *                              =================                              *
 *                              |               |                              *
 *                              |     A D F     |                              *
 *                              |               |                              *
 *                              =================                              *
 *                                                                             *
 *                                                                             *
 *   Online information and documentation:  https://www.scm.com/support/       *
 *   E-mail:  support@scm.com   info@scm.com                                   *
 *                                                                             *
 *   Scientific publications using ADF results must be properly referenced     *
 *   See the User Manuals (or the web site) for recommended citations          *
 *   The terms and conditions of the End User License Agreement apply to       *
 *   the use of ADF, https://www.scm.com/license-terms/                        *
 *                                                                             *
 **********************  x86_64_linux_intel / intelmpi  ************************
 
 Licensed to: VU/FEW (+ SARA) / ALGEMEEN / Amsterdam / THE NETHERLANDS
 SCM User ID: u7668
  
 ADF development version  RunTime: Apr18-2019 14:04:41  Nodes: 1  Procs: 1

 Temporary files are created in /local/datastore0/tcst25/186714/kid_0.AFPkjy

 Hydrogen (TZ2P)



 ===========================
 A T T A C H E D   F I L E S
 ===========================
  
 CREATE - Data File:    TZ2P-H
                        Hydrogen (TZ2P)



 ===============================
 M O D E L   P A R A M E T E R S
 ===============================
  
 DENSITY FUNCTIONAL POTENTIAL (scf)
    LDA:                               Exchange only                           == Not Default ==
    Gradient Corrections:              Becke88 LYP                             == Not Default ==

 SPIN  (restricted / unrestr.)
    Molecule:                          Restricted                               

 OTHER ASPECTS
    Relativistic Corrections:          ---                                      

    Nuclear Charge Density Model:      Point Charge Nuclei                      
    Core Treatment:                    Frozen Orbital(s)                        

    Hyperfine or Zeeman Interaction:   ---                                      

 Settings for Grimme 3 dispersion correction

      damping                        BJ
      s6                          1.000
      a1                          0.430
      s8                          2.700
      a2                          4.236

 Other (technical) parameters

      alpha                      14.000
      version                         4
 



 =====================================
 S Y M M E T R Y ,   E L E C T R O N S
 =====================================
  
 Symmetry: ATOM

 Irreducible Representations, including subspecies
 -------------------------------------------------
 S
 P:x  P:y  P:z
 D:z2  D:x2-y2  D:xy  D:xz  D:yz
 F:z3  F:z  F:xyz  F:z2x  F:z2y  F:x  F:y


 Configuration of Valence Electrons
 ==================================

          Occupation Numbers
          -------------------------------------------------
 S        1
 P        0
 D        0
 F        0
          -------------------------------------------------

 Total:   1

 Net Charge: 0 (Nuclei minus Electrons)

 Preset values for MO occupations will be applied through SCF cycle no. 1000000
 Thereafter, the program will assign electrons to MOs that are spatially
 similar to the occupied MOs in a "reference" cycle ("KeepOrbitals").
 The reference cycle is always the PREVIOUS cycle: it will evolve with
 the SCF procedure.



 ================================
 (Slater-type)  F U N C T I O N S  ***  (Basis and Fit)  ***
 ================================
  

 Atom Type    1  (H)
 ==============

 Valence Basis Sets:   5
 -----------------------
   1 S    0.690000
   1 S    0.920000
   1 S    1.580000
   2 P    1.250000
   3 D    2.500000


 BAS: List of all Elementary Cartesian Basis Functions
 =====================================================

 The numbering in the list below (to the right of the function characteristics) is referred
 to in print-outs of MO eigenvectors and Mulliken populations in the BAS representation
 (as contrasted to the SFO representation).

 Notes:
 1. The functions are characterized by a polynomial prefactor (powers of x,y,z and r) and
    an exponential decay factor alpha.
 2. Since the basis sets are specific for an atom TYPE, the individual functions occur on
    all atoms of that type.
 3. The word 'Core' in the left margin signals that it is a Core Function (CF) : not a
    degree of freedom in the valence set, but only used to ensure orthogonalization of
    the other valence basis functions on the frozen Core Orbitals.


 (power of) X  Y  Z  R     Alpha  on Atom
            ==========     =====     ==========

 H                                    1
                                  ---------------------------------------------------------------------------
            0  0  0  0     0.690      1
            0  0  0  0     0.920      2
            0  0  0  0     1.580      3
            1  0  0  0     1.250      4
            0  1  0  0     1.250      5
            0  0  1  0     1.250      6
            2  0  0  0     2.500      7
            1  1  0  0     2.500      8
            1  0  1  0     2.500      9
            0  2  0  0     2.500     10
            0  1  1  0     2.500     11
            0  0  2  0     2.500     12

 Total number of charge fitting functions (nprimf)        50
 Total number of Cartesian basis functions (naos)         12
 Total number of Cartesian core functions  (ncos)          0



 BAS: List of all Elementary Cartesian Basis Functions
 =====================================================

 The numbering in the list below (to the right of the function characteristics) is referred
 to in print-outs of MO eigenvectors and Mulliken populations in the BAS representation
 (as contrasted to the SFO representation).

 Notes:
 1. The functions are characterized by a polynomial prefactor (powers of x,y,z and r) and
    an exponential decay factor alpha.
 2. Since the basis sets are specific for an atom TYPE, the individual functions occur on
    all atoms of that type.
 3. The word 'Core' in the left margin signals that it is a Core Function (CF) : not a
    degree of freedom in the valence set, but only used to ensure orthogonalization of
    the other valence basis functions on the frozen Core Orbitals.


 (power of) X  Y  Z  R     Alpha  on Atom
            ==========     =====     ==========

 H                                    1
                                  ---------------------------------------------------------------------------
            0  0  0  0     0.690      1
            0  0  0  0     0.920      2
            0  0  0  0     1.580      3
            1  0  0  0     1.250      4
            0  1  0  0     1.250      5
            0  0  1  0     1.250      6
            2  0  0  0     2.500      7
            1  1  0  0     2.500      8
            1  0  1  0     2.500      9
            0  2  0  0     2.500     10
            0  1  1  0     2.500     11
            0  0  2  0     2.500     12
1
 ***************************************************************************************************



                                              ***********************
                                              *  T E C H N I C A L  *
                                              ***********************
  



 =============================================================
 P A R A L L E L I Z A T I O N  and  V E C T O R I Z A T I O N
 =============================================================
  
 Nr of parallel processes:                                1
 Maximum vector length in NumInt loops:                 128

 IO buffersize (Mb):                                     64.000000



 =====================
 S C F   U P D A T E S
 =====================
  
 Max. nr. of cycles:                               300
 Convergence criterion:                              0.0000000100
   secondary criterion:                              0.0000000100

 Mix parameter (when DIIS does not apply):           0.2000000000
 Special mix parameter for the first cycle:          1.0000000000
 Mixed ADIIS+DIIS will be used
    Max number of expansion vectors:                10
    Pure ADIIS when Max([F,P]) is above              0.1000000000
    Pure DIIS when Max([F,P]) is below               0.0010000000
 Automatic ElectronSmearing (in case of problematic SCF convergence) disabled



 =================
 P R E C I S I O N  ***  (General: NumInt, NeglectFunctionTails, ...)  ***
 =================
  

 NumInt:           Target precision:                12.0000000000
 -------           Initial precision:               10.0000000000
                   Min. precision (optimization):   10.0000000000

 Neglect Functions:          Basis functions:        0.1000000000E-13
 ------------------          Fit functions:          0.1000000000E-13



 ===========================
 L I N E A R   S C A L I N G
 ===========================
  

 Cut-off radii density fit:                        0.1000000000E-97
 Overlap cut-off criterion AO matrix elements:     0.1000000000E-97
 Cut-offs for Coulomb potential and fitted density:0.1000000000E-97
 Cut-off criterion for Coulomb multipole terms:    0.1000000000E-97
 Progressive Convergence parameter:                 0.000000000    
1
 ***************************************************************************************************



                                            ***************************
                                            *  C O M P U T A T I O N  *
                                            ***************************
  

 Number of elements of the density matrix on this node (used, total):        78        78



 ===========================================
 Numerical Integration : Fuzzy Cells (Becke)
 ===========================================
  
 Becke grid quality: VERYGOOD       
  
 Lebedev angular grid order:             min:  13 max:  41
 Nr. of radial points:                   min:  64 max:  64

 Total nr. of points:         64
 Nr. of blocks:                1
 Block length:                64
 Nr. of dummy points:          0


 Test of Precision of the Numerical Integration Grid
 ===================================================

 Integral of the Total Core Density:                   0.00000000000000



 ========================
 Density Fitting (zlmFit)
 ========================
  
 ZlmFit Fit Quality: VERYGOOD       
  
 Max L-expansion:                        min:   0 max:   0
 Nr. of radial interpolation points:     min: 130 max: 130



 =====
 S C F  ***  ScaSCF  ***
 =====
  

 CYCLE    1
 SCF Error: norm([F,P])=      0.000000000000, max([F,P])=      0.000000000000
 orbitals (Q,E):
 ---------------
 S :1...3            ( 1.00    -0.5000)  ( 0.00    -0.0900)  ( 0.00     1.2939)
 P :1...1            ( 0.00     0.1562)
 D :1...1            ( 0.00     2.2917)

 CYCLE    2
 SCF Error: norm([F,P])=      0.031002856008, max([F,P])=      0.026444239384
 orbitals (Q,E):
 ---------------
 S :1...2            ( 1.00    -0.2236)  ( 0.00     0.0977)
 P :1...1            ( 0.00     0.4190)
 D :1...1            ( 0.00     2.5863)

 CYCLE    3
  SDIIS (wt  0.000):  0.2055  0.7945
 A-DIIS (wt  1.000):  0.0000  1.0000
  DIIS coefficients:  0.0000  1.0000
 SCF Error: norm([F,P])=      0.009580013340, max([F,P])=      0.009328518993
 orbitals (Q,E):
 ---------------
 S :1...2            ( 1.00    -0.2440)  ( 0.00     0.0860)
 P :1...1            ( 0.00     0.4030)
 D :1...1            ( 0.00     2.5655)

 CYCLE    4
  SDIIS (wt  0.987):  0.1949  0.8051
 A-DIIS (wt  0.013):  0.0000  1.0000
  DIIS coefficients:  0.1923  0.8077
 SCF Error: norm([F,P])=      0.002320932075, max([F,P])=      0.002286403159
 orbitals (Q,E):
 ---------------
 S :1...2            ( 1.00    -0.2400)  ( 0.00     0.0880)
 P :1...1            ( 0.00     0.4062)
 D :1...1            ( 0.00     2.5697)

 CYCLE    5
  SDIIS (wt  1.000):  0.0132  0.9868
  DIIS coefficients:  0.0132  0.9868
 SCF Error: norm([F,P])=      0.000031553206, max([F,P])=      0.000029840661
 orbitals (Q,E):
 ---------------
 S :1...2            ( 1.00    -0.2400)  ( 0.00     0.0880)
 P :1...1            ( 0.00     0.4062)
 D :1...1            ( 0.00     2.5697)

 CYCLE    6
  SDIIS (wt  1.000): -0.0314  1.0314
  DIIS coefficients: -0.0314  1.0314
 SCF Error: norm([F,P])=      0.000000959925, max([F,P])=      0.000000913629
 orbitals (Q,E):
 ---------------
 S :1...2            ( 1.00    -0.2400)  ( 0.00     0.0880)
 P :1...1            ( 0.00     0.4062)
 D :1...1            ( 0.00     2.5697)

 CYCLE    7
  SDIIS (wt  1.000):  0.0045  0.9955
  DIIS coefficients:  0.0045  0.9955
 SCF Error: norm([F,P])=      0.000000004387, max([F,P])=      0.000000004212
 orbitals (Q,E):
 ---------------
 S :1...2            ( 1.00    -0.2400)  ( 0.00     0.0880)
 P :1...1            ( 0.00     0.4062)
 D :1...1            ( 0.00     2.5697)

 SCF CONVERGED

 CYCLE    8
1
 ***************************************************************************************************



                                                *******************
                                                *  R E S U L T S  *
                                                *******************
  
 *** Setting up for NEW gradients in Focky
 *** Using FIT density in Focky

 Orbital Energies, per Irrep and Spin:
 ======================================
                        Occup              E (au)              E (eV)       Diff (eV) with prev. cycle
                        -----      --------------------        ------       --------------------------
 S
               1        1.000     -0.24003723730291E+00        -6.532              -1.36E-09
               2        0.000      0.87974178151410E-01         2.394
               3        0.000      0.15021841144445E+01        40.877
 P
               1        0.000      0.40615190499536E+00        11.052
 D
               1        0.000      0.25696970808913E+01        69.925


 Partially Occupied:
               1 S                -0.24003723730291E+00
  
 LUMO :        2 S                 0.87974178151410E-01
  


 Orbital Energies, all Irreps
 ========================================

 Irrep        no.  (spin)   Occup              E (au)                E (eV)
 ---------------------------------------------------------------------------
 S             1             1.00       -0.24003723730291E+00        -6.5317
 S             2             0.00        0.87974178151410E-01         2.3939
 P             1             0.00        0.40615190499536E+00        11.0520
 S             3             0.00        0.15021841144445E+01        40.8765
 D             1             0.00        0.25696970808913E+01        69.9250


 All Electron Calculation, thus no Orbital Energies of the Core Orbitals are calculated



 =======================================
 M U L L I K E N   P O P U L A T I O N S
 =======================================
  
 The survey below gives for each atom:
 a) the total charge (Z minus electrons)
 b) the net spin polarization (nr of electrons spin-A minus spin-B)
 c) for each spin the atomic electron valence density (integrated) per L-value.

 Atom              Charge    Spin density          S         P         D         F
 ----              ------    ------------       ------    ------    ------    ------
 1 H              -0.0000                       1.0000    0.0000    0.0000    0.0000

 Populations of individual BAS functions
 ----------------------------------------
 1 H            0.2458  0.6250  0.1292  0.0000  0.0000  0.0000  0.0000  0.0000  0.0000  0.0000
                0.0000  0.0000

 Gross Charges per Atom (Z minus electrons)
 ==========================================
            -0.0000
 Net Total: -0.00000000



 =======================================================================
 Electrostatic potential at the Nuclei due to electrons and other nuclei
 =======================================================================
  
         Atom                  Potential
         ----                  ---------
     1)   H                   0.94873442
 
 
 ========================
 No memory problems found
 ========================
 
 Maximum number of active allocate calls:         363
 
 *******************************************************************************

                             A D F   E X I T
 NORMAL TERMINATION



 =================
 Timing Statistics
 =================
  
 Total Used :                     CPU=        0.30      System=        0.02     Elapsed=        0.33

 Calls  Section                     ( Mean, Percentage )
 ---------------------------------------------------------------------------------------------------
     3  ><      ................      0.00    0.34             0.00    0.00             0.00    0.24
     1  INIT    ................      0.01    3.69             0.01   50.00             0.03    9.34
     1  GEOMET  ................      0.00    1.34             0.00   20.83             0.01    2.53
     1  INPUTA  ................      0.00    0.34             0.00    0.00             0.00    0.44
     1  MAINSY  ................      0.00    1.01             0.00   12.50             0.01    1.71
     1  SYMFIT  ................      0.00    0.00             0.00    0.00             0.00    0.24
     1  CORORT  ................      0.00    0.34             0.00    0.00             0.00    0.08
     1  SYMORB  ................      0.00    0.00             0.00    0.00             0.00    0.16
     1  CLSMAT  ................      0.00    1.01             0.00    4.17             0.00    1.19
     1  ORTHON  ................      0.00    0.34             0.00    0.00             0.00    0.38
     1  GENPT   ................      0.01    3.36             0.00    0.00             0.01    2.94
     1  PTBAS   ................      0.00    1.01             0.00    0.00             0.00    1.02
     8  FOCKY   ................      0.03   70.47             0.00    4.17             0.03   63.43
     8  FOCKTR  ................      0.00    1.68             0.00    0.00             0.00    1.58
     8  SDIIS   ................      0.00    2.68             0.00    8.33             0.00    3.43
     1  COREPS  ................      0.02    5.37             0.00    0.00             0.02    4.75
     1  POPAN   ................      0.00    1.34             0.00    0.00             0.00    1.18
     1  DEBYE   ................      0.00    0.00             0.00    0.00             0.00    0.15
     1  EXIT PROCEDURE .........      0.02    5.70             0.00    0.00             0.02    5.23


 Currently Open Files (EXIT00)
 ====================

 Unit    Access Format  Status   Type       Ident (file)
 -------------------------------------------------------
   3      SEQ    FORM   TRANSP  NORMAL      LOGFILE
                                          ( logfile )


 Buffered I/O statistics
 =======================
 Memory available:                     67108864
 Number of records fitting in memory:     16131
 Input :   0.2% of                        17484  *4k bytes
 Output:  15.2% of                         1046  *4k bytes
 Records from serial files evicted:           0
                    others evicted:           0
 Hash table lookups:      44693 with          0 conflicts (  0.00%)

 ***************************************************************************************************
 (LOGFILE)
 <Apr18-2019> <14:04:41>  ADF development version  RunTime: Apr18-2019 14:04:41  Nodes: 1  Procs: 1
 <Apr18-2019> <14:04:41>  Hydrogen (TZ2P)
 <Apr18-2019> <14:04:41>  RunType   : CREATE
 <Apr18-2019> <14:04:41>  Net Charge: 0 (Nuclei minus Electrons)
 <Apr18-2019> <14:04:41>  Symmetry  : ATOM
  Coordinates
    Atom         X           Y           Z   (Angstrom)
    1.H         0.000000    0.000000    0.000000
 <Apr18-2019> <14:04:41>  >>>> CORORT
 <Apr18-2019> <14:04:41>  >>>> CLSMAT
 <Apr18-2019> <14:04:41>  >>>> ORTHON
 <Apr18-2019> <14:04:41>  >>>> GENPT
 <Apr18-2019> <14:04:41>  Block Length=  64
 <Apr18-2019> <14:04:41>  >>>> PTBAS
 <Apr18-2019> <14:04:41>  >>>> CYCLE
 <Apr18-2019> <14:04:41>              |Error|         MaxErr       Wt(A-DIIS)
 <Apr18-2019> <14:04:41>      1      0.00000000      0.00000000
 <Apr18-2019> <14:04:41>      2      0.03100286      0.02644424
 <Apr18-2019> <14:04:41>      3      0.00958001      0.00932852    100.0
 <Apr18-2019> <14:04:41>      4      0.00232093      0.00228640      1.3
 <Apr18-2019> <14:04:41>      5      0.00003155      0.00002984      0.0
 <Apr18-2019> <14:04:41>      6      0.00000096      0.00000091      0.0
 <Apr18-2019> <14:04:41>      7      0.00000000      0.00000000      0.0
 <Apr18-2019> <14:04:41>  SCF converged
 <Apr18-2019> <14:04:41>      8      0.00000000      0.00000000      0.0
 <Apr18-2019> <14:04:41>  >>>> POPAN
 <Apr18-2019> <14:04:41>  >>>> DEBYE
 <Apr18-2019> <14:04:41>  NORMAL TERMINATION
 <Apr18-2019> <14:04:41>  END

Create Br   file=TZ2P-Br
XC
  GGA blyp
  DISPERSION Grimme3 BJDAMP
End
End Input

 *******************************************************************************
 *                                                                             *
 *  -------------------------------------                                      *
 *   Amsterdam Density Functional  (ADF)         development version           *
 *  -------------------------------------                                      *
 *                                               r61132 2017-09-08             *
 *                                                                             *
 *                                                                             *
 *                              =================                              *
 *                              |               |                              *
 *                              |     A D F     |                              *
 *                              |               |                              *
 *                              =================                              *
 *                                                                             *
 *                                                                             *
 *   Online information and documentation:  https://www.scm.com/support/       *
 *   E-mail:  support@scm.com   info@scm.com                                   *
 *                                                                             *
 *   Scientific publications using ADF results must be properly referenced     *
 *   See the User Manuals (or the web site) for recommended citations          *
 *   The terms and conditions of the End User License Agreement apply to       *
 *   the use of ADF, https://www.scm.com/license-terms/                        *
 *                                                                             *
 **********************  x86_64_linux_intel / intelmpi  ************************
 
 Licensed to: VU/FEW (+ SARA) / ALGEMEEN / Amsterdam / THE NETHERLANDS
 SCM User ID: u7668
  
 ADF development version  RunTime: Apr18-2019 14:04:41  Nodes: 1  Procs: 1

 Temporary files are created in /local/datastore0/tcst25/186714/kid_0.UweXo1

 Bromine (TZ2P)



 ===========================
 A T T A C H E D   F I L E S
 ===========================
  
 CREATE - Data File:    TZ2P-Br
                        Bromine (TZ2P)



 ===============================
 M O D E L   P A R A M E T E R S
 ===============================
  
 DENSITY FUNCTIONAL POTENTIAL (scf)
    LDA:                               Exchange only                           == Not Default ==
    Gradient Corrections:              Becke88 LYP                             == Not Default ==

 SPIN  (restricted / unrestr.)
    Molecule:                          Restricted                               

 OTHER ASPECTS
    Relativistic Corrections:          ---                                      

    Nuclear Charge Density Model:      Point Charge Nuclei                      
    Core Treatment:                    Frozen Orbital(s)                        

    Hyperfine or Zeeman Interaction:   ---                                      

 Settings for Grimme 3 dispersion correction

      damping                        BJ
      s6                          1.000
      a1                          0.430
      s8                          2.700
      a2                          4.236

 Other (technical) parameters

      alpha                      14.000
      version                         4
 



 =====================================
 S Y M M E T R Y ,   E L E C T R O N S
 =====================================
  
 Symmetry: ATOM

 Irreducible Representations, including subspecies
 -------------------------------------------------
 S
 P:x  P:y  P:z
 D:z2  D:x2-y2  D:xy  D:xz  D:yz
 F:z3  F:z  F:xyz  F:z2x  F:z2y  F:x  F:y


 Configuration of Valence Electrons
 ==================================

          Occupation Numbers
          -------------------------------------------------
 S        4*2
 P        2*6 5
 D        10
 F        0
          -------------------------------------------------

 Total:   35

 Net Charge: 0 (Nuclei minus Electrons)

 Preset values for MO occupations will be applied through SCF cycle no. 1000000
 Thereafter, the program will assign electrons to MOs that are spatially
 similar to the occupied MOs in a "reference" cycle ("KeepOrbitals").
 The reference cycle is always the PREVIOUS cycle: it will evolve with
 the SCF procedure.



 ================================
 (Slater-type)  F U N C T I O N S  ***  (Basis and Fit)  ***
 ================================
  

 Atom Type    1  (Br)
 ==============

 Valence Basis Sets:  20
 -----------------------
   1 S   41.300000
   1 S   32.800000
   2 S   13.900000
   2 P   19.450000
   2 P   13.100000
   3 S    7.200000
   3 S    4.950000
   3 P    7.900000
   3 P    5.050000
   3 D   10.900000
   3 D    6.050000
   3 D    3.500000
   4 S    4.500000
   4 S    2.800000
   4 S    1.800000
   4 P    3.250000
   4 P    1.950000
   4 P    1.200000
   4 D    1.800000
   4 F    1.800000


 BAS: List of all Elementary Cartesian Basis Functions
 =====================================================

 The numbering in the list below (to the right of the function characteristics) is referred
 to in print-outs of MO eigenvectors and Mulliken populations in the BAS representation
 (as contrasted to the SFO representation).

 Notes:
 1. The functions are characterized by a polynomial prefactor (powers of x,y,z and r) and
    an exponential decay factor alpha.
 2. Since the basis sets are specific for an atom TYPE, the individual functions occur on
    all atoms of that type.
 3. The word 'Core' in the left margin signals that it is a Core Function (CF) : not a
    degree of freedom in the valence set, but only used to ensure orthogonalization of
    the other valence basis functions on the frozen Core Orbitals.


 (power of) X  Y  Z  R     Alpha  on Atom
            ==========     =====     ==========

 Br                                   1
                                  ---------------------------------------------------------------------------
            0  0  0  0    41.300      1
            0  0  0  0    32.800      2
            0  0  0  1    13.900      3
            1  0  0  0    19.450      4
            0  1  0  0    19.450      5
            0  0  1  0    19.450      6
            1  0  0  0    13.100      7
            0  1  0  0    13.100      8
            0  0  1  0    13.100      9
            0  0  0  2     7.200     10
            0  0  0  2     4.950     11
            1  0  0  1     7.900     12
            0  1  0  1     7.900     13
            0  0  1  1     7.900     14
            1  0  0  1     5.050     15
            0  1  0  1     5.050     16
            0  0  1  1     5.050     17
            2  0  0  0    10.900     18
            1  1  0  0    10.900     19
            1  0  1  0    10.900     20
            0  2  0  0    10.900     21
            0  1  1  0    10.900     22
            0  0  2  0    10.900     23
            2  0  0  0     6.050     24
            1  1  0  0     6.050     25
            1  0  1  0     6.050     26
            0  2  0  0     6.050     27
            0  1  1  0     6.050     28
            0  0  2  0     6.050     29
            2  0  0  0     3.500     30
            1  1  0  0     3.500     31
            1  0  1  0     3.500     32
            0  2  0  0     3.500     33
            0  1  1  0     3.500     34
            0  0  2  0     3.500     35
            0  0  0  3     4.500     36
            0  0  0  3     2.800     37
            0  0  0  3     1.800     38
            1  0  0  2     3.250     39
            0  1  0  2     3.250     40
            0  0  1  2     3.250     41
            1  0  0  2     1.950     42
            0  1  0  2     1.950     43
            0  0  1  2     1.950     44
            1  0  0  2     1.200     45
            0  1  0  2     1.200     46
            0  0  1  2     1.200     47
            2  0  0  1     1.800     48
            1  1  0  1     1.800     49
            1  0  1  1     1.800     50
            0  2  0  1     1.800     51
            0  1  1  1     1.800     52
            0  0  2  1     1.800     53
            3  0  0  0     1.800     54
            2  1  0  0     1.800     55
            2  0  1  0     1.800     56
            1  2  0  0     1.800     57
            1  1  1  0     1.800     58
            1  0  2  0     1.800     59
            0  3  0  0     1.800     60
            0  2  1  0     1.800     61
            0  1  2  0     1.800     62
            0  0  3  0     1.800     63

 Total number of charge fitting functions (nprimf)       170
 Total number of Cartesian basis functions (naos)         63
 Total number of Cartesian core functions  (ncos)          0



 BAS: List of all Elementary Cartesian Basis Functions
 =====================================================

 The numbering in the list below (to the right of the function characteristics) is referred
 to in print-outs of MO eigenvectors and Mulliken populations in the BAS representation
 (as contrasted to the SFO representation).

 Notes:
 1. The functions are characterized by a polynomial prefactor (powers of x,y,z and r) and
    an exponential decay factor alpha.
 2. Since the basis sets are specific for an atom TYPE, the individual functions occur on
    all atoms of that type.
 3. The word 'Core' in the left margin signals that it is a Core Function (CF) : not a
    degree of freedom in the valence set, but only used to ensure orthogonalization of
    the other valence basis functions on the frozen Core Orbitals.


 (power of) X  Y  Z  R     Alpha  on Atom
            ==========     =====     ==========

 Br                                   1
                                  ---------------------------------------------------------------------------
            0  0  0  0    41.300      1
            0  0  0  0    32.800      2
            0  0  0  1    13.900      3
            1  0  0  0    19.450      4
            0  1  0  0    19.450      5
            0  0  1  0    19.450      6
            1  0  0  0    13.100      7
            0  1  0  0    13.100      8
            0  0  1  0    13.100      9
            0  0  0  2     7.200     10
            0  0  0  2     4.950     11
            1  0  0  1     7.900     12
            0  1  0  1     7.900     13
            0  0  1  1     7.900     14
            1  0  0  1     5.050     15
            0  1  0  1     5.050     16
            0  0  1  1     5.050     17
            2  0  0  0    10.900     18
            1  1  0  0    10.900     19
            1  0  1  0    10.900     20
            0  2  0  0    10.900     21
            0  1  1  0    10.900     22
            0  0  2  0    10.900     23
            2  0  0  0     6.050     24
            1  1  0  0     6.050     25
            1  0  1  0     6.050     26
            0  2  0  0     6.050     27
            0  1  1  0     6.050     28
            0  0  2  0     6.050     29
            2  0  0  0     3.500     30
            1  1  0  0     3.500     31
            1  0  1  0     3.500     32
            0  2  0  0     3.500     33
            0  1  1  0     3.500     34
            0  0  2  0     3.500     35
            0  0  0  3     4.500     36
            0  0  0  3     2.800     37
            0  0  0  3     1.800     38
            1  0  0  2     3.250     39
            0  1  0  2     3.250     40
            0  0  1  2     3.250     41
            1  0  0  2     1.950     42
            0  1  0  2     1.950     43
            0  0  1  2     1.950     44
            1  0  0  2     1.200     45
            0  1  0  2     1.200     46
            0  0  1  2     1.200     47
            2  0  0  1     1.800     48
            1  1  0  1     1.800     49
            1  0  1  1     1.800     50
            0  2  0  1     1.800     51
            0  1  1  1     1.800     52
            0  0  2  1     1.800     53
            3  0  0  0     1.800     54
            2  1  0  0     1.800     55
            2  0  1  0     1.800     56
            1  2  0  0     1.800     57
            1  1  1  0     1.800     58
            1  0  2  0     1.800     59
            0  3  0  0     1.800     60
            0  2  1  0     1.800     61
            0  1  2  0     1.800     62
            0  0  3  0     1.800     63
1
 ***************************************************************************************************



                                              ***********************
                                              *  T E C H N I C A L  *
                                              ***********************
  



 =============================================================
 P A R A L L E L I Z A T I O N  and  V E C T O R I Z A T I O N
 =============================================================
  
 Nr of parallel processes:                                1
 Maximum vector length in NumInt loops:                 128

 IO buffersize (Mb):                                     64.000000



 =====================
 S C F   U P D A T E S
 =====================
  
 Max. nr. of cycles:                               300
 Convergence criterion:                              0.0000000100
   secondary criterion:                              0.0000000100

 Mix parameter (when DIIS does not apply):           0.2000000000
 Special mix parameter for the first cycle:          1.0000000000
 Mixed ADIIS+DIIS will be used
    Max number of expansion vectors:                10
    Pure ADIIS when Max([F,P]) is above              0.1000000000
    Pure DIIS when Max([F,P]) is below               0.0010000000
 Automatic ElectronSmearing (in case of problematic SCF convergence) disabled



 =================
 P R E C I S I O N  ***  (General: NumInt, NeglectFunctionTails, ...)  ***
 =================
  

 NumInt:           Target precision:                12.0000000000
 -------           Initial precision:               10.0000000000
                   Min. precision (optimization):   10.0000000000

 Neglect Functions:          Basis functions:        0.1000000000E-13
 ------------------          Fit functions:          0.1000000000E-13



 ===========================
 L I N E A R   S C A L I N G
 ===========================
  

 Cut-off radii density fit:                        0.1000000000E-97
 Overlap cut-off criterion AO matrix elements:     0.1000000000E-97
 Cut-offs for Coulomb potential and fitted density:0.1000000000E-97
 Cut-off criterion for Coulomb multipole terms:    0.1000000000E-97
 Progressive Convergence parameter:                 0.000000000    
1
 ***************************************************************************************************



                                            ***************************
                                            *  C O M P U T A T I O N  *
                                            ***************************
  

 Number of elements of the density matrix on this node (used, total):      2016      2016



 ===========================================
 Numerical Integration : Fuzzy Cells (Becke)
 ===========================================
  
 Becke grid quality: VERYGOOD       
  
 Lebedev angular grid order:             min:  13 max:  41
 Nr. of radial points:                   min: 106 max: 106

 Total nr. of points:        106
 Nr. of blocks:                1
 Block length:               106
 Nr. of dummy points:          0


 Test of Precision of the Numerical Integration Grid
 ===================================================

 Integral of the Total Core Density:                   0.00000000000000



 ========================
 Density Fitting (zlmFit)
 ========================
  
 ZlmFit Fit Quality: VERYGOOD       
  
 Max L-expansion:                        min:   0 max:   0
 Nr. of radial interpolation points:     min: 240 max: 240



 =====
 S C F  ***  ScaSCF  ***
 =====
  

 CYCLE    1
 SCF Error: norm([F,P])=      0.000000000000, max([F,P])=      0.000000000000
 orbitals (Q,E):
 ---------------
 S :1...8            ( 2.00  -612.4786)  ( 2.00  -152.6714)  ( 2.00   -67.1618)  ( 2.00   -37.3471)
                     ( 0.00   -23.4672)  ( 0.00   -15.4322)  ( 0.00    -9.8352)  ( 0.00   627.8721)
 P :1...7            ( 6.00  -153.0715)  ( 6.00   -67.2002)  ( 5.00   -36.6918)  ( 0.00   -21.5714)
                     ( 0.00   -12.7861)  ( 0.00    -7.3590)  ( 0.00    16.5106)
 D :1...4            (10.00   -67.9473)  ( 0.00   -38.1263)  ( 0.00   -23.3212)  ( 0.00   -12.4393)
 F :1...1            ( 0.00   -14.1300)

 CYCLE    2
  SDIIS (wt  0.000):  1.0000 -0.0000
 A-DIIS (wt  1.000):  0.0000  1.0000
  DIIS coefficients:  0.0000  1.0000
 SCF Error: norm([F,P])=    133.903788591766, max([F,P])=     33.002638835768
 orbitals (Q,E):
 ---------------
 S :1...5            ( 2.00  -440.6623)  ( 2.00   -34.4608)  ( 2.00    -0.4838)  ( 2.00     0.2836)
                     ( 0.00     1.7588)
 P :1...4            ( 6.00   -26.4444)  ( 6.00     0.0834)  ( 5.00     0.3720)  ( 0.00     1.4169)
 D :1...2            (10.00     0.6774)  ( 0.00     3.4882)
 F :1...1            ( 0.00     1.3965)

 CYCLE    3
  SDIIS (wt  0.000):  0.1412  0.8588
 A-DIIS (wt  1.000):  0.4812  0.5188
  DIIS coefficients:  0.4812  0.5188
 SCF Error: norm([F,P])=     49.629143697465, max([F,P])=     17.595188807560
 orbitals (Q,E):
 ---------------
 S :1...5            ( 2.00  -480.8932)  ( 2.00   -64.7226)  ( 2.00   -13.6294)  ( 2.00    -3.4868)
                     ( 0.00    -0.5582)
 P :1...4            ( 6.00   -58.1726)  ( 6.00   -11.4786)  ( 5.00    -2.7508)  ( 0.00    -0.3243)
 D :1...2            (10.00    -7.6458)  ( 0.00    -1.4985)
 F :1...1            ( 0.00    -0.1774)

 CYCLE    4
  SDIIS (wt  0.000):  0.0224 -0.0021  0.9797
 A-DIIS (wt  1.000):  0.0000  0.0000  1.0000
  DIIS coefficients:  0.0000  0.0000  1.0000
 SCF Error: norm([F,P])=      9.092094844053, max([F,P])=      2.124855053538
 orbitals (Q,E):
 ---------------
 S :1...5            ( 2.00  -477.9553)  ( 2.00   -58.6455)  ( 2.00    -6.0025)  ( 2.00    -0.0887)
                     ( 0.00     0.6741)
 P :1...4            ( 6.00   -52.5726)  ( 6.00    -3.9206)  ( 5.00     0.0754)  ( 0.00     0.4470)
 D :1...2            (10.00    -0.2229)  ( 0.00     0.6460)
 F :1...1            ( 0.00     1.2104)

 CYCLE    5
  SDIIS (wt  0.000):  0.0181 -0.0308  0.6039  0.4089
 A-DIIS (wt  1.000):  0.0000  0.0000  0.5822  0.4178
  DIIS coefficients:  0.0000  0.0000  0.5822  0.4178
 SCF Error: norm([F,P])=     11.701584191545, max([F,P])=      3.988425979038
 orbitals (Q,E):
 ---------------
 S :1...5            ( 2.00  -481.8352)  ( 2.00   -62.3102)  ( 2.00    -8.5155)  ( 2.00    -0.7697)
                     ( 0.00     0.1875)
 P :1...4            ( 6.00   -56.2897)  ( 6.00    -6.4201)  ( 5.00    -0.3523)  ( 0.00     0.1239)
 D :1...2            (10.00    -2.6384)  ( 0.00     0.1906)
 F :1...1            ( 0.00     0.7840)

 CYCLE    6
  SDIIS (wt  0.000): -0.0026 -0.0016  0.0582  0.1076  0.8383
 A-DIIS (wt  1.000):  0.0000  0.0000  0.0000  0.0000  1.0000
  DIIS coefficients:  0.0000  0.0000  0.0000  0.0000  1.0000
 SCF Error: norm([F,P])=      1.823540048332, max([F,P])=      0.456619293025
 orbitals (Q,E):
 ---------------
 S :1...5            ( 2.00  -480.3974)  ( 2.00   -61.3034)  ( 2.00    -8.2095)  ( 2.00    -0.6754)
                     ( 0.00     0.2537)
 P :1...4            ( 6.00   -55.2073)  ( 6.00    -6.1080)  ( 5.00    -0.2621)  ( 0.00     0.1463)
 D :1...2            (10.00    -2.3134)  ( 0.00     0.2796)
 F :1...1            ( 0.00     0.8617)

 CYCLE    7
  SDIIS (wt  0.000): -0.0001  0.0001  0.0162 -0.0122  0.4359  0.5600
 A-DIIS (wt  1.000):  0.0000  0.0000  0.0000  0.0000  0.5218  0.4782
  DIIS coefficients:  0.0000  0.0000  0.0000  0.0000  0.5218  0.4782
 SCF Error: norm([F,P])=      1.607695839970, max([F,P])=      0.415842628956
 orbitals (Q,E):
 ---------------
 S :1...5            ( 2.00  -481.0075)  ( 2.00   -61.7929)  ( 2.00    -8.4313)  ( 2.00    -0.7171)
                     ( 0.00     0.2346)
 P :1...4            ( 6.00   -55.7193)  ( 6.00    -6.3308)  ( 5.00    -0.2925)  ( 0.00     0.1353)
 D :1...2            (10.00    -2.5382)  ( 0.00     0.2584)
 F :1...1            ( 0.00     0.8462)

 CYCLE    8
  SDIIS (wt  0.813): -0.0000  0.0000  0.0003 -0.0007  0.1156  0.1336  0.7512
 A-DIIS (wt  0.187):  0.0000  0.0000  0.0000  0.0000  0.0000  0.0000  1.0000
  DIIS coefficients: -0.0000  0.0000  0.0003 -0.0005  0.0941  0.1086  0.7976
 SCF Error: norm([F,P])=      0.065754007621, max([F,P])=      0.019467288040
 orbitals (Q,E):
 ---------------
 S :1...5            ( 2.00  -480.9996)  ( 2.00   -61.7672)  ( 2.00    -8.3915)  ( 2.00    -0.6991)
                     ( 0.00     0.2415)
 P :1...4            ( 6.00   -55.6965)  ( 6.00    -6.2914)  ( 5.00    -0.2791)  ( 0.00     0.1389)
 D :1...2            (10.00    -2.4995)  ( 0.00     0.2673)
 F :1...1            ( 0.00     0.8551)

 CYCLE    9
  SDIIS (wt  0.928): -0.0000 -0.0000 -0.0004  0.0001  0.0270  0.0241  0.3726  0.5766
 A-DIIS (wt  0.072):  0.0000  0.0000  0.0000  0.0000  0.0000  0.0000  0.1253  0.8747
  DIIS coefficients: -0.0000 -0.0000 -0.0004  0.0001  0.0251  0.0224  0.3549  0.5979
 SCF Error: norm([F,P])=      0.026013191770, max([F,P])=      0.008091160141
 orbitals (Q,E):
 ---------------
 S :1...5            ( 2.00  -481.0129)  ( 2.00   -61.7801)  ( 2.00    -8.4039)  ( 2.00    -0.7064)
                     ( 0.00     0.2380)
 P :1...4            ( 6.00   -55.7094)  ( 6.00    -6.3038)  ( 5.00    -0.2850)  ( 0.00     0.1366)
 D :1...2            (10.00    -2.5117)  ( 0.00     0.2628)
 F :1...1            ( 0.00     0.8506)

 CYCLE   10
  SDIIS (wt  1.000): -0.0000  0.0000 -0.0000 -0.0000  0.0019  0.0015  0.0216  0.0490  0.9260
  DIIS coefficients: -0.0000  0.0000 -0.0000 -0.0000  0.0019  0.0015  0.0216  0.0490  0.9260
 SCF Error: norm([F,P])=      0.000463673934, max([F,P])=      0.000100374140
 orbitals (Q,E):
 ---------------
 S :1...5            ( 2.00  -481.0128)  ( 2.00   -61.7801)  ( 2.00    -8.4038)  ( 2.00    -0.7064)
                     ( 0.00     0.2380)
 P :1...4            ( 6.00   -55.7094)  ( 6.00    -6.3036)  ( 5.00    -0.2850)  ( 0.00     0.1366)
 D :1...2            (10.00    -2.5116)  ( 0.00     0.2628)
 F :1...1            ( 0.00     0.8506)

 CYCLE   11
  SDIIS (wt  1.000): -0.0000  0.0000 -0.0000 -0.0000  0.0000  0.0000  0.0003  0.0002 -0.0123  1.0118
  DIIS coefficients: -0.0000  0.0000 -0.0000 -0.0000  0.0000  0.0000  0.0003  0.0002 -0.0123  1.0118
 SCF Error: norm([F,P])=      0.000010859570, max([F,P])=      0.000002783508
 orbitals (Q,E):
 ---------------
 S :1...5            ( 2.00  -481.0127)  ( 2.00   -61.7800)  ( 2.00    -8.4038)  ( 2.00    -0.7064)
                     ( 0.00     0.2380)
 P :1...4            ( 6.00   -55.7094)  ( 6.00    -6.3036)  ( 5.00    -0.2850)  ( 0.00     0.1366)
 D :1...2            (10.00    -2.5116)  ( 0.00     0.2628)
 F :1...1            ( 0.00     0.8506)

 CYCLE   12
  SDIIS (wt  1.000): -0.0000  0.0000  0.0000 -0.0114  1.0114
  DIIS coefficients: -0.0000  0.0000  0.0000 -0.0114  1.0114
 SCF Error: norm([F,P])=      0.000000253930, max([F,P])=      0.000000059057
 orbitals (Q,E):
 ---------------
 S :1...5            ( 2.00  -481.0127)  ( 2.00   -61.7800)  ( 2.00    -8.4038)  ( 2.00    -0.7064)
                     ( 0.00     0.2380)
 P :1...4            ( 6.00   -55.7094)  ( 6.00    -6.3036)  ( 5.00    -0.2850)  ( 0.00     0.1366)
 D :1...2            (10.00    -2.5116)  ( 0.00     0.2628)
 F :1...1            ( 0.00     0.8506)

 CYCLE   13
  SDIIS (wt  1.000):  0.0000 -0.0000 -0.0002  0.0471  0.9531
  DIIS coefficients:  0.0000 -0.0000 -0.0002  0.0471  0.9531
 SCF Error: norm([F,P])=      0.000000008155, max([F,P])=      0.000000002198
 orbitals (Q,E):
 ---------------
 S :1...5            ( 2.00  -481.0127)  ( 2.00   -61.7800)  ( 2.00    -8.4038)  ( 2.00    -0.7064)
                     ( 0.00     0.2380)
 P :1...4            ( 6.00   -55.7094)  ( 6.00    -6.3036)  ( 5.00    -0.2850)  ( 0.00     0.1366)
 D :1...2            (10.00    -2.5116)  ( 0.00     0.2628)
 F :1...1            ( 0.00     0.8506)

 SCF CONVERGED

 CYCLE   14
1
 ***************************************************************************************************



                                                *******************
                                                *  R E S U L T S  *
                                                *******************
  
 *** Setting up for NEW gradients in Focky
 *** Using FIT density in Focky

 Orbital Energies, per Irrep and Spin:
 ======================================
                        Occup              E (au)              E (eV)       Diff (eV) with prev. cycle
                        -----      --------------------        ------       --------------------------
 S
               1        2.000     -0.48101274587878E+03    -13089.023              -3.04E-09
               2        2.000     -0.61780048652771E+02     -1681.121              -1.34E-09
               3        2.000     -0.84037718795878E+01      -228.678              -2.41E-09
               4        2.000     -0.70640809652969E+00       -19.222              -2.95E-09
               5        0.000      0.23797090184223E+00         6.476
               6        0.000      0.24655941619106E+01        67.092
               7        0.000      0.14293653166501E+02       388.950
               8        0.000      0.74647931329125E+03     20312.736
 P
               1        6.000     -0.55709370544448E+02     -1515.929              -1.52E-09
               2        6.000     -0.63036166135521E+01      -171.530              -2.40E-09
               3        5.000     -0.28498840632730E+00        -7.755              -2.43E-09
               4        0.000      0.13662305746043E+00         3.718
               5        0.000      0.12150701661255E+01        33.064
               6        0.000      0.88352207867398E+01       240.419
               7        0.000      0.10087703617678E+03      2745.004
 D
               1       10.000     -0.25115984206637E+01       -68.344              -2.32E-09
               2        0.000      0.26280809227207E+00         7.151
               3        0.000      0.26773687643252E+01        72.855
               4        0.000      0.20605889125446E+02       560.715
 F
               1        0.000      0.85063213392399E+00        23.147


 Partially Occupied:
               3 P                -0.28498840632730E+00
  
 HOMO :        4 S                -0.70640809652969E+00
 LUMO :        4 P                 0.13662305746043E+00
  


 Orbital Energies, all Irreps
 ========================================

 Irrep        no.  (spin)   Occup              E (au)                E (eV)
 ---------------------------------------------------------------------------
 S             1             2.00       -0.48101274587878E+03    -13089.0228
 S             2             2.00       -0.61780048652771E+02     -1681.1207
 P             1             6.00       -0.55709370544448E+02     -1515.9291
 S             3             2.00       -0.84037718795878E+01      -228.6783
 P             2             6.00       -0.63036166135521E+01      -171.5301
 D             1            10.00       -0.25115984206637E+01       -68.3441
 S             4             2.00       -0.70640809652969E+00       -19.2223
 P             3             5.00       -0.28498840632730E+00        -7.7549
 P             4             0.00        0.13662305746043E+00         3.7177
 S             5             0.00        0.23797090184223E+00         6.4755
 D             2             0.00        0.26280809227207E+00         7.1514
 F             1             0.00        0.85063213392399E+00        23.1469
 P             5             0.00        0.12150701661255E+01        33.0637
 S             6             0.00        0.24655941619106E+01        67.0922
 D             3             0.00        0.26773687643252E+01        72.8549
 P             6             0.00        0.88352207867398E+01       240.4186
 S             7             0.00        0.14293653166501E+02       388.9501
 D             4             0.00        0.20605889125446E+02       560.7148
 P             7             0.00        0.10087703617678E+03      2745.0038
 S             8             0.00        0.74647931329125E+03     20312.7356


 All Electron Calculation, thus no Orbital Energies of the Core Orbitals are calculated



 =======================================
 M U L L I K E N   P O P U L A T I O N S
 =======================================
  
 The survey below gives for each atom:
 a) the total charge (Z minus electrons)
 b) the net spin polarization (nr of electrons spin-A minus spin-B)
 c) for each spin the atomic electron valence density (integrated) per L-value.

 Atom              Charge    Spin density          S         P         D         F
 ----              ------    ------------       ------    ------    ------    ------
 1 Br              0.0000                       8.0000   17.0000   10.0000    0.0000

 Populations of individual BAS functions
 ----------------------------------------
 1 Br           0.3604  1.5689  2.0728  0.7136  0.7136  0.7136  1.2644  1.2644  1.2644  1.4494
                0.5676  1.1356  1.1356  1.1356  0.8920  0.8920  0.8920  0.2683  0.4025  0.4025
                0.2683  0.4025  0.2683  0.7743  1.1615  1.1615  0.7743  1.1615  0.7743  0.2907
                0.4361  0.4361  0.2907  0.4361  0.2907  0.2958  1.2583  0.4268  0.5585  0.5585
                0.5585  0.8946  0.8946  0.8946  0.2080  0.2080  0.2080 -0.0001 -0.0001 -0.0001
               -0.0001 -0.0001 -0.0001  0.0000  0.0000  0.0000  0.0000  0.0000  0.0000  0.0000
                0.0000  0.0000  0.0000

 Gross Charges per Atom (Z minus electrons)
 ==========================================
             0.0000
 Net Total:  0.00000000



 =======================================================================
 Electrostatic potential at the Nuclei due to electrons and other nuclei
 =======================================================================
  
         Atom                  Potential
         ----                  ---------
     1)   Br                175.92949555
 
 
 ========================
 No memory problems found
 ========================
 
 Maximum number of active allocate calls:         447
 
 *******************************************************************************

                             A D F   E X I T
 NORMAL TERMINATION



 =================
 Timing Statistics
 =================
  
 Total Used :                     CPU=        0.82      System=        0.03     Elapsed=        0.85

 Calls  Section                     ( Mean, Percentage )
 ---------------------------------------------------------------------------------------------------
     3  ><      ................      0.00    0.12             0.00    0.00             0.00    0.09
     1  INIT    ................      0.01    1.10             0.01   48.28             0.03    3.01
     1  GEOMET  ................      0.01    0.85             0.00    6.90             0.01    1.00
     1  INPUTA  ................      0.00    0.12             0.00    0.00             0.00    0.19
     1  MAINSY  ................      0.00    0.61             0.00    3.45             0.01    0.70
     1  SYMFIT  ................      0.00    0.00             0.00    3.45             0.00    0.09
     1  CORORT  ................      0.00    0.00             0.00    0.00             0.00    0.03
     1  SYMORB  ................      0.00    0.12             0.00    0.00             0.00    0.08
     1  CLSMAT  ................      0.01    0.61             0.00    0.00             0.01    0.62
     1  ORTHON  ................      0.00    0.24             0.00    0.00             0.00    0.19
     1  GENPT   ................      0.02    2.68             0.00   10.34             0.02    2.94
     1  PTBAS   ................      0.00    0.49             0.00    0.00             0.00    0.43
    14  FOCKY   ................      0.05   81.95             0.00   10.35             0.05   79.13
    14  FOCKTR  ................      0.00    1.22             0.00    0.00             0.00    1.42
    14  SDIIS   ................      0.00    2.68             0.00    0.00             0.00    2.64
     1  COREPS  ................      0.04    4.39             0.00    3.45             0.04    4.28
     1  POPAN   ................      0.00    0.49             0.00    3.45             0.01    0.62
     1  DEBYE   ................      0.00    0.12             0.00    0.00             0.00    0.10
     1  EXIT PROCEDURE .........      0.02    2.20             0.00   10.35             0.02    2.42


 Currently Open Files (EXIT00)
 ====================

 Unit    Access Format  Status   Type       Ident (file)
 -------------------------------------------------------
   3      SEQ    FORM   TRANSP  NORMAL      LOGFILE
                                          ( logfile )


 Buffered I/O statistics
 =======================
 Memory available:                     67108864
 Number of records fitting in memory:     16131
 Input :   0.1% of                        29683  *4k bytes
 Output:  11.9% of                         1574  *4k bytes
 Records from serial files evicted:           0
                    others evicted:           0
 Hash table lookups:      77061 with          0 conflicts (  0.00%)

 ***************************************************************************************************
 (LOGFILE)
 <Apr18-2019> <14:04:41>  ADF development version  RunTime: Apr18-2019 14:04:41  Nodes: 1  Procs: 1
 <Apr18-2019> <14:04:41>  Hydrogen (TZ2P)
 <Apr18-2019> <14:04:41>  RunType   : CREATE
 <Apr18-2019> <14:04:41>  Net Charge: 0 (Nuclei minus Electrons)
 <Apr18-2019> <14:04:41>  Symmetry  : ATOM
  Coordinates
    Atom         X           Y           Z   (Angstrom)
    1.H         0.000000    0.000000    0.000000
 <Apr18-2019> <14:04:41>  >>>> CORORT
 <Apr18-2019> <14:04:41>  >>>> CLSMAT
 <Apr18-2019> <14:04:41>  >>>> ORTHON
 <Apr18-2019> <14:04:41>  >>>> GENPT
 <Apr18-2019> <14:04:41>  Block Length=  64
 <Apr18-2019> <14:04:41>  >>>> PTBAS
 <Apr18-2019> <14:04:41>  >>>> CYCLE
 <Apr18-2019> <14:04:41>              |Error|         MaxErr       Wt(A-DIIS)
 <Apr18-2019> <14:04:41>      1      0.00000000      0.00000000
 <Apr18-2019> <14:04:41>      2      0.03100286      0.02644424
 <Apr18-2019> <14:04:41>      3      0.00958001      0.00932852    100.0
 <Apr18-2019> <14:04:41>      4      0.00232093      0.00228640      1.3
 <Apr18-2019> <14:04:41>      5      0.00003155      0.00002984      0.0
 <Apr18-2019> <14:04:41>      6      0.00000096      0.00000091      0.0
 <Apr18-2019> <14:04:41>      7      0.00000000      0.00000000      0.0
 <Apr18-2019> <14:04:41>  SCF converged
 <Apr18-2019> <14:04:41>      8      0.00000000      0.00000000      0.0
 <Apr18-2019> <14:04:41>  >>>> POPAN
 <Apr18-2019> <14:04:41>  >>>> DEBYE
 <Apr18-2019> <14:04:41>  NORMAL TERMINATION
 <Apr18-2019> <14:04:41>  END
 <Apr18-2019> <14:04:41>  ADF development version  RunTime: Apr18-2019 14:04:41  Nodes: 1  Procs: 1
 <Apr18-2019> <14:04:41>  Bromine (TZ2P)
 <Apr18-2019> <14:04:41>  RunType   : CREATE
 <Apr18-2019> <14:04:41>  Net Charge: 0 (Nuclei minus Electrons)
 <Apr18-2019> <14:04:41>  Symmetry  : ATOM
  Coordinates
    Atom         X           Y           Z   (Angstrom)
    1.Br        0.000000    0.000000    0.000000
 <Apr18-2019> <14:04:41>  >>>> CORORT
 <Apr18-2019> <14:04:41>  >>>> CLSMAT
 <Apr18-2019> <14:04:41>  >>>> ORTHON
 <Apr18-2019> <14:04:41>  >>>> GENPT
 <Apr18-2019> <14:04:41>  Block Length= 106
 <Apr18-2019> <14:04:41>  >>>> PTBAS
 <Apr18-2019> <14:04:41>  >>>> CYCLE
 <Apr18-2019> <14:04:41>              |Error|         MaxErr       Wt(A-DIIS)
 <Apr18-2019> <14:04:41>      1      0.00000000      0.00000000
 <Apr18-2019> <14:04:41>      2    133.90378859     33.00263884    100.0
 <Apr18-2019> <14:04:41>      3     49.62914370     17.59518881    100.0
 <Apr18-2019> <14:04:41>      4      9.09209484      2.12485505    100.0
 <Apr18-2019> <14:04:41>      5     11.70158419      3.98842598    100.0
 <Apr18-2019> <14:04:41>      6      1.82354005      0.45661929    100.0
 <Apr18-2019> <14:04:42>      7      1.60769584      0.41584263    100.0
 <Apr18-2019> <14:04:42>      8      0.06575401      0.01946729     18.7
 <Apr18-2019> <14:04:42>      9      0.02601319      0.00809116      7.2
 <Apr18-2019> <14:04:42>     10      0.00046367      0.00010037      0.0
 <Apr18-2019> <14:04:42>     11      0.00001086      0.00000278      0.0
 <Apr18-2019> <14:04:42>     12      0.00000025      0.00000006      0.0
 <Apr18-2019> <14:04:42>     13      0.00000001      0.00000000      0.0
 <Apr18-2019> <14:04:42>  SCF converged
 <Apr18-2019> <14:04:42>     14      0.00000000      0.00000000      0.0
 <Apr18-2019> <14:04:42>  >>>> POPAN
 <Apr18-2019> <14:04:42>  >>>> DEBYE
 <Apr18-2019> <14:04:42>  NORMAL TERMINATION
 <Apr18-2019> <14:04:42>  END

Create Cl   file=TZ2P-Cl
XC
  GGA blyp
  DISPERSION Grimme3 BJDAMP
End
End Input

 *******************************************************************************
 *                                                                             *
 *  -------------------------------------                                      *
 *   Amsterdam Density Functional  (ADF)         development version           *
 *  -------------------------------------                                      *
 *                                               r61132 2017-09-08             *
 *                                                                             *
 *                                                                             *
 *                              =================                              *
 *                              |               |                              *
 *                              |     A D F     |                              *
 *                              |               |                              *
 *                              =================                              *
 *                                                                             *
 *                                                                             *
 *   Online information and documentation:  https://www.scm.com/support/       *
 *   E-mail:  support@scm.com   info@scm.com                                   *
 *                                                                             *
 *   Scientific publications using ADF results must be properly referenced     *
 *   See the User Manuals (or the web site) for recommended citations          *
 *   The terms and conditions of the End User License Agreement apply to       *
 *   the use of ADF, https://www.scm.com/license-terms/                        *
 *                                                                             *
 **********************  x86_64_linux_intel / intelmpi  ************************
 
 Licensed to: VU/FEW (+ SARA) / ALGEMEEN / Amsterdam / THE NETHERLANDS
 SCM User ID: u7668
  
 ADF development version  RunTime: Apr18-2019 14:04:42  Nodes: 1  Procs: 1

 Temporary files are created in /local/datastore0/tcst25/186714/kid_0.tE6ZjX

 Chlorine (TZ2P)



 ===========================
 A T T A C H E D   F I L E S
 ===========================
  
 CREATE - Data File:    TZ2P-Cl
                        Chlorine (TZ2P)



 ===============================
 M O D E L   P A R A M E T E R S
 ===============================
  
 DENSITY FUNCTIONAL POTENTIAL (scf)
    LDA:                               Exchange only                           == Not Default ==
    Gradient Corrections:              Becke88 LYP                             == Not Default ==

 SPIN  (restricted / unrestr.)
    Molecule:                          Restricted                               

 OTHER ASPECTS
    Relativistic Corrections:          ---                                      

    Nuclear Charge Density Model:      Point Charge Nuclei                      
    Core Treatment:                    Frozen Orbital(s)                        

    Hyperfine or Zeeman Interaction:   ---                                      

 Settings for Grimme 3 dispersion correction

      damping                        BJ
      s6                          1.000
      a1                          0.430
      s8                          2.700
      a2                          4.236

 Other (technical) parameters

      alpha                      14.000
      version                         4
 



 =====================================
 S Y M M E T R Y ,   E L E C T R O N S
 =====================================
  
 Symmetry: ATOM

 Irreducible Representations, including subspecies
 -------------------------------------------------
 S
 P:x  P:y  P:z
 D:z2  D:x2-y2  D:xy  D:xz  D:yz
 F:z3  F:z  F:xyz  F:z2x  F:z2y  F:x  F:y


 Configuration of Valence Electrons
 ==================================

          Occupation Numbers
          -------------------------------------------------
 S        3*2
 P        6 5
 D        0
 F        0
          -------------------------------------------------

 Total:   17

 Net Charge: 0 (Nuclei minus Electrons)

 Preset values for MO occupations will be applied through SCF cycle no. 1000000
 Thereafter, the program will assign electrons to MOs that are spatially
 similar to the occupied MOs in a "reference" cycle ("KeepOrbitals").
 The reference cycle is always the PREVIOUS cycle: it will evolve with
 the SCF procedure.



 ================================
 (Slater-type)  F U N C T I O N S  ***  (Basis and Fit)  ***
 ================================
  

 Atom Type    1  (Cl)
 ==============

 Valence Basis Sets:  14
 -----------------------
   1 S   20.300000
   1 S   15.250000
   2 S    6.250000
   2 S    4.450000
   2 P    8.850000
   2 P    5.050000
   3 S    3.450000
   3 S    2.300000
   3 S    1.600000
   3 P    3.350000
   3 P    2.050000
   3 P    1.200000
   3 D    2.000000
   4 F    2.000000


 BAS: List of all Elementary Cartesian Basis Functions
 =====================================================

 The numbering in the list below (to the right of the function characteristics) is referred
 to in print-outs of MO eigenvectors and Mulliken populations in the BAS representation
 (as contrasted to the SFO representation).

 Notes:
 1. The functions are characterized by a polynomial prefactor (powers of x,y,z and r) and
    an exponential decay factor alpha.
 2. Since the basis sets are specific for an atom TYPE, the individual functions occur on
    all atoms of that type.
 3. The word 'Core' in the left margin signals that it is a Core Function (CF) : not a
    degree of freedom in the valence set, but only used to ensure orthogonalization of
    the other valence basis functions on the frozen Core Orbitals.


 (power of) X  Y  Z  R     Alpha  on Atom
            ==========     =====     ==========

 Cl                                   1
                                  ---------------------------------------------------------------------------
            0  0  0  0    20.300      1
            0  0  0  0    15.250      2
            0  0  0  1     6.250      3
            0  0  0  1     4.450      4
            1  0  0  0     8.850      5
            0  1  0  0     8.850      6
            0  0  1  0     8.850      7
            1  0  0  0     5.050      8
            0  1  0  0     5.050      9
            0  0  1  0     5.050     10
            0  0  0  2     3.450     11
            0  0  0  2     2.300     12
            0  0  0  2     1.600     13
            1  0  0  1     3.350     14
            0  1  0  1     3.350     15
            0  0  1  1     3.350     16
            1  0  0  1     2.050     17
            0  1  0  1     2.050     18
            0  0  1  1     2.050     19
            1  0  0  1     1.200     20
            0  1  0  1     1.200     21
            0  0  1  1     1.200     22
            2  0  0  0     2.000     23
            1  1  0  0     2.000     24
            1  0  1  0     2.000     25
            0  2  0  0     2.000     26
            0  1  1  0     2.000     27
            0  0  2  0     2.000     28
            3  0  0  0     2.000     29
            2  1  0  0     2.000     30
            2  0  1  0     2.000     31
            1  2  0  0     2.000     32
            1  1  1  0     2.000     33
            1  0  2  0     2.000     34
            0  3  0  0     2.000     35
            0  2  1  0     2.000     36
            0  1  2  0     2.000     37
            0  0  3  0     2.000     38

 Total number of charge fitting functions (nprimf)       106
 Total number of Cartesian basis functions (naos)         38
 Total number of Cartesian core functions  (ncos)          0



 BAS: List of all Elementary Cartesian Basis Functions
 =====================================================

 The numbering in the list below (to the right of the function characteristics) is referred
 to in print-outs of MO eigenvectors and Mulliken populations in the BAS representation
 (as contrasted to the SFO representation).

 Notes:
 1. The functions are characterized by a polynomial prefactor (powers of x,y,z and r) and
    an exponential decay factor alpha.
 2. Since the basis sets are specific for an atom TYPE, the individual functions occur on
    all atoms of that type.
 3. The word 'Core' in the left margin signals that it is a Core Function (CF) : not a
    degree of freedom in the valence set, but only used to ensure orthogonalization of
    the other valence basis functions on the frozen Core Orbitals.


 (power of) X  Y  Z  R     Alpha  on Atom
            ==========     =====     ==========

 Cl                                   1
                                  ---------------------------------------------------------------------------
            0  0  0  0    20.300      1
            0  0  0  0    15.250      2
            0  0  0  1     6.250      3
            0  0  0  1     4.450      4
            1  0  0  0     8.850      5
            0  1  0  0     8.850      6
            0  0  1  0     8.850      7
            1  0  0  0     5.050      8
            0  1  0  0     5.050      9
            0  0  1  0     5.050     10
            0  0  0  2     3.450     11
            0  0  0  2     2.300     12
            0  0  0  2     1.600     13
            1  0  0  1     3.350     14
            0  1  0  1     3.350     15
            0  0  1  1     3.350     16
            1  0  0  1     2.050     17
            0  1  0  1     2.050     18
            0  0  1  1     2.050     19
            1  0  0  1     1.200     20
            0  1  0  1     1.200     21
            0  0  1  1     1.200     22
            2  0  0  0     2.000     23
            1  1  0  0     2.000     24
            1  0  1  0     2.000     25
            0  2  0  0     2.000     26
            0  1  1  0     2.000     27
            0  0  2  0     2.000     28
            3  0  0  0     2.000     29
            2  1  0  0     2.000     30
            2  0  1  0     2.000     31
            1  2  0  0     2.000     32
            1  1  1  0     2.000     33
            1  0  2  0     2.000     34
            0  3  0  0     2.000     35
            0  2  1  0     2.000     36
            0  1  2  0     2.000     37
            0  0  3  0     2.000     38
1
 ***************************************************************************************************



                                              ***********************
                                              *  T E C H N I C A L  *
                                              ***********************
  



 =============================================================
 P A R A L L E L I Z A T I O N  and  V E C T O R I Z A T I O N
 =============================================================
  
 Nr of parallel processes:                                1
 Maximum vector length in NumInt loops:                 128

 IO buffersize (Mb):                                     64.000000



 =====================
 S C F   U P D A T E S
 =====================
  
 Max. nr. of cycles:                               300
 Convergence criterion:                              0.0000000100
   secondary criterion:                              0.0000000100

 Mix parameter (when DIIS does not apply):           0.2000000000
 Special mix parameter for the first cycle:          1.0000000000
 Mixed ADIIS+DIIS will be used
    Max number of expansion vectors:                10
    Pure ADIIS when Max([F,P]) is above              0.1000000000
    Pure DIIS when Max([F,P]) is below               0.0010000000
 Automatic ElectronSmearing (in case of problematic SCF convergence) disabled



 =================
 P R E C I S I O N  ***  (General: NumInt, NeglectFunctionTails, ...)  ***
 =================
  

 NumInt:           Target precision:                12.0000000000
 -------           Initial precision:               10.0000000000
                   Min. precision (optimization):   10.0000000000

 Neglect Functions:          Basis functions:        0.1000000000E-13
 ------------------          Fit functions:          0.1000000000E-13



 ===========================
 L I N E A R   S C A L I N G
 ===========================
  

 Cut-off radii density fit:                        0.1000000000E-97
 Overlap cut-off criterion AO matrix elements:     0.1000000000E-97
 Cut-offs for Coulomb potential and fitted density:0.1000000000E-97
 Cut-off criterion for Coulomb multipole terms:    0.1000000000E-97
 Progressive Convergence parameter:                 0.000000000    
1
 ***************************************************************************************************



                                            ***************************
                                            *  C O M P U T A T I O N  *
                                            ***************************
  

 Number of elements of the density matrix on this node (used, total):       741       741



 ===========================================
 Numerical Integration : Fuzzy Cells (Becke)
 ===========================================
  
 Becke grid quality: VERYGOOD       
  
 Lebedev angular grid order:             min:  13 max:  41
 Nr. of radial points:                   min:  93 max:  93

 Total nr. of points:         93
 Nr. of blocks:                1
 Block length:                93
 Nr. of dummy points:          0


 Test of Precision of the Numerical Integration Grid
 ===================================================

 Integral of the Total Core Density:                   0.00000000000000



 ========================
 Density Fitting (zlmFit)
 ========================
  
 ZlmFit Fit Quality: VERYGOOD       
  
 Max L-expansion:                        min:   0 max:   0
 Nr. of radial interpolation points:     min: 200 max: 200



 =====
 S C F  ***  ScaSCF  ***
 =====
  

 CYCLE    1
 SCF Error: norm([F,P])=      0.000000000000, max([F,P])=      0.000000000000
 orbitals (Q,E):
 ---------------
 S :1...7            ( 2.00  -144.4893)  ( 2.00   -36.0966)  ( 2.00   -16.0338)  ( 0.00    -8.9253)
                     ( 0.00    -5.5262)  ( 0.00    -3.6296)  ( 0.00   175.9783)
 P :1...5            ( 6.00   -36.1179)  ( 5.00   -15.7666)  ( 0.00    -8.4199)  ( 0.00    -4.8064)
                     ( 0.00    -2.9092)
 D :1...1            ( 0.00    -9.3333)
 F :1...1            ( 0.00    -6.5000)

 CYCLE    2
  SDIIS (wt  0.000):  1.0000 -0.0000
 A-DIIS (wt  1.000):  0.0000  1.0000
  DIIS coefficients:  0.0000  1.0000
 SCF Error: norm([F,P])=     37.918093115371, max([F,P])=     10.754162001971
 orbitals (Q,E):
 ---------------
 S :1...4            ( 2.00   -86.3665)  ( 2.00    -3.0042)  ( 2.00     0.0879)  ( 0.00     0.9074)
 P :1...3            ( 6.00    -0.5941)  ( 5.00     0.2005)  ( 0.00     1.0624)
 D :1...1            ( 0.00     1.3908)
 F :1...1            ( 0.00     1.7118)

 CYCLE    3
  SDIIS (wt  0.000):  0.2468  0.7532
 A-DIIS (wt  1.000):  0.2184  0.7816
  DIIS coefficients:  0.2184  0.7816
 SCF Error: norm([F,P])=     20.757708249348, max([F,P])=      6.871796656039
 orbitals (Q,E):
 ---------------
 S :1...4            ( 2.00  -105.5772)  ( 2.00   -12.2185)  ( 2.00    -1.9200)  ( 0.00    -0.1982)
 P :1...3            ( 6.00   -10.2793)  ( 5.00    -1.3974)  ( 0.00    -0.0873)
 D :1...1            ( 0.00    -0.4679)
 F :1...1            ( 0.00     0.6062)

 CYCLE    4
  SDIIS (wt  0.000): -0.0788  0.1328  0.9460
 A-DIIS (wt  1.000):  0.0000  0.0000  1.0000
  DIIS coefficients:  0.0000  0.0000  1.0000
 SCF Error: norm([F,P])=      6.021405452047, max([F,P])=      2.061487593708
 orbitals (Q,E):
 ---------------
 S :1...4            ( 2.00   -97.6728)  ( 2.00    -7.4155)  ( 2.00    -0.2425)  ( 0.00     0.4293)
 P :1...3            ( 6.00    -5.1248)  ( 5.00     0.0322)  ( 0.00     0.5151)
 D :1...1            ( 0.00     0.8498)
 F :1...1            ( 0.00     1.4674)

 CYCLE    5
  SDIIS (wt  0.000): -0.0198 -0.0624  0.3895  0.6927
 A-DIIS (wt  1.000):  0.0000  0.0000  0.4691  0.5309
  DIIS coefficients:  0.0000  0.0000  0.4691  0.5309
 SCF Error: norm([F,P])=      4.122826282833, max([F,P])=      1.762338952725
 orbitals (Q,E):
 ---------------
 S :1...4            ( 2.00  -100.7640)  ( 2.00    -9.3467)  ( 2.00    -0.9097)  ( 0.00     0.1217)
 P :1...3            ( 6.00    -7.1584)  ( 5.00    -0.4570)  ( 0.00     0.1672)
 D :1...1            ( 0.00     0.2335)
 F :1...1            ( 0.00     1.0657)

 CYCLE    6
  SDIIS (wt  0.000): -0.0001 -0.0138  0.0424  0.0981  0.8734
 A-DIIS (wt  1.000):  0.0000  0.0000  0.0000  0.0000  1.0000
  DIIS coefficients:  0.0000  0.0000  0.0000  0.0000  1.0000
 SCF Error: norm([F,P])=      0.297134459880, max([F,P])=      0.111907135573
 orbitals (Q,E):
 ---------------
 S :1...4            ( 2.00  -100.6199)  ( 2.00    -9.0705)  ( 2.00    -0.6673)  ( 0.00     0.2275)
 P :1...3            ( 6.00    -6.8928)  ( 5.00    -0.2439)  ( 0.00     0.2570)
 D :1...1            ( 0.00     0.4575)
 F :1...1            ( 0.00     1.2382)

 CYCLE    7
  SDIIS (wt  0.000): -0.0002  0.0003  0.0119 -0.0199  0.3831  0.6249
 A-DIIS (wt  1.000):  0.0000  0.0000  0.0000  0.0000  0.4431  0.5569
  DIIS coefficients:  0.0000  0.0000  0.0000  0.0000  0.4431  0.5569
 SCF Error: norm([F,P])=      0.268270877863, max([F,P])=      0.112251171075
 orbitals (Q,E):
 ---------------
 S :1...4            ( 2.00  -100.8158)  ( 2.00    -9.2442)  ( 2.00    -0.7560)  ( 0.00     0.1940)
 P :1...3            ( 6.00    -7.0691)  ( 5.00    -0.3171)  ( 0.00     0.2236)
 D :1...1            ( 0.00     0.3804)
 F :1...1            ( 0.00     1.1860)

 CYCLE    8
  SDIIS (wt  0.746):  0.0001 -0.0001 -0.0028  0.0035  0.0906  0.1300  0.7787
 A-DIIS (wt  0.254):  0.0000  0.0000  0.0000  0.0000  0.0000  0.0000  1.0000
  DIIS coefficients:  0.0000 -0.0001 -0.0021  0.0026  0.0676  0.0969  0.8350
 SCF Error: norm([F,P])=      0.071559445743, max([F,P])=      0.026187079053
 orbitals (Q,E):
 ---------------
 S :1...4            ( 2.00  -100.7523)  ( 2.00    -9.2108)  ( 2.00    -0.7461)  ( 0.00     0.1973)
 P :1...3            ( 6.00    -7.0328)  ( 5.00    -0.3089)  ( 0.00     0.2267)
 D :1...1            ( 0.00     0.3881)
 F :1...1            ( 0.00     1.1908)

 CYCLE    9
  SDIIS (wt  0.957):  0.0000 -0.0000 -0.0001  0.0003  0.0037 -0.0063  0.1578  0.8445
 A-DIIS (wt  0.043):  0.0000  0.0000  0.0000  0.0000  0.0000  0.0000  0.0000  1.0000
  DIIS coefficients:  0.0000 -0.0000 -0.0001  0.0003  0.0036 -0.0060  0.1511  0.8511
 SCF Error: norm([F,P])=      0.013066268529, max([F,P])=      0.005220141314
 orbitals (Q,E):
 ---------------
 S :1...4            ( 2.00  -100.7623)  ( 2.00    -9.2169)  ( 2.00    -0.7484)  ( 0.00     0.1965)
 P :1...3            ( 6.00    -7.0393)  ( 5.00    -0.3108)  ( 0.00     0.2259)
 D :1...1            ( 0.00     0.3862)
 F :1...1            ( 0.00     1.1896)

 CYCLE   10
  SDIIS (wt  1.000):  0.0000  0.0000 -0.0000 -0.0000  0.0002  0.0011 -0.0030  0.0039  0.9977
  DIIS coefficients:  0.0000  0.0000 -0.0000 -0.0000  0.0002  0.0011 -0.0030  0.0039  0.9977
 SCF Error: norm([F,P])=      0.000485727205, max([F,P])=      0.000202934402
 orbitals (Q,E):
 ---------------
 S :1...4            ( 2.00  -100.7620)  ( 2.00    -9.2166)  ( 2.00    -0.7483)  ( 0.00     0.1965)
 P :1...3            ( 6.00    -7.0390)  ( 5.00    -0.3107)  ( 0.00     0.2259)
 D :1...1            ( 0.00     0.3863)
 F :1...1            ( 0.00     1.1896)

 CYCLE   11
  SDIIS (wt  1.000):  0.0000  0.0000  0.0000  0.0000 -0.0002 -0.0009  0.0045  0.9965
  DIIS coefficients:  0.0000  0.0000  0.0000  0.0000 -0.0002 -0.0009  0.0045  0.9965
 SCF Error: norm([F,P])=      0.000002451026, max([F,P])=      0.000000874874
 orbitals (Q,E):
 ---------------
 S :1...4            ( 2.00  -100.7620)  ( 2.00    -9.2166)  ( 2.00    -0.7483)  ( 0.00     0.1965)
 P :1...3            ( 6.00    -7.0390)  ( 5.00    -0.3107)  ( 0.00     0.2259)
 D :1...1            ( 0.00     0.3863)
 F :1...1            ( 0.00     1.1896)

 CYCLE   12
  SDIIS (wt  1.000):  0.0000  0.0000 -0.0000 -0.0000  0.0001  0.0049  0.9950
  DIIS coefficients:  0.0000  0.0000 -0.0000 -0.0000  0.0001  0.0049  0.9950
[...]
 <Apr18-2019> <14:04:52>      5      0.00106114      0.00019807      0.0
 <Apr18-2019> <14:04:52>      6      0.00023772      0.00004629      0.0
 <Apr18-2019> <14:04:52>      7      0.00007459      0.00001753      0.0
 <Apr18-2019> <14:04:52>      8      0.00001466      0.00000342      0.0
 <Apr18-2019> <14:04:53>      9      0.00000368      0.00000079      0.0
 <Apr18-2019> <14:04:53>  SCF converged
 <Apr18-2019> <14:04:53>     10      0.00000075      0.00000017      0.0
 <Apr18-2019> <14:04:53>  >>>> TOTEN
 <Apr18-2019> <14:04:53>  >>>> POPAN
 <Apr18-2019> <14:04:53>  >>>> DEBYE
 <Apr18-2019> <14:04:53>  >>>> ENGRAD
 <Apr18-2019> <14:04:53>  current energy                               -0.37696166 Hartree
 <Apr18-2019> <14:04:53>  energy change                      -0.00001228     0.00010000    T
 <Apr18-2019> <14:04:53>  constrained gradient max            0.00250005     0.00010000    F
 <Apr18-2019> <14:04:53>  constrained gradient rms            0.00167487     0.00006667    F
 <Apr18-2019> <14:04:53>  gradient max                        0.00250005
 <Apr18-2019> <14:04:53>  gradient rms                        0.00167487
 <Apr18-2019> <14:04:53>  cart. step max                      0.04725118     0.01000000    F
 <Apr18-2019> <14:04:53>  cart. step rms                      0.02293208     0.00666667    F
  Coordinates in Geometry Cycle 8
    Atom         X           Y           Z   (Angstrom)
    1.Br       -4.011506   -0.390231   -0.062754
    2.H        -2.503631    0.450055    0.799885
    3.Cl       -1.365358    1.078044    1.453098
 <Apr18-2019> <14:04:53>  >>>> CORORT
 <Apr18-2019> <14:04:53>  >>>> CLSMAT
 <Apr18-2019> <14:04:53>  >>>> ORTHON
 <Apr18-2019> <14:04:53>  >>>> GENPT
 <Apr18-2019> <14:04:53>  Block Length= 128
 <Apr18-2019> <14:04:53>  >>>> PTBAS
 <Apr18-2019> <14:04:53>  >>>> CYCLE
 <Apr18-2019> <14:04:53>              |Error|         MaxErr       Wt(A-DIIS)
 <Apr18-2019> <14:04:53>      1      0.03434127      0.01439509
 <Apr18-2019> <14:04:53>      2      0.00634907      0.00131186    100.0
 <Apr18-2019> <14:04:53>      3      0.00385807      0.00084360    100.0
 <Apr18-2019> <14:04:53>      4      0.00394994      0.00088916      0.0
 <Apr18-2019> <14:04:53>      5      0.00045337      0.00015345      0.0
 <Apr18-2019> <14:04:54>      6      0.00005515      0.00001016      0.0
 <Apr18-2019> <14:04:54>      7      0.00001755      0.00000406      0.0
 <Apr18-2019> <14:04:54>      8      0.00000408      0.00000088      0.0
 <Apr18-2019> <14:04:54>  SCF converged
 <Apr18-2019> <14:04:54>      9      0.00000091      0.00000024      0.0
 <Apr18-2019> <14:04:54>  >>>> TOTEN
 <Apr18-2019> <14:04:54>  >>>> POPAN
 <Apr18-2019> <14:04:54>  >>>> DEBYE
 <Apr18-2019> <14:04:54>  >>>> ENGRAD
 <Apr18-2019> <14:04:54>  current energy                               -0.37704200 Hartree
 <Apr18-2019> <14:04:54>  energy change                      -0.00008035     0.00010000    T
 <Apr18-2019> <14:04:54>  constrained gradient max            0.00072724     0.00010000    F
 <Apr18-2019> <14:04:54>  constrained gradient rms            0.00041899     0.00006667    F
 <Apr18-2019> <14:04:54>  gradient max                        0.00072724
 <Apr18-2019> <14:04:54>  gradient rms                        0.00041899
 <Apr18-2019> <14:04:54>  cart. step max                      0.00871442     0.01000000    T
 <Apr18-2019> <14:04:54>  cart. step rms                      0.00400606     0.00666667    T
  Coordinates in Geometry Cycle 9
    Atom         X           Y           Z   (Angstrom)
    1.Br       -4.008886   -0.381517   -0.063568
    2.H        -2.507434    0.445017    0.798641
    3.Cl       -1.364176    1.074368    1.455157
 <Apr18-2019> <14:04:54>  >>>> CORORT
 <Apr18-2019> <14:04:54>  >>>> CLSMAT
 <Apr18-2019> <14:04:54>  >>>> ORTHON
 <Apr18-2019> <14:04:54>  >>>> GENPT
 <Apr18-2019> <14:04:54>  Block Length= 128
 <Apr18-2019> <14:04:54>  >>>> PTBAS
 <Apr18-2019> <14:04:54>  >>>> CYCLE
 <Apr18-2019> <14:04:54>              |Error|         MaxErr       Wt(A-DIIS)
 <Apr18-2019> <14:04:54>      1      0.01632669      0.00480763
 <Apr18-2019> <14:04:54>      2      0.00594585      0.00154957    100.0
 <Apr18-2019> <14:04:54>      3      0.00260246      0.00069474    100.0
 <Apr18-2019> <14:04:55>      4      0.00509986      0.00125043    100.0
 <Apr18-2019> <14:04:55>      5      0.00081042      0.00019819      0.0
 <Apr18-2019> <14:04:55>      6      0.00005589      0.00001207      0.0
 <Apr18-2019> <14:04:55>      7      0.00002268      0.00000478      0.0
 <Apr18-2019> <14:04:55>      8      0.00000718      0.00000145      0.0
 <Apr18-2019> <14:04:55>      9      0.00000078      0.00000013      0.0
 <Apr18-2019> <14:04:55>  SCF converged
 <Apr18-2019> <14:04:55>     10      0.00000022      0.00000006      0.0
 <Apr18-2019> <14:04:55>  >>>> TOTEN
 <Apr18-2019> <14:04:55>  >>>> POPAN
 <Apr18-2019> <14:04:55>  >>>> DEBYE
 <Apr18-2019> <14:04:55>  >>>> ENGRAD
 <Apr18-2019> <14:04:55>  current energy                               -0.37704572 Hartree
 <Apr18-2019> <14:04:55>  energy change                      -0.00000371     0.00010000    T
 <Apr18-2019> <14:04:55>  constrained gradient max            0.00017857     0.00010000    F
 <Apr18-2019> <14:04:55>  constrained gradient rms            0.00009624     0.00006667    F
 <Apr18-2019> <14:04:55>  gradient max                        0.00017857
 <Apr18-2019> <14:04:55>  gradient rms                        0.00009624
 <Apr18-2019> <14:04:55>  cart. step max                      0.00157812     0.01000000    T
 <Apr18-2019> <14:04:55>  cart. step rms                      0.00074920     0.00666667    T
  Coordinates in Geometry Cycle 10
    Atom         X           Y           Z   (Angstrom)
    1.Br       -4.008847   -0.380211   -0.064244
    2.H        -2.507153    0.445060    0.798862
    3.Cl       -1.364495    1.073019    1.455611
 <Apr18-2019> <14:04:55>  >>>> CORORT
 <Apr18-2019> <14:04:55>  >>>> CLSMAT
 <Apr18-2019> <14:04:55>  >>>> ORTHON
 <Apr18-2019> <14:04:55>  >>>> GENPT
 <Apr18-2019> <14:04:55>  Block Length= 128
 <Apr18-2019> <14:04:55>  >>>> PTBAS
 <Apr18-2019> <14:04:55>  >>>> CYCLE
 <Apr18-2019> <14:04:56>              |Error|         MaxErr       Wt(A-DIIS)
 <Apr18-2019> <14:04:56>      1      0.00197600      0.00072985
 <Apr18-2019> <14:04:56>      2      0.00054926      0.00013155    100.0
 <Apr18-2019> <14:04:56>      3      0.00025266      0.00006146    100.0
 <Apr18-2019> <14:04:56>      4      0.00045850      0.00010189      0.0
 <Apr18-2019> <14:04:56>      5      0.00002609      0.00000508      0.0
 <Apr18-2019> <14:04:56>      6      0.00000497      0.00000093      0.0
 <Apr18-2019> <14:04:56>  SCF converged
 <Apr18-2019> <14:04:56>      7      0.00000178      0.00000029      0.0
 <Apr18-2019> <14:04:56>  >>>> TOTEN
 <Apr18-2019> <14:04:56>  >>>> POPAN
 <Apr18-2019> <14:04:56>  >>>> DEBYE
 <Apr18-2019> <14:04:56>  >>>> ENGRAD
 <Apr18-2019> <14:04:56>  current energy                               -0.37704545 Hartree
 <Apr18-2019> <14:04:56>  energy change                       0.00000027     0.00010000    T
 <Apr18-2019> <14:04:56>  constrained gradient max            0.00012353     0.00010000    F
 <Apr18-2019> <14:04:56>  constrained gradient rms            0.00006323     0.00006667    T
 <Apr18-2019> <14:04:56>  gradient max                        0.00012353
 <Apr18-2019> <14:04:56>  gradient rms                        0.00006323
 <Apr18-2019> <14:04:56>  cart. step max                      0.00277600     0.01000000    T
 <Apr18-2019> <14:04:56>  cart. step rms                      0.00159756     0.00666667    T
  Coordinates in Geometry Cycle 11
    Atom         X           Y           Z   (Angstrom)
    1.Br       -4.008873   -0.377785   -0.065976
    2.H        -2.509030    0.445760    0.800044
    3.Cl       -1.362593    1.069894    1.456161
 <Apr18-2019> <14:04:56>  >>>> CORORT
 <Apr18-2019> <14:04:56>  >>>> CLSMAT
 <Apr18-2019> <14:04:56>  >>>> ORTHON
 <Apr18-2019> <14:04:56>  >>>> GENPT
 <Apr18-2019> <14:04:56>  Block Length= 128
 <Apr18-2019> <14:04:56>  >>>> PTBAS
 <Apr18-2019> <14:04:56>  >>>> CYCLE
 <Apr18-2019> <14:04:57>              |Error|         MaxErr       Wt(A-DIIS)
 <Apr18-2019> <14:04:57>      1      0.00302707      0.00095944
 <Apr18-2019> <14:04:57>      2      0.00084326      0.00021417    100.0
 <Apr18-2019> <14:04:57>      3      0.00156288      0.00034796    100.0
 <Apr18-2019> <14:04:57>      4      0.00022269      0.00005505      0.0
 <Apr18-2019> <14:04:57>      5      0.00004483      0.00000887      0.0
 <Apr18-2019> <14:04:57>      6      0.00000680      0.00000151      0.0
 <Apr18-2019> <14:04:57>      7      0.00000238      0.00000060      0.0
 <Apr18-2019> <14:04:57>  SCF converged
 <Apr18-2019> <14:04:57>      8      0.00000047      0.00000009      0.0
 <Apr18-2019> <14:04:57>  >>>> TOTEN
 <Apr18-2019> <14:04:57>  >>>> POPAN
 <Apr18-2019> <14:04:57>  >>>> DEBYE
 <Apr18-2019> <14:04:57>  >>>> ENGRAD
 <Apr18-2019> <14:04:57>  current energy                               -0.37704492 Hartree
 <Apr18-2019> <14:04:57>  energy change                       0.00000053     0.00010000    T
 <Apr18-2019> <14:04:57>  constrained gradient max            0.00025050     0.00010000    F
 <Apr18-2019> <14:04:57>  constrained gradient rms            0.00011174     0.00006667    F
 <Apr18-2019> <14:04:57>  gradient max                        0.00025050
 <Apr18-2019> <14:04:57>  gradient rms                        0.00011174
 <Apr18-2019> <14:04:57>  cart. step max                      0.00618096     0.01000000    T
 <Apr18-2019> <14:04:57>  cart. step rms                      0.00314696     0.00666667    T
  Coordinates in Geometry Cycle 12
    Atom         X           Y           Z   (Angstrom)
    1.Br       -4.011503   -0.375401   -0.064923
    2.H        -2.506412    0.443783    0.793863
    3.Cl       -1.362581    1.069486    1.461289
 <Apr18-2019> <14:04:57>  >>>> CORORT
 <Apr18-2019> <14:04:57>  >>>> CLSMAT
 <Apr18-2019> <14:04:57>  >>>> ORTHON
 <Apr18-2019> <14:04:57>  >>>> GENPT
 <Apr18-2019> <14:04:58>  Block Length= 128
 <Apr18-2019> <14:04:58>  >>>> PTBAS
 <Apr18-2019> <14:04:58>  >>>> CYCLE
 <Apr18-2019> <14:04:58>              |Error|         MaxErr       Wt(A-DIIS)
 <Apr18-2019> <14:04:58>      1      0.00833492      0.00276640
 <Apr18-2019> <14:04:58>      2      0.00239932      0.00057052    100.0
 <Apr18-2019> <14:04:58>      3      0.00451425      0.00097377    100.0
 <Apr18-2019> <14:04:58>      4      0.00067847      0.00016268      0.0
 <Apr18-2019> <14:04:58>      5      0.00012706      0.00002593      0.0
 <Apr18-2019> <14:04:58>      6      0.00002286      0.00000442      0.0
 <Apr18-2019> <14:04:58>      7      0.00000826      0.00000164      0.0
 <Apr18-2019> <14:04:58>      8      0.00000146      0.00000031      0.0
 <Apr18-2019> <14:04:58>  SCF converged
 <Apr18-2019> <14:04:58>      9      0.00000035      0.00000008      0.0
 <Apr18-2019> <14:04:58>  >>>> TOTEN
 <Apr18-2019> <14:04:59>  >>>> POPAN
 <Apr18-2019> <14:04:59>  >>>> DEBYE
 <Apr18-2019> <14:04:59>  >>>> ENGRAD
 <Apr18-2019> <14:04:59>  current energy                               -0.37704251 Hartree
 <Apr18-2019> <14:04:59>  energy change                       0.00000241     0.00010000    T
 <Apr18-2019> <14:04:59>  constrained gradient max            0.00102219     0.00010000    F
 <Apr18-2019> <14:04:59>  constrained gradient rms            0.00065092     0.00006667    F
 <Apr18-2019> <14:04:59>  gradient max                        0.00102219
 <Apr18-2019> <14:04:59>  gradient rms                        0.00065092
 <Apr18-2019> <14:04:59>  cart. step max                      0.02006436     0.01000000    F
 <Apr18-2019> <14:04:59>  cart. step rms                      0.01021564     0.00666667    F
  Coordinates in Geometry Cycle 13
    Atom         X           Y           Z   (Angstrom)
    1.Br       -4.012851   -0.369794   -0.057099
    2.H        -2.486348    0.438146    0.786109
    3.Cl       -1.381297    1.069516    1.461219
 <Apr18-2019> <14:04:59>  >>>> CORORT
 <Apr18-2019> <14:04:59>  >>>> CLSMAT
 <Apr18-2019> <14:04:59>  >>>> ORTHON
 <Apr18-2019> <14:04:59>  >>>> GENPT
 <Apr18-2019> <14:04:59>  Block Length= 128
 <Apr18-2019> <14:04:59>  >>>> PTBAS
 <Apr18-2019> <14:04:59>  >>>> CYCLE
 <Apr18-2019> <14:04:59>              |Error|         MaxErr       Wt(A-DIIS)
 <Apr18-2019> <14:04:59>      1      0.04881684      0.01862483
 <Apr18-2019> <14:04:59>      2      0.01392187      0.00342528    100.0
 <Apr18-2019> <14:04:59>      3      0.00641606      0.00160009    100.0
 <Apr18-2019> <14:04:59>      4      0.01177820      0.00265584    100.0
 <Apr18-2019> <14:04:59>      5      0.00180040      0.00036861      0.0
 <Apr18-2019> <14:04:59>      6      0.00026130      0.00004294      0.0
 <Apr18-2019> <14:04:59>      7      0.00008871      0.00001639      0.0
 <Apr18-2019> <14:04:59>      8      0.00001514      0.00000345      0.0
 <Apr18-2019> <14:05:00>      9      0.00000395      0.00000078      0.0
 <Apr18-2019> <14:05:00>  SCF converged
 <Apr18-2019> <14:05:00>     10      0.00000058      0.00000013      0.0
 <Apr18-2019> <14:05:00>  >>>> TOTEN
 <Apr18-2019> <14:05:00>  >>>> POPAN
 <Apr18-2019> <14:05:00>  >>>> DEBYE
 <Apr18-2019> <14:05:00>  >>>> ENGRAD
 <Apr18-2019> <14:05:00>  current energy                               -0.37692365 Hartree
 <Apr18-2019> <14:05:00>  energy change                       0.00011886     0.00010000    F
 <Apr18-2019> <14:05:00>  constrained gradient max            0.00700017     0.00010000    F
 <Apr18-2019> <14:05:00>  constrained gradient rms            0.00342993     0.00006667    F
 <Apr18-2019> <14:05:00>  gradient max                        0.00700017
 <Apr18-2019> <14:05:00>  gradient rms                        0.00342993
 <Apr18-2019> <14:05:00>  cart. step max                      0.01227155     0.01000000    F
 <Apr18-2019> <14:05:00>  cart. step rms                      0.00625373     0.00666667    T
  Coordinates in Geometry Cycle 14
    Atom         X           Y           Z   (Angstrom)
    1.Br       -4.016086   -0.371763   -0.059669
    2.H        -2.495384    0.435556    0.781564
    3.Cl       -1.369025    1.074076    1.468334
 <Apr18-2019> <14:05:00>  >>>> CORORT
 <Apr18-2019> <14:05:00>  >>>> CLSMAT
 <Apr18-2019> <14:05:00>  >>>> ORTHON
 <Apr18-2019> <14:05:00>  >>>> GENPT
 <Apr18-2019> <14:05:00>  Block Length= 128
 <Apr18-2019> <14:05:00>  >>>> PTBAS
 <Apr18-2019> <14:05:00>  >>>> CYCLE
 <Apr18-2019> <14:05:00>              |Error|         MaxErr       Wt(A-DIIS)
 <Apr18-2019> <14:05:00>      1      0.04870811      0.01877883
 <Apr18-2019> <14:05:00>      2      0.01517372      0.00375586    100.0
 <Apr18-2019> <14:05:00>      3      0.02963728      0.00641739    100.0
 <Apr18-2019> <14:05:00>      4      0.00482616      0.00119447      0.2
 <Apr18-2019> <14:05:01>      5      0.00068983      0.00013020      0.0
 <Apr18-2019> <14:05:01>      6      0.00013274      0.00002758      0.0
 <Apr18-2019> <14:05:01>      7      0.00004652      0.00000794      0.0
 <Apr18-2019> <14:05:01>      8      0.00000929      0.00000187      0.0
 <Apr18-2019> <14:05:01>      9      0.00000181      0.00000037      0.0
 <Apr18-2019> <14:05:01>  SCF converged
 <Apr18-2019> <14:05:01>     10      0.00000034      0.00000007      0.0
 <Apr18-2019> <14:05:01>  >>>> TOTEN
 <Apr18-2019> <14:05:01>  >>>> POPAN
 <Apr18-2019> <14:05:01>  >>>> DEBYE
 <Apr18-2019> <14:05:01>  >>>> ENGRAD
 <Apr18-2019> <14:05:01>  current energy                               -0.37700600 Hartree
 <Apr18-2019> <14:05:01>  energy change                      -0.00008235     0.00010000    T
 <Apr18-2019> <14:05:01>  constrained gradient max            0.00224661     0.00010000    F
 <Apr18-2019> <14:05:01>  constrained gradient rms            0.00121030     0.00006667    F
 <Apr18-2019> <14:05:01>  gradient max                        0.00224661
 <Apr18-2019> <14:05:01>  gradient rms                        0.00121030
 <Apr18-2019> <14:05:01>  cart. step max                      0.01737191     0.01000000    F
 <Apr18-2019> <14:05:01>  cart. step rms                      0.01000122     0.00666667    F
  Coordinates in Geometry Cycle 15
    Atom         X           Y           Z   (Angstrom)
    1.Br       -4.008834   -0.381143   -0.063856
    2.H        -2.507210    0.445110    0.798797
    3.Cl       -1.364452    1.073901    1.455288
 <Apr18-2019> <14:05:01>  >>>> CORORT
 <Apr18-2019> <14:05:01>  >>>> CLSMAT
 <Apr18-2019> <14:05:01>  >>>> ORTHON
 <Apr18-2019> <14:05:01>  >>>> GENPT
 <Apr18-2019> <14:05:01>  Block Length= 128
 <Apr18-2019> <14:05:01>  >>>> PTBAS
 <Apr18-2019> <14:05:01>  >>>> CYCLE
 <Apr18-2019> <14:05:01>              |Error|         MaxErr       Wt(A-DIIS)
 <Apr18-2019> <14:05:01>      1      0.01706164      0.00488898
 <Apr18-2019> <14:05:02>      2      0.00394801      0.00080947    100.0
 <Apr18-2019> <14:05:02>      3      0.00214261      0.00040376    100.0
 <Apr18-2019> <14:05:02>      4      0.00290319      0.00064362      0.0
 <Apr18-2019> <14:05:02>      5      0.00026846      0.00005818      0.0
 <Apr18-2019> <14:05:02>      6      0.00003829      0.00000787      0.0
 <Apr18-2019> <14:05:02>      7      0.00001313      0.00000262      0.0
 <Apr18-2019> <14:05:02>      8      0.00000241      0.00000050      0.0
 <Apr18-2019> <14:05:02>  SCF converged
 <Apr18-2019> <14:05:02>      9      0.00000064      0.00000015      0.0
 <Apr18-2019> <14:05:02>  >>>> TOTEN
 <Apr18-2019> <14:05:02>  >>>> POPAN
 <Apr18-2019> <14:05:02>  >>>> DEBYE
 <Apr18-2019> <14:05:02>  >>>> ENGRAD
 <Apr18-2019> <14:05:02>  current energy                               -0.37704563 Hartree
 <Apr18-2019> <14:05:02>  energy change                      -0.00003963     0.00010000    T
 <Apr18-2019> <14:05:02>  constrained gradient max            0.00000645     0.00010000    T
 <Apr18-2019> <14:05:02>  constrained gradient rms            0.00000337     0.00006667    T
 <Apr18-2019> <14:05:02>  gradient max                        0.00000645
 <Apr18-2019> <14:05:02>  gradient rms                        0.00000337
 <Apr18-2019> <14:05:02>  cart. step max                      0.00013966     0.01000000    T
 <Apr18-2019> <14:05:02>  cart. step rms                      0.00007112     0.00666667    T
 <Apr18-2019> <14:05:02>  GEOMETRY CONVERGED
 <Apr18-2019> <14:05:02>  Calculating Energy Terms for Final Geometry
  Coordinates in Geometry Cycle 15
    Atom         X           Y           Z   (Angstrom)
    1.Br       -4.008834   -0.381143   -0.063856
    2.H        -2.507210    0.445110    0.798797
    3.Cl       -1.364452    1.073901    1.455288
 <Apr18-2019> <14:05:02>  >>>> CORORT
 <Apr18-2019> <14:05:02>  >>>> CLSMAT
 <Apr18-2019> <14:05:02>  >>>> ORTHON
 <Apr18-2019> <14:05:02>  >>>> GENPT
 <Apr18-2019> <14:05:02>  Block Length= 128
 <Apr18-2019> <14:05:02>  >>>> PTBAS
 <Apr18-2019> <14:05:02>  >>>> CYCLE
 <Apr18-2019> <14:05:03>              |Error|         MaxErr       Wt(A-DIIS)
 <Apr18-2019> <14:05:03>      1      0.00000017      0.00000005
 <Apr18-2019> <14:05:03>      2      0.00000025      0.00000005    100.0
 <Apr18-2019> <14:05:03>  SCF converged
 <Apr18-2019> <14:05:03>      3      0.00000012      0.00000003    100.0
 <Apr18-2019> <14:05:03>  >>>> TOTEN
 <Apr18-2019> <14:05:03>  >>>> POPAN
 <Apr18-2019> <14:05:03>  >>>> DEBYE
 <Apr18-2019> <14:05:03>  >>>> AMETS
 <Apr18-2019> <14:05:03>  >>>> POPUL
 <Apr18-2019> <14:05:03>   Bond Energy          -0.37704563 a.u.
 <Apr18-2019> <14:05:03>   Bond Energy         -10.25993350 eV
 <Apr18-2019> <14:05:03>   Bond Energy        -236.60       kcal/mol
 <Apr18-2019> <14:05:03>  >>>> ENHESS
 <Apr18-2019> <14:05:03>  === NUCLEUS:     1
 <Apr18-2019> <14:05:05>  === NUCLEUS:     2
 <Apr18-2019> <14:05:07>  === NUCLEUS:     3
 <Apr18-2019> <14:05:09>  >>>> CALC_HESS_PMAT
 <Apr18-2019> <14:05:09>  >>>> CALC_HESS_WMAT
 <Apr18-2019> <14:05:09>  NORMAL TERMINATION
 <Apr18-2019> <14:05:09>  END
