

 Parallel Execution: Process Information
 ==============================================================================
 Rank   Node Name                              NodeID   MyNodeRank  NodeMaster
    0   BAZIS-cn018                               0          0          0
    1   BAZIS-cn018                               0          1         -1
    2   BAZIS-cn018                               0          2         -1
    3   BAZIS-cn018                               0          3         -1
    4   BAZIS-cn018                               0          4         -1
    5   BAZIS-cn018                               0          5         -1
    6   BAZIS-cn018                               0          6         -1
    7   BAZIS-cn018                               0          7         -1
    8   BAZIS-cn018                               0          8         -1
    9   BAZIS-cn018                               0          9         -1
   10   BAZIS-cn018                               0         10         -1
   11   BAZIS-cn018                               0         11         -1
 ==============================================================================


May use up to 30771MB of RAM as shared memory on node 0


XC
    GGA BP86
END

SCF
    iterations 250
END

EPRINT
    SFO Eig Ovl
END

ZLMFIT
    Quality normal
END

BECKEGRID
    Quality good
End

SYMMETRY nosym
CHARGE -1

ATOMS
1.Cl       -3.907774   -0.076535   -0.085203 f=ClH
2.H        -2.394005    0.462141    0.878263 f=ClH
3.F        -1.578716    0.752263    1.397169 f=F
END

Fragments
ClH /home/tcst25/advanced_comp_chemistry/exercise2/hydrogen/ClHF/frag1_ClH.t21
F /home/tcst25/advanced_comp_chemistry/exercise2/hydrogen/ClHF/frag2_F.t21
End
end input

 *******************************************************************************
 *                                                                             *
 *  -------------------------------------                                      *
 *   Amsterdam Density Functional  (ADF)         2017                          *
 *  -------------------------------------                                      *
 *                                               r58813 2017-04-12             *
 *                                                                             *
 *                                                                             *
 *                              =================                              *
 *                              |               |                              *
 *                              |     A D F     |                              *
 *                              |               |                              *
 *                              =================                              *
 *                                                                             *
 *                                                                             *
 *   Online information and documentation:  https://www.scm.com/support/       *
 *   E-mail:  support@scm.com   info@scm.com                                   *
 *                                                                             *
 *   Scientific publications using ADF results must be properly referenced     *
 *   See the User Manuals (or the web site) for recommended citations          *
 *   The terms and conditions of the End User License Agreement apply to       *
 *   the use of ADF, https://www.scm.com/license-terms/                        *
 *                                                                             *
 **********************  x86_64_linux_intel / intelmpi  ************************
 
 Licensed to: VU/FEW (+ SARA) / ALGEMEEN / Amsterdam / THE NETHERLANDS
 SCM User ID: u7668
  
 ADF 2017  RunTime: May09-2019 17:23:41  Nodes: 1  Procs: 12

 Temporary files are created in /local/datastore0/tcst25/189815/kid_0.pVKVMi


Communication costs MPI_COMM_WORLD:      3.849 usec per message,   0.0176 usec per 8-byte item
Communication costs for intra-node:      3.871 usec per message,   0.0177 usec per 8-byte item

 *** (NO TITLE) ***



 ===========================
 A T T A C H E D   F I L E S
 ===========================
  



 ===============================
 M O D E L   P A R A M E T E R S
 ===============================
  
 DENSITY FUNCTIONAL POTENTIAL (scf)
    LDA:                               VWN                                      
    Gradient Corrections:              Becke88 Perdew86                        == Not Default ==

 SPIN  (restricted / unrestr.)
    Molecule:                          Restricted                               
    Fragments:                         Restricted                               

 OTHER ASPECTS
    Relativistic Corrections:          ---                                      

    Nuclear Charge Density Model:      Point Charge Nuclei                      
    Core Treatment:                    Frozen Orbital(s)                        

    Hyperfine or Zeeman Interaction:   ---                                      


 Fragment File(s)
 ----------------
 ClH:
         file : /home/tcst25/advanced_comp_chemistry/exercise2/hydrogen/ClHF/frag1_ClH.t21
         jobid: ADF 2017  RunTime: May09-2019 17:12:36  Nodes: 1  Procs: 12
         title: *** (NO TITLE) ***
 F:
         file : /home/tcst25/advanced_comp_chemistry/exercise2/hydrogen/ClHF/frag2_F.t21
         jobid: ADF 2017  RunTime: May09-2019 17:12:34  Nodes: 1  Procs: 12
         title: *** (NO TITLE) ***



                                        ************************************
                                        *  R U N   T Y P E : SINGLE POINT  *
                                        ************************************
  



 ===============
 G E O M E T R Y  ***  Linear Molecule  ***
 ===============
  

 ATOMS
 =====                            X Y Z                    CHARGE
                                (Angstrom)             Nucl     +Core       At.Mass
                       --------------------------    ----------------       -------
    1  Cl             -3.9078   -0.0765   -0.0852     17.00     17.00       34.9689
    2  H              -2.3940    0.4621    0.8783      1.00      1.00        1.0078
    3  F              -1.5787    0.7523    1.3972      9.00      9.00       18.9984


 FRAGMENTS
 =========                                     Atoms in this Fragment     Cart. coord.s (Angstrom)
                                               -------------------------------------------------------
    1  ClH                                               1  Cl          -3.9078   -0.0765   -0.0852
                                                         2  H           -2.3940    0.4621    0.8783
    2  F                                                 3  F           -1.5787    0.7523    1.3972


 Interatomic Distance Matrix (Angstrom)
 --------------------------------------

   1)     0.000
   2)     1.873   0.000
   3)     2.883   1.009   0.000

 Min. Distance =    1.0090
 Max. Distance =    2.8825



 =====================================
 S Y M M E T R Y ,   E L E C T R O N S
 =====================================
  
 Symmetry: NOSYM

 Irreducible Representations, including subspecies
 -------------------------------------------------
 A


 Configuration of Valence Electrons
 ==================================
 ( determined in the SCF procedure )

 Total:   28

 Net Charge: -1 (Nuclei minus Electrons)

 Aufbau principle for MO occupations will be applied through SCF cycle no.     125
 Thereafter, the program will assign electrons to MOs that are spatially
 similar to the occupied MOs in a "reference" cycle ("KeepOrbitals").
 The reference cycle is always the PREVIOUS cycle: it will evolve with
 the SCF procedure.
1
 ***************************************************************************************************



                                      ****************************************
                                      *  B U I L D : (Fragments, Functions)  *
                                      ****************************************
  

 The individual fragments are copies of the corresponding 'Master' fragments defined on the fragment files.
 However, they may have been rotated (and translated) with respect to the Master. The local coordinate axes
 of each fragment (which define for instance the spatial orientation in the current molecule of a fragment
 P:x orbital) are not necessarily those of the molecule.
 The local frame (if different from the molecular one) is printed to enable an interpretation of the expan-
 sion of an MO in Fragment Orbitals.



                                             *************************
                                             *  Fragment Type : ClH  *
                                             *************************
  

 Fragment no.    1   (in the list of all fragments)
 -----------------
 The local coordinate frame is identical to the molecular frame.

 Check Atomic Coordinates:

                  Master (on file)          After Computed Tranformation               As specified on Input
           ----------------------------     ----------------------------     ---------------------------------
     1)    -3.90777  -0.07653  -0.08520     -3.90777  -0.07654  -0.08520       1  -3.90777  -0.07654  -0.08520
     2)    -2.39400   0.46214   0.87826     -2.39401   0.46214   0.87826       2  -2.39401   0.46214   0.87826



                                              ***********************
                                              *  Fragment Type : F  *
                                              ***********************
  

 Fragment no.    2   (in the list of all fragments)
 -----------------
 The local coordinate frame is identical to the molecular frame.

 Check Atomic Coordinates:

                  Master (on file)          After Computed Tranformation               As specified on Input
           ----------------------------     ----------------------------     ---------------------------------
     1)    -1.57872   0.75226   1.39717     -1.57872   0.75226   1.39717       3  -1.57872   0.75226   1.39717



 =======
 S F O s  ***  (Symmetrized Fragment Orbitals)  ***
 =======
  
 SFOs are linear combinations of (valence) Fragment Orbitals (FOs), such that the SFOs transform as the
 irreducible representations of the (molecular) symmetry group. Each SFO is therefore characterized by
 an irrep of the molecule and by a few (or only one) generating FOs.
 The SFOs constitute a symmetry-adapted basis for the Fock matrix. The MO eigenvector coefficients in
 this basis provide a direct interpretation of the MOs in terms of Frontier Orbital Theory.

 The SFOs are combined with auxiliary Core Functions (CFs) to ensure orthogonalization on the (frozen)
 Core Orbitals (COs). The Core-orthogonalized SFOs (CSFOs) constitute the true Fock basis.

 The FOs, and hence also the (C)SFOs are combinations of the elementary basis functions (BAS). The basis
 functions that participate in the description of the SFOs depend on the irrep. The indices of the
 involved functions are printed below for each irrep.
 (The complete list of primitive basis functions is printed in another section)

 Total nr. of (C)SFOs (summation over all irreps) :    71

 NOTE: a (C)SFO that is defined as a combination of more than one FO is usually NOT normalized.



                                       === A ===
 Nr. of SFOs :   71
 Cartesian basis functions that participate in this irrep (total number =    80) :
      1     2     3     4    11    12    13     5     8    14
     17    20     6     9    15    18    21     7    10    16
     19    22    23    24    25    26    27    28    29    30
     31    32    33    34    35    36    37    38    39    40
     41    42    43    44    45    46    47    48    49    50
     51    52    53    54    55    56    59    62    57    60
     63    58    61    64    65    66    67    68    69    70
     71    72    73    74    75    76    77    78    79    80

    SFO  (index         Fragment          Generating    Expansion in Fragment Orbitals
  indx  incl.CFs)   Occup   Orb.Energy   FragmentType  Coeff.   Orbital     on Fragment
 --------------------------------------------------------------------------------------
     1       1      2.000    -100.739 au  ClH           1.00      1 A               1
                        (   -2741.235 eV)
     2       2      2.000      -9.189 au  ClH           1.00      2 A               1
                        (    -250.039 eV)
     3       3      2.000      -7.020 au  ClH           1.00      3 A               1
                        (    -191.025 eV)
     4       4      2.000      -7.006 au  ClH           1.00      4 A               1
                        (    -190.652 eV)
     5       5      2.000      -7.006 au  ClH           1.00      5 A               1
                        (    -190.652 eV)
     6       6      2.000      -0.727 au  ClH           1.00      6 A               1
                        (     -19.778 eV)
     7       7      2.000      -0.366 au  ClH           1.00      7 A               1
                        (      -9.966 eV)
     8       8      2.000      -0.280 au  ClH           1.00      8 A               1
                        (      -7.622 eV)
     9       9      2.000      -0.280 au  ClH           1.00      9 A               1
                        (      -7.622 eV)
    10      10       --        -0.177 au  ClH           1.00     10 A               1
                        (      -4.828 eV)
    11      11       --         0.062 au  ClH           1.00     11 A               1
                        (       1.690 eV)
    12      12       --         0.214 au  ClH           1.00     12 A               1
                        (       5.827 eV)
    13      13       --         0.227 au  ClH           1.00     13 A               1
                        (       6.165 eV)
    14      14       --         0.227 au  ClH           1.00     14 A               1
                        (       6.166 eV)
    15      15       --         0.319 au  ClH           1.00     15 A               1
                        (       8.685 eV)
    16      16       --         0.323 au  ClH           1.00     16 A               1
                        (       8.793 eV)
    17      17       --         0.323 au  ClH           1.00     17 A               1
                        (       8.794 eV)
    18      18       --         0.423 au  ClH           1.00     18 A               1
                        (      11.508 eV)
    19      19       --         0.423 au  ClH           1.00     19 A               1
                        (      11.508 eV)
    20      20       --         0.435 au  ClH           1.00     20 A               1
                        (      11.848 eV)
    21      21       --         0.571 au  ClH           1.00     21 A               1
                        (      15.550 eV)
    22      22       --         0.571 au  ClH           1.00     22 A               1
                        (      15.550 eV)
    23      23       --         0.907 au  ClH           1.00     23 A               1
                        (      24.679 eV)
    24      24       --         1.199 au  ClH           1.00     24 A               1
                        (      32.623 eV)
    25      25       --         1.199 au  ClH           1.00     25 A               1
                        (      32.623 eV)
    26      26       --         1.223 au  ClH           1.00     26 A               1
                        (      33.282 eV)
    27      27       --         1.223 au  ClH           1.00     27 A               1
                        (      33.282 eV)
    28      28       --         1.287 au  ClH           1.00     28 A               1
                        (      35.014 eV)
    29      29       --         1.287 au  ClH           1.00     29 A               1
                        (      35.015 eV)
    30      30       --         1.355 au  ClH           1.00     30 A               1
                        (      36.873 eV)
    31      31       --         1.675 au  ClH           1.00     31 A               1
                        (      45.575 eV)
    32      32       --         2.121 au  ClH           1.00     32 A               1
                        (      57.727 eV)
    33      33       --         2.121 au  ClH           1.00     33 A               1
                        (      57.728 eV)
    34      34       --         2.135 au  ClH           1.00     34 A               1
                        (      58.104 eV)
    35      35       --         2.182 au  ClH           1.00     35 A               1
                        (      59.388 eV)
    36      36       --         2.599 au  ClH           1.00     36 A               1
                        (      70.710 eV)
    37      37       --         2.599 au  ClH           1.00     37 A               1
                        (      70.710 eV)
    38      38       --         2.899 au  ClH           1.00     38 A               1
                        (      78.897 eV)
    39      39       --         2.899 au  ClH           1.00     39 A               1
                        (      78.899 eV)
    40      40       --         3.511 au  ClH           1.00     40 A               1
                        (      95.547 eV)
    41      41       --        13.101 au  ClH           1.00     41 A               1
                        (     356.492 eV)
    42      42       --        18.881 au  ClH           1.00     42 A               1
                        (     513.786 eV)
    43      43       --        18.881 au  ClH           1.00     43 A               1
                        (     513.786 eV)
    44      44       --        19.301 au  ClH           1.00     44 A               1
                        (     525.211 eV)
    45      45       --       215.992 au  ClH           1.00     45 A               1
                        (    5877.450 eV)
    46      46      2.000     -23.791 au  F             1.00      1 A               2
                        (    -647.398 eV)
    47      47      2.000      -0.555 au  F             1.00      2 A               2
                        (     -15.093 eV)
    48      48      2.000       0.108 au  F             1.00      3 A               2
                        (       2.944 eV)
    49      49      2.000       0.108 au  F             1.00      4 A               2
                        (       2.944 eV)
    50      50      2.000       0.108 au  F             1.00      5 A               2
                        (       2.944 eV)
    51      51       --         0.286 au  F             1.00      6 A               2
                        (       7.773 eV)
    52      52       --         0.812 au  F             1.00      7 A               2
                        (      22.092 eV)
    53      53       --         0.812 au  F             1.00      8 A               2
                        (      22.092 eV)
    54      54       --         0.812 au  F             1.00      9 A               2
                        (      22.092 eV)
    55      55       --         1.566 au  F             1.00     10 A               2
                        (      42.603 eV)
    56      56       --         1.566 au  F             1.00     11 A               2
                        (      42.603 eV)
    57      57       --         1.566 au  F             1.00     12 A               2
                        (      42.603 eV)
    58      58       --         1.566 au  F             1.00     13 A               2
                        (      42.603 eV)
    59      59       --         1.566 au  F             1.00     14 A               2
                        (      42.603 eV)
    60      60       --         2.040 au  F             1.00     15 A               2
                        (      55.515 eV)
    61      61       --         3.896 au  F             1.00     16 A               2
                        (     106.020 eV)
    62      62       --         3.896 au  F             1.00     17 A               2
                        (     106.020 eV)
    63      63       --         3.896 au  F             1.00     18 A               2
                        (     106.020 eV)
    64      64       --         3.896 au  F             1.00     19 A               2
                        (     106.020 eV)
    65      65       --         3.896 au  F             1.00     20 A               2
                        (     106.020 eV)
    66      66       --         3.896 au  F             1.00     21 A               2
                        (     106.020 eV)
    67      67       --         3.896 au  F             1.00     22 A               2
                        (     106.020 eV)
    68      68       --         5.088 au  F             1.00     23 A               2
                        (     138.458 eV)
    69      69       --         5.088 au  F             1.00     24 A               2
                        (     138.458 eV)
    70      70       --         5.088 au  F             1.00     25 A               2
                        (     138.458 eV)
    71      71       --        48.938 au  F             1.00     26 A               2
                        (    1331.672 eV)



 ================================
 (Slater-type)  F U N C T I O N S  ***  (Basis and Fit)  ***
 ================================
  

 Atom Type    1  (Cl)
 ==============

 Valence Basis Sets:  14
 -----------------------
   1 S   20.300000
   1 S   15.250000
   2 S    6.250000
   2 S    4.450000
   2 P    8.850000
   2 P    5.050000
   3 S    3.450000
   3 S    2.300000
   3 S    1.600000
   3 P    3.350000
   3 P    2.050000
   3 P    1.200000
   3 D    2.000000
   4 F    2.000000

 Atom Type    2  (H)
 ==============

 Valence Basis Sets:   5
 -----------------------
   1 S    0.690000
   1 S    0.920000
   1 S    1.580000
   2 P    1.250000
   3 D    2.500000

 Atom Type    3  (F)
 ==============

 Valence Basis Sets:  10
 -----------------------
   1 S   10.880000
   1 S    7.700000
   2 S    3.240000
   2 S    1.940000
   2 S    0.740000
   2 P    4.540000
   2 P    2.300000
   2 P    1.240000
   3 D    2.000000
   4 F    3.000000


 BAS: List of all Elementary Cartesian Basis Functions
 =====================================================

 The numbering in the list below (to the right of the function characteristics) is referred
 to in print-outs of MO eigenvectors and Mulliken populations in the BAS representation
 (as contrasted to the SFO representation).

 Notes:
 1. The functions are characterized by a polynomial prefactor (powers of x,y,z and r) and
    an exponential decay factor alpha.
 2. Since the basis sets are specific for an atom TYPE, the individual functions occur on
    all atoms of that type.
 3. The word 'Core' in the left margin signals that it is a Core Function (CF) : not a
    degree of freedom in the valence set, but only used to ensure orthogonalization of
    the other valence basis functions on the frozen Core Orbitals.


 (power of) X  Y  Z  R     Alpha  on Atom
            ==========     =====     ==========

 Cl                                   1
                                  ---------------------------------------------------------------------------
            0  0  0  0    20.300      1
            0  0  0  0    15.250      2
            0  0  0  1     6.250      3
            0  0  0  1     4.450      4
            1  0  0  0     8.850      5
            0  1  0  0     8.850      6
            0  0  1  0     8.850      7
            1  0  0  0     5.050      8
            0  1  0  0     5.050      9
            0  0  1  0     5.050     10
            0  0  0  2     3.450     11
            0  0  0  2     2.300     12
            0  0  0  2     1.600     13
            1  0  0  1     3.350     14
            0  1  0  1     3.350     15
            0  0  1  1     3.350     16
            1  0  0  1     2.050     17
            0  1  0  1     2.050     18
            0  0  1  1     2.050     19
            1  0  0  1     1.200     20
            0  1  0  1     1.200     21
            0  0  1  1     1.200     22
            2  0  0  0     2.000     23
            1  1  0  0     2.000     24
            1  0  1  0     2.000     25
            0  2  0  0     2.000     26
            0  1  1  0     2.000     27
            0  0  2  0     2.000     28
            3  0  0  0     2.000     29
            2  1  0  0     2.000     30
            2  0  1  0     2.000     31
            1  2  0  0     2.000     32
            1  1  1  0     2.000     33
            1  0  2  0     2.000     34
            0  3  0  0     2.000     35
            0  2  1  0     2.000     36
            0  1  2  0     2.000     37
            0  0  3  0     2.000     38

 H                                    2
                                  ---------------------------------------------------------------------------
            0  0  0  0     0.690     39
            0  0  0  0     0.920     40
            0  0  0  0     1.580     41
            1  0  0  0     1.250     42
            0  1  0  0     1.250     43
            0  0  1  0     1.250     44
            2  0  0  0     2.500     45
            1  1  0  0     2.500     46
            1  0  1  0     2.500     47
            0  2  0  0     2.500     48
            0  1  1  0     2.500     49
            0  0  2  0     2.500     50

 F                                    3
                                  ---------------------------------------------------------------------------
            0  0  0  0    10.880     51
            0  0  0  0     7.700     52
            0  0  0  1     3.240     53
            0  0  0  1     1.940     54
            0  0  0  1     0.740     55
            1  0  0  0     4.540     56
            0  1  0  0     4.540     57
            0  0  1  0     4.540     58
            1  0  0  0     2.300     59
            0  1  0  0     2.300     60
            0  0  1  0     2.300     61
            1  0  0  0     1.240     62
            0  1  0  0     1.240     63
            0  0  1  0     1.240     64
            2  0  0  0     2.000     65
            1  1  0  0     2.000     66
            1  0  1  0     2.000     67
            0  2  0  0     2.000     68
            0  1  1  0     2.000     69
            0  0  2  0     2.000     70
            3  0  0  0     3.000     71
            2  1  0  0     3.000     72
            2  0  1  0     3.000     73
            1  2  0  0     3.000     74
            1  1  1  0     3.000     75
            1  0  2  0     3.000     76
            0  3  0  0     3.000     77
            0  2  1  0     3.000     78
            0  1  2  0     3.000     79
            0  0  3  0     3.000     80

 Total number of charge fitting functions (nprimf)       241
 Total number of Cartesian basis functions (naos)         80
 Total number of Cartesian core functions  (ncos)          0

1
 ***************************************************************************************************



                                              ***********************
                                              *  T E C H N I C A L  *
                                              ***********************
  



 =============================================================
 P A R A L L E L I Z A T I O N  and  V E C T O R I Z A T I O N
 =============================================================
  
 Nr of parallel processes:                               12
 Maximum vector length in NumInt loops:                 128

 IO buffersize (Mb):                                     64.000000



 =====================
 S C F   U P D A T E S
 =====================
  
 Max. nr. of cycles:                               250
 Convergence criterion:                              0.0000010000
   secondary criterion:                              0.0010000000

 Mix parameter (when DIIS does not apply):           0.2000000000
 Mixed ADIIS+DIIS will be used
    Max number of expansion vectors:                10
    Pure ADIIS when Max([F,P]) is above              0.1000000000
    Pure DIIS when Max([F,P]) is below               0.0010000000
 Automatic ElectronSmearing (in case of problematic SCF convergence) disabled



 =================
 P R E C I S I O N  ***  (General: NumInt, NeglectFunctionTails, ...)  ***
 =================
  

 NumInt:           Target precision:                 6.0000000000
 -------           Initial precision:                6.0000000000
                   Min. precision (optimization):    6.0000000000

 Neglect Functions:          Basis functions:        0.1000000000E-07
 ------------------          Fit functions:          0.1000000000E-07



 ===========================
 L I N E A R   S C A L I N G
 ===========================
  

 Cut-off radii density fit:                        0.1000000000E-09
 Overlap cut-off criterion AO matrix elements:     0.1000000000E-07
 Cut-offs for Coulomb potential and fitted density:0.1000000000E-09
 Cut-off criterion for Coulomb multipole terms:    0.1000000000E-09
 Progressive Convergence parameter:                 0.000000000    
1
 ***************************************************************************************************



                                            ***************************
                                            *  C O M P U T A T I O N  *
                                            ***************************
  

 Number of elements of the density matrix on this node (used, total):       741      3240



 ===========================================
 Numerical Integration : Fuzzy Cells (Becke)
 ===========================================
  
 Becke grid quality: GOOD           
  
 Lebedev angular grid order:             min:  11 max:  31
 Nr. of radial points:                   min:  54 max:  80

 Total nr. of points:      43061
 Nr. of blocks:              337
 Block length:               128
 Nr. of dummy points:         75


 Test of Precision of the Numerical Integration Grid
 ===================================================

 Integral of the Total Core Density:                   0.00000000000000



 ========================
 Density Fitting (zlmFit)
 ========================
  
 ZlmFit Fit Quality: NORMAL         
  
 Max L-expansion:                        min:   6 max:   7
 Nr. of radial interpolation points:     min:  39 max:  60



 =====
 S C F  ***  ScaSCF  ***
 =====
  
 Initial density matrix is calculated as sum of fragments

 CYCLE    1
 SCF Error: norm([F,P])=      1.414523108570, max([F,P])=      1.177952055247
 orbitals (Q,E):
 ---------------
 A :5...24           ( 2.00    -6.8284)  ( 2.00    -6.8284)  ( 2.00    -0.7215)  ( 2.00    -0.5544)
                     ( 2.00    -0.1717)  ( 2.00    -0.1142)  ( 2.00    -0.1142)  ( 2.00    -0.0835)
                     ( 2.00    -0.0029)  ( 2.00    -0.0029)  ( 0.00     0.2221)  ( 0.00     0.2701)
                     ( 0.00     0.3884)  ( 0.00     0.4038)  ( 0.00     0.4038)  ( 0.00     0.4199)
                     ( 0.00     0.5349)  ( 0.00     0.5349)  ( 0.00     0.5841)  ( 0.00     0.5878)

 CYCLE    2
  SDIIS (wt  0.000):  0.1086  0.8914
 A-DIIS (wt  1.000):  0.9557  0.0443
  DIIS coefficients:  0.9557  0.0443
 SCF Error: norm([F,P])=      0.467492290704, max([F,P])=      0.127754099714
 orbitals (Q,E):
 ---------------
 A :5...15           ( 2.00    -6.8139)  ( 2.00    -6.8139)  ( 2.00    -0.7331)  ( 2.00    -0.5449)
                     ( 2.00    -0.1723)  ( 2.00    -0.1061)  ( 2.00    -0.1061)  ( 2.00    -0.0855)
                     ( 2.00    -0.0139)  ( 2.00    -0.0139)  ( 0.00     0.2217)

 CYCLE    3
  SDIIS (wt  0.000):  0.0643 -2.0000  2.9357
 A-DIIS (wt  1.000):  0.9523  0.0000  0.0477
  DIIS coefficients:  0.9523  0.0000  0.0477
 SCF Error: norm([F,P])=      0.409727990802, max([F,P])=      0.116435621844
 orbitals (Q,E):
 ---------------
 A :5...15           ( 2.00    -6.8137)  ( 2.00    -6.8137)  ( 2.00    -0.7332)  ( 2.00    -0.5446)
                     ( 2.00    -0.1723)  ( 2.00    -0.1059)  ( 2.00    -0.1059)  ( 2.00    -0.0854)
                     ( 2.00    -0.0140)  ( 2.00    -0.0140)  ( 0.00     0.2217)

 CYCLE    4
  SDIIS (wt  0.000): -2.0000  3.0000  0.0000
 A-DIIS (wt  1.000):  0.0000  0.0000  1.0000
  DIIS coefficients:  0.0000  0.0000  1.0000
 SCF Error: norm([F,P])=      0.410316316573, max([F,P])=      0.116182799800
 orbitals (Q,E):
 ---------------
 A :5...15           ( 2.00    -6.5219)  ( 2.00    -6.5216)  ( 2.00    -0.9693)  ( 2.00    -0.3836)
                     ( 2.00    -0.3346)  ( 2.00    -0.2430)  ( 2.00    -0.2430)  ( 2.00     0.0220)
                     ( 2.00     0.0509)  ( 2.00     0.0509)  ( 0.00     0.1755)

 CYCLE    5
  SDIIS (wt  0.000): -1.6640  2.4258  0.2382
 A-DIIS (wt  1.000):  0.0000  0.7132  0.2868
  DIIS coefficients:  0.0000  0.7132  0.2868
 SCF Error: norm([F,P])=      0.853784595860, max([F,P])=      0.238476708511
 orbitals (Q,E):
 ---------------
 A :5...15           ( 2.00    -6.6734)  ( 2.00    -6.6734)  ( 2.00    -0.8691)  ( 2.00    -0.4351)
                     ( 2.00    -0.2676)  ( 2.00    -0.1461)  ( 2.00    -0.1461)  ( 2.00    -0.0250)
                     ( 2.00    -0.0083)  ( 2.00    -0.0083)  ( 0.00     0.1888)

 CYCLE    6
  SDIIS (wt  0.594): -0.7001  2.9658 -2.0000 -0.0403  0.7746
 A-DIIS (wt  0.406):  0.0000  0.0000  0.0251  0.0000  0.9749
  DIIS coefficients: -0.4159  1.7619 -1.1780 -0.0239  0.8559
 SCF Error: norm([F,P])=      0.131436304579, max([F,P])=      0.041186354856
 orbitals (Q,E):
 ---------------
 A :5...15           ( 2.00    -6.7296)  ( 2.00    -6.7296)  ( 2.00    -0.8440)  ( 2.00    -0.4638)
                     ( 2.00    -0.2465)  ( 2.00    -0.1221)  ( 2.00    -0.1221)  ( 2.00    -0.0470)
                     ( 2.00    -0.0330)  ( 2.00    -0.0330)  ( 0.00     0.1948)

 CYCLE    7
  SDIIS (wt  0.795): -0.4891 -2.0000  2.5814  0.0096  0.3418  0.5563
 A-DIIS (wt  0.205):  0.0000  0.0000  0.0000  0.0000  0.2290  0.7710
  DIIS coefficients: -0.3890 -1.5907  2.0531  0.0077  0.3187  0.6002
 SCF Error: norm([F,P])=      0.075872047032, max([F,P])=      0.021261786422
 orbitals (Q,E):
 ---------------
 A :5...15           ( 2.00    -6.7071)  ( 2.00    -6.7071)  ( 2.00    -0.8525)  ( 2.00    -0.4544)
                     ( 2.00    -0.2532)  ( 2.00    -0.1301)  ( 2.00    -0.1301)  ( 2.00    -0.0405)
                     ( 2.00    -0.0251)  ( 2.00    -0.0251)  ( 0.00     0.1934)

 CYCLE    8
  SDIIS (wt  0.988): -0.0925 -0.7648  0.8727 -0.0000  0.0634  0.1708  0.7504
 A-DIIS (wt  0.012):  0.0000  0.0000  0.0000  0.0000  0.0000  0.0000  1.0000
  DIIS coefficients: -0.0914 -0.7557  0.8623 -0.0000  0.0627  0.1687  0.7534
 SCF Error: norm([F,P])=      0.008544168280, max([F,P])=      0.002186580222
 orbitals (Q,E):
 ---------------
 A :5...15           ( 2.00    -6.7087)  ( 2.00    -6.7087)  ( 2.00    -0.8511)  ( 2.00    -0.4549)
                     ( 2.00    -0.2521)  ( 2.00    -0.1289)  ( 2.00    -0.1289)  ( 2.00    -0.0407)
                     ( 2.00    -0.0255)  ( 2.00    -0.0255)  ( 0.00     0.1937)

 CYCLE    9
  SDIIS (wt  1.000):  0.0062  0.2930 -0.2992 -0.0017  0.0194  0.0439  0.3122  0.6263
  DIIS coefficients:  0.0062  0.2930 -0.2992 -0.0017  0.0194  0.0439  0.3122  0.6263
 SCF Error: norm([F,P])=      0.000886644102, max([F,P])=      0.000232293264
 orbitals (Q,E):
 ---------------
 A :5...15           ( 2.00    -6.7088)  ( 2.00    -6.7088)  ( 2.00    -0.8513)  ( 2.00    -0.4550)
                     ( 2.00    -0.2522)  ( 2.00    -0.1290)  ( 2.00    -0.1290)  ( 2.00    -0.0408)
                     ( 2.00    -0.0256)  ( 2.00    -0.0256)  ( 0.00     0.1936)

 CYCLE   10
  SDIIS (wt  1.000):  0.0012  0.0282 -0.0296 -0.0002  0.0005  0.0033  0.0323  0.0788  0.8853
  DIIS coefficients:  0.0012  0.0282 -0.0296 -0.0002  0.0005  0.0033  0.0323  0.0788  0.8853
 SCF Error: norm([F,P])=      0.000075568565, max([F,P])=      0.000026054576
 orbitals (Q,E):
 ---------------
 A :5...15           ( 2.00    -6.7089)  ( 2.00    -6.7089)  ( 2.00    -0.8513)  ( 2.00    -0.4550)
                     ( 2.00    -0.2522)  ( 2.00    -0.1290)  ( 2.00    -0.1290)  ( 2.00    -0.0408)
                     ( 2.00    -0.0256)  ( 2.00    -0.0256)  ( 0.00     0.1936)

 CYCLE   11
  SDIIS (wt  1.000): -0.0002 -0.0084  0.0086  0.0000 -0.0001  0.0002  0.0026  0.0098  0.0988  0.8887
  DIIS coefficients: -0.0002 -0.0084  0.0086  0.0000 -0.0001  0.0002  0.0026  0.0098  0.0988  0.8887
 SCF Error: norm([F,P])=      0.000016363603, max([F,P])=      0.000006000818
 orbitals (Q,E):
 ---------------
 A :5...15           ( 2.00    -6.7089)  ( 2.00    -6.7089)  ( 2.00    -0.8513)  ( 2.00    -0.4550)
                     ( 2.00    -0.2522)  ( 2.00    -0.1290)  ( 2.00    -0.1290)  ( 2.00    -0.0408)
                     ( 2.00    -0.0256)  ( 2.00    -0.0256)  ( 0.00     0.1936)

 CYCLE   12
  SDIIS (wt  1.000): -0.0010  0.0010 -0.0000 -0.0000 -0.0000  0.0001  0.0006  0.0137  0.1454  0.8403
  DIIS coefficients: -0.0010  0.0010 -0.0000 -0.0000 -0.0000  0.0001  0.0006  0.0137  0.1454  0.8403
 SCF Error: norm([F,P])=      0.000001046514, max([F,P])=      0.000000357692
 orbitals (Q,E):
 ---------------
 A :5...15           ( 2.00    -6.7089)  ( 2.00    -6.7089)  ( 2.00    -0.8513)  ( 2.00    -0.4550)
                     ( 2.00    -0.2522)  ( 2.00    -0.1290)  ( 2.00    -0.1290)  ( 2.00    -0.0408)
                     ( 2.00    -0.0256)  ( 2.00    -0.0256)  ( 0.00     0.1936)

 SCF CONVERGED

 CYCLE   13
1
 ***************************************************************************************************



                                                *******************
                                                *  R E S U L T S  *
                                                *******************
  
 *** Setting up for NEW gradients in Focky
 *** Using FIT density in Focky

 Orbital Energies, per Irrep and Spin:
 ======================================
                        Occup              E (au)              E (eV)       Diff (eV) with prev. cycle
                        -----      --------------------        ------       --------------------------
 A
               5        2.000     -0.67088538973859E+01      -182.557               4.41E-07
               6        2.000     -0.67088526597703E+01      -182.557               4.41E-07
               7        2.000     -0.85129456640591E+00       -23.165              -5.59E-08
               8        2.000     -0.45501695090484E+00       -12.382               3.30E-07
               9        2.000     -0.25224312559301E+00        -6.864               1.26E-07
              10        2.000     -0.12901337721291E+00        -3.511              -4.65E-08
              11        2.000     -0.12900797104253E+00        -3.510              -4.60E-08
              12        2.000     -0.40811495769259E-01        -1.111               3.07E-07
              13        2.000     -0.25610357163965E-01        -0.697               2.57E-07
              14        2.000     -0.25606892549990E-01        -0.697               2.56E-07
              15        0.000      0.19364019557546E+00         5.269
              16        0.000      0.26078570020779E+00         7.096
              17        0.000      0.37675936087705E+00        10.252
              18        0.000      0.44606573231378E+00        12.138
              19        0.000      0.44607438954379E+00        12.138
              20        0.000      0.45873927988794E+00        12.483
              21        0.000      0.58475732155915E+00        15.912
              22        0.000      0.58476174853818E+00        15.912
              23        0.000      0.62228129983723E+00        16.933
              24        0.000      0.68026145085435E+00        18.511
  
 HOMO :       14 A                -0.25606892549990E-01
 LUMO :       15 A                 0.19364019557546E+00
  


 All Electron Calculation, thus no Orbital Energies of the Core Orbitals are calculated


 Fit test: (difference of exact and fit density, squared integrated, result summed over spins)
         Sum-of-Fragments:                             0.00008779943435
         Orthogonalized Fragments:                     0.00009519463470
         SCF:                                          0.00010091979584



 ==========================
 Electron Density at Nuclei
 ==========================
  
 The electron density is calculated at points on a small sphere around the center of a nucleus.
 The printed electron density is the average electron density on these points.
 The radius of the sphere is the printed approximate finite nuclear radius.

         Atom        Nuclear Radius (Angstrom)             Electron Density (a.u.)
         ----        -------------------------             -----------------------
     1)   Cl                0.0000426624                             3210.16111
     2)   H                 0.0000181514                                0.37094
     3)   F                 0.0000361580                              447.12101



 =======================================
 M U L L I K E N   P O P U L A T I O N S
 =======================================
  
 The survey below gives for each atom:
 a) the total charge (Z minus electrons)
 b) the net spin polarization (nr of electrons spin-A minus spin-B)
 c) for each spin the atomic electron valence density (integrated) per L-value.

 Atom              Charge    Spin density          S         P         D         F
 ----              ------    ------------       ------    ------    ------    ------
 1 Cl             -0.8199                       5.9797   11.8326    0.0061    0.0014
 2 H               0.4101                       0.4125    0.1682    0.0093    0.0000
 3 F              -0.5903                       3.9612    5.6102    0.0168    0.0021

 Populations of individual BAS functions
 ----------------------------------------
 1 Cl           0.5055  1.4530  1.7102  0.2583  0.7259  0.7267  0.7265  1.2720  1.2704  1.2709
                0.6029  0.9852  0.4645  0.2892  0.3072  0.3015  0.9760  0.9799  0.9787  0.6354
                0.6959  0.6766  0.0048  0.0011  0.0029 -0.0024  0.0004 -0.0007  0.0037  0.0029
                0.0034 -0.0027  0.0003 -0.0008 -0.0029 -0.0015  0.0002 -0.0013
 2 H           -0.1905  0.2428  0.3602  0.0744  0.0416  0.0521  0.0063  0.0020  0.0027 -0.0027
                0.0009  0.0001
 3 F            0.5761  1.4005  1.0765  0.8664  0.0418  0.3597  0.3985  0.3861  0.9272  0.9833
                0.9654  0.4905  0.5610  0.5385  0.0113  0.0030  0.0077 -0.0052  0.0013 -0.0013
                0.0057  0.0046  0.0061 -0.0046  0.0004 -0.0008 -0.0046 -0.0025  0.0004 -0.0027

 Gross Charges per Atom (Z minus electrons)
 ==========================================
            -0.8199    0.4101   -0.5903
 Net Total: -1.00000000


 Atom-Atom Population Matrix (off-diagonal elements not doubled)
 ===============================================================

     1 :    17.7288
     2 :     0.1024    0.2002
     3 :    -0.0113    0.2873    9.3143


 Frag-Frag Population Matrix (off-diagonal elements not doubled)
 ===============================================================

     1 :    18.1337
     2 :     0.2760    9.3143



 =================================================
 H I R S H F E L D   C H A R G E   A N A L Y S I S
 =================================================
  
 For each fragment: the (numerical) integral of rho(scf) * rho(fragment)/rho(sum-of-fragments)
 (nuclear charges are included, electrons are counted negative)

 The fragments and their ordering are defined in the early G E O M E T R Y output section.
 If you use single-atom fragments, this usually implies that all atoms of the same
 chemical type are grouped together. This may not be the order in which you listed them
 in the input file!

    1  ClH                      -0.3976
    2  F                        -0.6024

 Sum of these charges (accuracy NumInt/Tails) =          -1.00000195



 =============================
 V O R O N O I   C H A R G E S
 =============================
  
 For each atom: the (numerical) integral of the total electronic charge density in its Voronoi cell,
 i.e. the region of space that is closer to that atom than to any other atom.
 (cf. Wigner-Seitz cells in crystals)

 Within the Voronoi cell the subintegrals over the atomic sphere and the remaining part are evaluated
 separately to give the numbers of electrons (negative charge) in these regions.
 The net total charge in the cell (including the nuclear charge) is also given.

 Values are provided for
    a) the Initial (sum-of-fragments) density
    b) the Orthogonalized-Fragments density
    c) the SCF density
    d) the Voronoi Deformation Density (VDD): the difference SCF-Initial for the complete atomic cell
 ---------------------------------------------------------------------------------------------------
 Total NetCharge:              -1.000                     -1.000                     -1.000   -0.000
 (accuracy NumInt/Tails)

 Remark: the 'NetTotal' Voronoi charges often do not match the Mulliken and/or Hirshfeld charges very
 well. This is caused by the fact that chemically different atoms are not treated in accordance with
 their relative sizes. (Voronoi cells are defined by boundary planes halfway between the atoms.)
 However, the CHANGES in charge, comparing 'Initial' to 'SCF' for instance, do give a fair indication
 of the flow of charge caused by the relaxation from sum-of-fragments to self-consistency.

 Warning: the absolute accuracy of the VDD charges obtained using the Fuzzy Cells (Becke) integration
 scheme is much poorer than the one obtained with an 'equivalent' Voronoi integration grid. 



 =================================================================
 M U L T I P O L E   D E R I V E D   C H A R G E   A N A L Y S I S
 =================================================================

 This charge analysis uses the atomic multipoles (obtained from the fitted density) up to some level X,
 and reconstructs these multipoles exactly (up to level X) by distributing charges over all atoms.
 This is achieved by using Lagrange multipliers and a weight function to keep the multipoles local.

 Dummy atoms can be included (by setting INCDUM in MDC-block to 1) to obtain a fractional charge.
 This is generally useful and necessary only for small symmetrical molecules, when there are not
 enough degrees of freedom to reconstruct the multipoles.

 Since the atomic multipoles are reconstructed up to level X,
 the molecular multipoles are represented also up to level X.
 The recommended level is to reconstruct up to quadrupole : -> MDC-q charges.

 See: M. Swart, P.Th. van Duijnen, J.G. Snijders, J.Comput.Chem., (2001), p. 79-88.

 ------------------------------------------------------------- 
 Atomic electronic multipole moments from SCF equations (a.u.)
 ------------------------------------------------------------- 

   atom        charge        dip-x     dip-y     dip-z      quad-xx   quad-xy   quad-xz   quad-yy   quad-yz   quad-zz
 --------------------------------------------------------------------------------------------------------------------
    1 Cl    -0.565261     0.507401  0.180551  0.322982     0.762753  0.369674  0.661297 -0.598409  0.235347 -0.164344
    2 H     -0.032380     0.164558  0.058553  0.104722     0.028116  0.013533  0.024352 -0.022172  0.008734 -0.005944
    3 F     -0.402359    -0.151419 -0.053880 -0.096389     0.247369  0.119932  0.214489 -0.194096  0.076308 -0.053273

 --------------------------------------- 
 Multipole derived atomic charges (a.u.)
 --------------------------------------- 

 The MDC-m charges are just the Monopole terms in the multipole expansion, while for the MDC-d charges
 also the Dipoles are reconstructed. The usually preferred charges are the MDC-q charges.
 These reconstruct the Monopoles, Dipoles and Quadrupoles (both atomic AND molecular).

        Atom    Level:     MDC-m        MDC-d        MDC-q
 ---------------------------------------------------------
     1     Cl          -0.565261    -0.733048    -0.848233
     2     H           -0.032380     0.109076     0.438127
     3     F           -0.402359    -0.376028    -0.589895

 ------------------------------------------------ 
 Average absolute deviations in atomic multipoles
 ------------------------------------------------ 

 Stated here are the average differences between the atomic multipoles
 and the reconstructed atomic multipoles (from the distributed charges).
 If these values are not zero, this means there are not enough degrees of freedom,
 to be able to reconstruct the atomic multipoles. (This usually happens only
 for small and/or highly symmetric molecules). If this is the case, one could add
 dummy atoms as extra point charges (and setting INCDUM in MDC-block to 1).

 Level:                                 MDC-d        MDC-q
 ---------------------------------------------------------
 Charge   (a.u.)                       0.0000       0.0000
 Dipole   (Debye)                      0.0000       0.0000
 Quad.    (a.u.)                       0.2283       0.0797

 --------------------------------------- 
 Represented molecular multipole moments
 --------------------------------------- 

 Given here are the Molecular multipole moments from the atomic charges, and from the Fit Density.
 Note that the atomic charges represent the latter, NOT the ones from the Exact density.

            Q (a.u.)             Dipole moment (Debye)                                          Quadrupole moment (a.u.)
                                 x         y         z              xx        xy        xz        yy        yz        zz
------------------------------------------------------------------------------------------------------------------------
MDC-m        -1.0000       14.0332   -1.3179   -2.6055        -33.1898    1.8459    4.1105   18.1392   -2.3554   15.0506
MDC-d        -1.0000       15.3563   -0.8471   -1.7633        -39.5734    0.5713    1.9070   21.0226   -1.9055   18.5509
MDC-q        -1.0000       15.3563   -0.8471   -1.7633        -40.6381   -0.2028    0.5225   21.8578   -2.3982   18.7803
 
Fit.Dens.    -1.0000       15.3563   -0.8471   -1.7633        -40.0467   -0.0245    0.8411   21.3938   -2.2847   18.6530



 =============
 Dipole Moment  ***  (Debye)  ***
 =============
  
 Vector   :        15.36234899     -0.84492437     -1.75940296
 Magnitude:        15.48583748

 This molecular dipole moment is calculated with analytic integration
 ************************************************************************************
 Since the molecule is NOT NEUTRAL, the dipole moment depends on the choice of origin
 ************************************************************************************



 =========================================
 Quadrupole Moment (Buckingham convention)  ***  (a.u.)  ***
 =========================================
  
      quad-xx        quad-xy        quad-xz        quad-yy        quad-yz        quad-zz
    -40.07852291     0.21939360     1.27753070    21.40909362    -2.12361893    18.66942929

 This molecular quadrupole moment is calculated with analytic integration
1



                                             *************************
                                             *  SFO MO coefficients  *
                                             *************************
  


                                       === A ===
 MOs expanded in CFs+SFOs
 ========================

 The SFOs have been characterized in an earlier part of output.
 To deduce the bonding / antibonding nature of SFO combinations in an MO, consider the products
 of the coefficients AND THE OVERLAP between the SFOs (may be NEGATIVE). The SFO overlap matrix
 is printed later, in the SFO Populations section.

 (The CF coefficients are not printed)

 MOs :      1        2        3        4        5        6        7        8        9       10
 occup:   2.00     2.00     2.00     2.00     2.00     2.00     2.00     2.00     2.00     2.00
 CF+SFO
     1   1.0000   0.0000  -0.0001  -0.0000  -0.0000   0.0000  -0.0001   0.0000  -0.0003   0.0000
     2  -0.0001   0.0000  -1.0001  -0.0031  -0.0000   0.0000  -0.0006  -0.0002  -0.0030   0.0000
     3  -0.0000   0.0000   0.0031  -1.0000  -0.0001   0.0000  -0.0003   0.0002  -0.0013   0.0000
     4   0.0000  -0.0000  -0.0000  -0.0001   0.9998   0.0196   0.0000  -0.0000   0.0000   0.0003
     5   0.0000   0.0000  -0.0000  -0.0000   0.0196  -0.9998  -0.0000  -0.0000  -0.0000  -0.0002
     6   0.0000  -0.0003   0.0005   0.0001   0.0000   0.0000  -0.0276   0.9936   0.1012  -0.0000
     7  -0.0001   0.0011  -0.0019   0.0001  -0.0000  -0.0000   0.0690   0.0129   0.3149   0.0000
     8  -0.0000   0.0000  -0.0000   0.0000  -0.0000   0.0000   0.0000   0.0000   0.0000   0.0274
     9  -0.0000   0.0000  -0.0000  -0.0000   0.0000   0.0000   0.0000   0.0000   0.0000  -0.0466
    10  -0.0001   0.0014  -0.0023  -0.0003  -0.0000  -0.0000   0.0700   0.0032   0.1209   0.0000
    11   0.0001  -0.0001   0.0028   0.0000   0.0000   0.0000   0.0265   0.0077   0.0728  -0.0000
    12   0.0000  -0.0003   0.0004   0.0001   0.0000   0.0000  -0.0039  -0.0136   0.0010  -0.0000
    13   0.0000  -0.0000   0.0000  -0.0000   0.0001  -0.0001   0.0000   0.0000   0.0000   0.0060
    14   0.0000  -0.0000   0.0000   0.0000  -0.0001  -0.0001  -0.0000  -0.0000  -0.0000  -0.0186
    15  -0.0000   0.0001  -0.0001   0.0000  -0.0000  -0.0000  -0.0011   0.0188  -0.0054  -0.0000
    16   0.0000  -0.0000   0.0000  -0.0000   0.0001  -0.0001   0.0000  -0.0000   0.0000   0.0085
    17   0.0000  -0.0000   0.0000   0.0000  -0.0001  -0.0001   0.0000  -0.0000   0.0000  -0.0197
    18   0.0000   0.0000  -0.0000  -0.0000  -0.0000  -0.0000   0.0000  -0.0000   0.0000  -0.0000
    19  -0.0000  -0.0000  -0.0000   0.0000   0.0000   0.0000  -0.0000   0.0000  -0.0000   0.0000
    20   0.0000   0.0006  -0.0001  -0.0002  -0.0000   0.0000   0.0217  -0.0018   0.0112   0.0000
    21   0.0000  -0.0000   0.0000  -0.0000   0.0001   0.0000  -0.0000   0.0000  -0.0000  -0.0177
    22   0.0000  -0.0000   0.0000  -0.0000  -0.0000   0.0001  -0.0000   0.0000  -0.0000  -0.0043
    23   0.0000  -0.0006  -0.0001   0.0000  -0.0000  -0.0000   0.0009  -0.0017   0.0207  -0.0000
    24  -0.0000  -0.0000  -0.0000   0.0000   0.0000  -0.0000   0.0000  -0.0000   0.0000   0.0000
    25   0.0000   0.0000   0.0000   0.0000   0.0000  -0.0000   0.0000  -0.0000   0.0000  -0.0000
    26   0.0000   0.0000   0.0000   0.0000  -0.0000  -0.0000   0.0000  -0.0000   0.0000   0.0000
    27   0.0000  -0.0000   0.0000  -0.0000  -0.0000   0.0000   0.0000  -0.0000   0.0000  -0.0000
    28   0.0000   0.0000   0.0000   0.0000  -0.0001   0.0001  -0.0000   0.0000  -0.0000   0.0007
    29   0.0000  -0.0000   0.0000  -0.0000   0.0001   0.0001  -0.0000   0.0000  -0.0000  -0.0030
    30   0.0000  -0.0001  -0.0000  -0.0002  -0.0000  -0.0000  -0.0021  -0.0001   0.0002  -0.0000
    31   0.0000  -0.0001   0.0005   0.0001   0.0000   0.0000   0.0332  -0.0007   0.0518  -0.0000
    32   0.0000  -0.0000   0.0000   0.0000  -0.0002   0.0001  -0.0000   0.0000  -0.0000   0.0000
    33  -0.0000   0.0000  -0.0000  -0.0000   0.0001   0.0002   0.0000  -0.0000   0.0000  -0.0000
    34   0.0000   0.0000   0.0008  -0.0001   0.0000   0.0000  -0.0007   0.0042  -0.0006   0.0000
    35  -0.0000   0.0001  -0.0001  -0.0005  -0.0000  -0.0000   0.0037  -0.0012   0.0038   0.0000
    36   0.0000   0.0000   0.0000  -0.0000   0.0000   0.0000   0.0000  -0.0000   0.0000  -0.0000
    37   0.0000   0.0000   0.0000   0.0000  -0.0000  -0.0000  -0.0000  -0.0000  -0.0000  -0.0000
    38  -0.0000  -0.0000  -0.0000  -0.0000   0.0000   0.0000   0.0000   0.0000   0.0000   0.0022
    39   0.0000  -0.0000   0.0000   0.0000  -0.0000   0.0000   0.0000  -0.0000  -0.0000   0.0000
    40  -0.0000  -0.0001  -0.0002  -0.0001  -0.0000  -0.0000   0.0008  -0.0006   0.0018  -0.0000
    41  -0.0001   0.0000  -0.0002  -0.0000  -0.0000  -0.0000   0.0000  -0.0002  -0.0000   0.0000
    42  -0.0000  -0.0000  -0.0000   0.0000  -0.0004  -0.0004   0.0000   0.0000   0.0000   0.0000
    43   0.0000   0.0000   0.0000   0.0000  -0.0004   0.0004  -0.0000  -0.0000  -0.0000   0.0000
    44   0.0000   0.0000   0.0001  -0.0004  -0.0000   0.0000   0.0000   0.0000   0.0000  -0.0000
    45  -0.0001  -0.0000   0.0000  -0.0000   0.0000   0.0000  -0.0000  -0.0000  -0.0000  -0.0000
    46   0.0000   0.9998   0.0002   0.0000   0.0000   0.0000  -0.0066   0.0013  -0.0122  -0.0000
    47   0.0001  -0.0016   0.0019   0.0003   0.0000   0.0000   0.9319   0.0656  -0.2715  -0.0000
    48  -0.0000   0.0002  -0.0001  -0.0000   0.0000   0.0000  -0.0305   0.0167  -0.2540  -0.8276
    49   0.0000  -0.0004   0.0002   0.0000   0.0000   0.0000   0.0786  -0.0430   0.6536  -0.4654
    50  -0.0000   0.0002  -0.0001  -0.0000  -0.0000   0.0000  -0.0473   0.0259  -0.3934  -0.2391
    51  -0.0001   0.0006  -0.0037  -0.0000  -0.0000  -0.0000   0.0267   0.0044   0.0031   0.0000
    52  -0.0000   0.0001  -0.0001   0.0000   0.0001   0.0000   0.0019  -0.0005   0.0071   0.0566
    53  -0.0000   0.0005  -0.0005   0.0001  -0.0000  -0.0000   0.0146  -0.0039   0.0535  -0.0212
    54  -0.0000   0.0004  -0.0004   0.0000  -0.0000   0.0001   0.0104  -0.0028   0.0382   0.0191
    55   0.0000   0.0001   0.0000  -0.0000   0.0000   0.0000  -0.0050   0.0011  -0.0103  -0.0129
    56  -0.0000  -0.0001  -0.0001   0.0000   0.0000   0.0000   0.0108  -0.0023   0.0224  -0.0063
    57   0.0000   0.0001   0.0001  -0.0000  -0.0000   0.0000  -0.0101   0.0022  -0.0210  -0.0028
    58   0.0000   0.0001   0.0000  -0.0000  -0.0000  -0.0000  -0.0058   0.0012  -0.0121   0.0067
    59  -0.0000  -0.0001  -0.0001   0.0000   0.0000  -0.0000   0.0074  -0.0016   0.0153   0.0020
    60  -0.0000   0.0005  -0.0005  -0.0001  -0.0000  -0.0000   0.0122   0.0006   0.0087   0.0000
    61  -0.0000  -0.0000  -0.0000   0.0000  -0.0000   0.0000   0.0012  -0.0002   0.0023  -0.0023
    62   0.0000   0.0000   0.0000  -0.0000   0.0000   0.0000  -0.0011   0.0002  -0.0020   0.0043
    63   0.0000   0.0000   0.0000  -0.0000  -0.0000   0.0000  -0.0022   0.0003  -0.0043  -0.0011
    64  -0.0000  -0.0001  -0.0000   0.0000   0.0000   0.0000   0.0040  -0.0006   0.0077   0.0015
    65  -0.0000  -0.0000  -0.0000   0.0000  -0.0000   0.0000   0.0017  -0.0003   0.0033  -0.0001
    66  -0.0000  -0.0000  -0.0000   0.0000   0.0000  -0.0000   0.0011  -0.0002   0.0020  -0.0009
    67   0.0000   0.0000   0.0000  -0.0000   0.0000   0.0000  -0.0005   0.0001  -0.0010   0.0001
    68  -0.0000  -0.0005  -0.0001   0.0000  -0.0000  -0.0000   0.0001   0.0000   0.0007  -0.0018
    69   0.0000   0.0003   0.0001  -0.0000  -0.0000   0.0000  -0.0001  -0.0000  -0.0005  -0.0016
    70   0.0000   0.0003   0.0001  -0.0000   0.0000  -0.0000  -0.0001  -0.0000  -0.0005  -0.0009
    71   0.0000  -0.0003   0.0000   0.0000   0.0000   0.0000  -0.0006   0.0000  -0.0006  -0.0000

 MOs :     11       12       13       14       15       16       17       18       19       20
 occup:   2.00     2.00     2.00     2.00     0.00     0.00     0.00     0.00     0.00     0.00
 CF+SFO
     1   0.0000   0.0002  -0.0000   0.0000   0.0064   0.0121  -0.0005  -0.0000   0.0000   0.0031
     2   0.0000   0.0012  -0.0000   0.0000   0.0541   0.1009  -0.0033  -0.0000   0.0000   0.0260
     3   0.0000  -0.0002  -0.0000  -0.0000   0.0140   0.0249   0.0008  -0.0000   0.0000   0.0063
     4   0.0002  -0.0000  -0.0000   0.0000  -0.0000  -0.0000  -0.0000  -0.0001  -0.0000  -0.0000
     5   0.0003  -0.0000  -0.0000  -0.0000   0.0000   0.0000   0.0000  -0.0000   0.0001   0.0000
     6  -0.0000   0.0254   0.0000   0.0000  -0.4338  -0.7869  -0.0533   0.0000  -0.0000  -0.2234
     7  -0.0000  -0.8613  -0.0001  -0.0001   0.7960   1.7631   0.4414  -0.0000   0.0000   0.5136
     8   0.0466   0.0001  -0.9865  -0.1475   0.0000   0.0000   0.0000   0.0624  -0.0087   0.0000
     9   0.0274   0.0001   0.1475  -0.9865   0.0000   0.0001   0.0000  -0.0087  -0.0624   0.0000
    10   0.0000   0.4259   0.0000   0.0001   0.5678   2.2575   0.7672  -0.0001   0.0000   0.8046
    11  -0.0000   0.0333   0.0000   0.0000  -0.2363  -2.2837   0.9200   0.0001   0.0000  -0.4673
    12  -0.0000   0.0357   0.0000   0.0000  -0.2023  -0.0176   0.1692   0.0001  -0.0001  -0.9770
    13   0.0186   0.0000  -0.0464  -0.0179  -0.0000  -0.0000   0.0000  -0.8782   0.3295  -0.0001
    14   0.0060   0.0000   0.0179  -0.0464  -0.0000   0.0000  -0.0001   0.3295   0.8782  -0.0000
    15   0.0000   0.0147   0.0000   0.0000   0.0038   0.0493   0.0979   0.0001  -0.0002  -0.2035
    16   0.0197  -0.0000   0.0231   0.0065  -0.0000  -0.0000  -0.0001   0.1950  -0.0526   0.0001
    17   0.0085  -0.0000  -0.0065   0.0231   0.0000  -0.0001  -0.0001  -0.0526  -0.1950   0.0002
    18  -0.0000   0.0000  -0.0000   0.0000   0.0001  -0.0000  -0.0000  -0.0000   0.0000  -0.0001
    19  -0.0000  -0.0000   0.0000   0.0000  -0.0000   0.0000   0.0000  -0.0000  -0.0000   0.0000
    20  -0.0000   0.0417   0.0000   0.0000   0.1689  -0.0651  -0.0541   0.0000  -0.0000  -0.1963
    21  -0.0043   0.0000  -0.0081   0.0062   0.0000  -0.0000   0.0000  -0.0640  -0.0500  -0.0000
    22   0.0177  -0.0000   0.0062   0.0081  -0.0000  -0.0000  -0.0000   0.0500  -0.0641   0.0000
    23  -0.0000   0.0040   0.0000  -0.0000  -0.2285  -0.2244  -0.0791   0.0000   0.0000  -0.0819
    24   0.0000  -0.0000  -0.0000   0.0000   0.0000   0.0000   0.0000  -0.0000  -0.0000   0.0000
    25   0.0000  -0.0000  -0.0000  -0.0000   0.0000   0.0000   0.0000   0.0000   0.0000   0.0000
    26  -0.0000  -0.0000  -0.0000   0.0000   0.0000   0.0000   0.0000  -0.0000  -0.0000   0.0000
    27   0.0000  -0.0000  -0.0000  -0.0000  -0.0000  -0.0000   0.0000   0.0000  -0.0000   0.0000
    28   0.0030   0.0000  -0.0028  -0.0013  -0.0000  -0.0000   0.0000   0.0123  -0.0056   0.0000
    29   0.0007  -0.0000   0.0013  -0.0028  -0.0000  -0.0000   0.0000  -0.0056  -0.0123  -0.0000
    30  -0.0000  -0.0057  -0.0000  -0.0000  -0.0256  -0.0151  -0.0108   0.0000   0.0000  -0.0143
    31  -0.0000   0.0239   0.0000   0.0000  -0.1518  -0.3104  -0.0870   0.0000  -0.0000  -0.0978
    32   0.0000   0.0000  -0.0058  -0.0003  -0.0000   0.0000  -0.0000   0.0125  -0.0004   0.0000
    33   0.0000   0.0000   0.0003  -0.0058   0.0000   0.0000   0.0000  -0.0004  -0.0125   0.0000
    34   0.0000  -0.0007  -0.0000  -0.0000  -0.0002   0.0039   0.0000  -0.0000  -0.0000  -0.0027
    35  -0.0000  -0.0032  -0.0000  -0.0000   0.0208   0.0097   0.0104   0.0000   0.0000  -0.0046
    36   0.0000  -0.0000  -0.0000   0.0000   0.0000  -0.0000   0.0000  -0.0000  -0.0000  -0.0000
    37   0.0000  -0.0000   0.0000   0.0000  -0.0000  -0.0000   0.0000  -0.0000  -0.0000  -0.0000
    38   0.0000   0.0000  -0.0002   0.0003   0.0000   0.0000  -0.0000   0.0050   0.0063   0.0000
    39  -0.0022  -0.0000   0.0003   0.0002   0.0000  -0.0000  -0.0000  -0.0063   0.0050  -0.0000
    40  -0.0000  -0.0001   0.0000  -0.0000  -0.0282  -0.0233  -0.0217   0.0000   0.0000  -0.0183
    41   0.0000  -0.0000  -0.0000   0.0000   0.0002  -0.0009   0.0004  -0.0000  -0.0000   0.0002
    42  -0.0000   0.0000   0.0001  -0.0002  -0.0000   0.0000  -0.0000   0.0001   0.0002   0.0000
    43   0.0000  -0.0000   0.0002   0.0001   0.0000   0.0000  -0.0000   0.0002  -0.0001   0.0000
    44  -0.0000   0.0002   0.0000  -0.0000  -0.0004   0.0000  -0.0001   0.0000   0.0000  -0.0004
    45   0.0000   0.0000   0.0000   0.0000   0.0003   0.0006  -0.0000  -0.0000   0.0000   0.0002
    46  -0.0000  -0.0014   0.0000  -0.0000  -0.0920  -0.1990  -0.0482   0.0000  -0.0000  -0.0698
    47  -0.0000   0.0161   0.0000   0.0000  -0.7111  -1.8552  -0.3801   0.0001  -0.0000  -0.6265
    48  -0.4221  -0.0984  -0.0735   0.0328   0.1141   0.1944   0.2294  -0.0748  -0.0342   0.0951
    49   0.3294   0.2534  -0.0031   0.0493  -0.2936  -0.5004  -0.5903  -0.0027  -0.0504  -0.2449
    50   0.8198  -0.1525   0.0422   0.0608   0.1767   0.3012   0.3553   0.0437  -0.0616   0.1474
    51   0.0000   0.0756   0.0000   0.0000   1.5167   2.9751  -0.2930  -0.0001   0.0000   0.7786
    52   0.0277   0.0032   0.0038  -0.0018   0.0336   0.0331   0.0186   0.1337   0.0637   0.0021
    53   0.0307   0.0238   0.0007   0.0024   0.2534   0.2494   0.1402   0.0255  -0.0837   0.0161
    54  -0.0481   0.0170  -0.0017  -0.0030   0.1810   0.1782   0.1002  -0.0605   0.1054   0.0115
    55  -0.0086  -0.0002   0.0005  -0.0002   0.0309   0.0110   0.0066   0.0164   0.0053   0.0090
    56   0.0026   0.0005   0.0001  -0.0002  -0.0672  -0.0240  -0.0143   0.0021   0.0073  -0.0195
    57   0.0073  -0.0004  -0.0001  -0.0002   0.0631   0.0226   0.0135  -0.0044   0.0075   0.0183
    58  -0.0091  -0.0003   0.0001   0.0004   0.0363   0.0130   0.0077   0.0033  -0.0122   0.0105
    59  -0.0068   0.0003   0.0001   0.0002  -0.0459  -0.0164  -0.0098   0.0046  -0.0064  -0.0133
    60   0.0000   0.0100  -0.0000   0.0000   0.2372   0.4223   0.0568  -0.0000   0.0000   0.1244
    61  -0.0017   0.0004  -0.0001   0.0000  -0.0058  -0.0014  -0.0040  -0.0007  -0.0002  -0.0021
    62  -0.0001  -0.0004   0.0001  -0.0001   0.0051   0.0012   0.0035   0.0007   0.0009   0.0019
    63  -0.0023  -0.0008  -0.0001  -0.0000   0.0109   0.0026   0.0074  -0.0007   0.0001   0.0039
    64  -0.0017   0.0015  -0.0000  -0.0001  -0.0192  -0.0045  -0.0132  -0.0001   0.0006  -0.0070
    65  -0.0005   0.0006  -0.0000  -0.0000  -0.0083  -0.0019  -0.0057  -0.0001   0.0001  -0.0030
    66   0.0040   0.0004   0.0001   0.0001  -0.0051  -0.0012  -0.0035   0.0007  -0.0008  -0.0019
    67  -0.0001  -0.0002   0.0000  -0.0000   0.0026   0.0006   0.0018   0.0000   0.0000   0.0010
    68   0.0004   0.0004  -0.0002   0.0004  -0.0362  -0.0220  -0.0308  -0.0010  -0.0020  -0.0140
    69  -0.0016  -0.0003  -0.0005   0.0001   0.0259   0.0157   0.0220  -0.0027  -0.0004   0.0100
    70   0.0021  -0.0003   0.0002   0.0005   0.0256   0.0156   0.0218   0.0012  -0.0024   0.0099
    71  -0.0000  -0.0001   0.0000  -0.0000  -0.0058  -0.0127  -0.0023   0.0000  -0.0000  -0.0041

 MOs :     21       22       23       24       25       26       27       28       29       30
 occup:   0.00     0.00     0.00     0.00     0.00     0.00     0.00     0.00     0.00     0.00
 CF+SFO
     1   0.0000   0.0000  -0.0034   0.0000   0.0000  -0.0000  -0.0000   0.0164   0.0067   0.0000
     2   0.0000   0.0000  -0.0282   0.0000   0.0000  -0.0000  -0.0000   0.1391   0.0574   0.0000
     3   0.0000   0.0000  -0.0054   0.0000   0.0000  -0.0000  -0.0000   0.0406   0.0181   0.0000
     4   0.0003  -0.0001   0.0000  -0.0000  -0.0000  -0.0008  -0.0012  -0.0000  -0.0000   0.0006
     5   0.0001   0.0003  -0.0000  -0.0000   0.0000   0.0012  -0.0008   0.0000   0.0000  -0.0005
     6  -0.0000  -0.0000   0.1999  -0.0000  -0.0000  -0.0000   0.0000  -1.2699  -0.5184  -0.0000
     7   0.0000   0.0001  -0.2860   0.0000   0.0000   0.0000  -0.0000   3.1474   1.1665   0.0000
     8  -0.0040  -0.0009  -0.0000   0.0000   0.0000   0.0097   0.0682   0.0001   0.0000  -0.0184
     9   0.0009  -0.0040  -0.0000   0.0000  -0.0000  -0.0682   0.0097   0.0001   0.0000   0.0434
    10   0.0000   0.0001  -0.3822   0.0000   0.0000  -0.0000  -0.0000   3.6707   1.1921   0.0001
    11  -0.0000  -0.0001   0.8573  -0.0000   0.0000   0.0000   0.0000  -2.0144  -0.6432  -0.0000
    12   0.0000  -0.0000   0.2669  -0.0000   0.0000   0.0000  -0.0000  -0.8419  -0.1476  -0.0000
    13   0.0519   0.0244  -0.0000   0.0000   0.0000  -0.0306   0.3882  -0.0000  -0.0000  -0.0448
    14  -0.0244   0.0518   0.0000  -0.0000  -0.0000  -0.3882  -0.0306  -0.0000  -0.0000   0.2455
    15   0.0001   0.0010  -1.0386   0.0000  -0.0000  -0.0005   0.0002   0.3752  -0.0568   0.0002
    16   0.8364   0.2999   0.0005   0.0000   0.0000   0.0079   0.4775  -0.0002   0.0000  -0.0603
    17  -0.2999   0.8364   0.0010  -0.0000   0.0000  -0.4775   0.0079  -0.0003   0.0000   0.2132
    18   0.0000  -0.0000   0.0001   0.9972   0.0728  -0.0000  -0.0001   0.0004  -0.0002   0.0000
    19  -0.0000  -0.0000  -0.0000  -0.0728   0.9972  -0.0000  -0.0000  -0.0001   0.0000   0.0000
    20   0.0000  -0.0000   0.2732  -0.0004   0.0000   0.0000   0.0000   1.0378  -0.5145  -0.0000
    21   0.0438  -0.0289  -0.0000  -0.0000  -0.0000   0.1737   0.1260  -0.0000  -0.0000   0.9110
    22  -0.0289  -0.0438  -0.0000  -0.0000   0.0000   0.1260  -0.1738   0.0000  -0.0000   0.3515
    23  -0.0000  -0.0000  -0.0317   0.0000   0.0000  -0.0000   0.0000  -0.7025  -0.7061  -0.0000
    24   0.0000  -0.0000  -0.0000  -0.0017  -0.0002  -0.0000  -0.0000   0.0000   0.0000  -0.0000
    25   0.0000   0.0000   0.0000  -0.0002   0.0017  -0.0000   0.0000   0.0000   0.0000   0.0000
    26  -0.0000   0.0000   0.0000   0.0000   0.0000   0.0000   0.0000   0.0000   0.0000   0.0000
    27  -0.0000   0.0000   0.0000  -0.0000  -0.0000  -0.0000   0.0000  -0.0000   0.0000  -0.0000
    28  -0.0135  -0.0075   0.0000   0.0000   0.0000  -0.0051   0.0348  -0.0000   0.0000   0.0065
    29   0.0075  -0.0135  -0.0000  -0.0000   0.0000  -0.0348  -0.0051  -0.0000  -0.0000  -0.0571
    30  -0.0000   0.0000  -0.0272  -0.0000  -0.0000  -0.0000   0.0000  -0.0426  -0.0582   0.0000
    31  -0.0000  -0.0000   0.0609  -0.0000  -0.0000   0.0000   0.0000  -0.6265  -0.1977  -0.0000
    32   0.0033   0.0004  -0.0000  -0.0000  -0.0000   0.0001   0.0003  -0.0000  -0.0000  -0.0054
    33  -0.0004   0.0033   0.0000   0.0000  -0.0000  -0.0003   0.0001  -0.0000   0.0000   0.0097
    34   0.0000   0.0000  -0.0051  -0.0000   0.0000   0.0000  -0.0000   0.0441   0.0132   0.0000
    35   0.0000  -0.0000   0.0080   0.0000  -0.0000   0.0000   0.0000   0.0484   0.0404  -0.0000
    36   0.0000  -0.0000   0.0000   0.0006  -0.0001  -0.0000   0.0000   0.0000  -0.0000  -0.0000
    37  -0.0000  -0.0000  -0.0000   0.0001   0.0006  -0.0000  -0.0000  -0.0000  -0.0000  -0.0000
    38  -0.0059   0.0063   0.0000   0.0000   0.0000   0.0405   0.0168   0.0000   0.0000  -0.0045
    39   0.0063   0.0059   0.0000  -0.0000   0.0000   0.0168  -0.0405  -0.0000   0.0000  -0.0006
    40  -0.0000   0.0000   0.0012  -0.0000  -0.0000  -0.0000  -0.0000  -0.1016  -0.0406   0.0000
    41   0.0000  -0.0000  -0.0009  -0.0000   0.0000   0.0000  -0.0000   0.0044   0.0008  -0.0000
    42  -0.0000   0.0001  -0.0000   0.0000   0.0000   0.0006   0.0001  -0.0000  -0.0000  -0.0005
    43  -0.0001  -0.0000  -0.0000   0.0000  -0.0000  -0.0001   0.0006   0.0000   0.0000  -0.0000
    44  -0.0000   0.0000   0.0003   0.0000  -0.0000  -0.0000   0.0000  -0.0011  -0.0001   0.0000
    45  -0.0000   0.0000  -0.0002   0.0000  -0.0000  -0.0000  -0.0000   0.0007   0.0003   0.0000
    46  -0.0000  -0.0000   0.0386  -0.0000  -0.0000  -0.0000   0.0000  -0.4520  -0.1371  -0.0000
    47  -0.0000  -0.0001   0.4225  -0.0000  -0.0000  -0.0000   0.0000  -3.5908  -1.0586  -0.0000
    48   0.1572  -0.0570   0.0691   0.0000   0.0000   0.1072   0.1250   0.5256   0.1740  -0.3604
    49   0.0138  -0.1017  -0.1778  -0.0000  -0.0000   0.0985  -0.0226  -1.3529  -0.4478  -0.2376
    50  -0.0785  -0.1322   0.1070   0.0000   0.0000   0.0945  -0.1183   0.8142   0.2695  -0.1621
    51   0.0000   0.0001  -1.0316   0.0000  -0.0000  -0.0000  -0.0000   3.3059   1.1604   0.0001
    52  -0.2960   0.1128   0.0218   0.0000   0.0000   0.6116   0.6905   0.1880   0.1200  -0.4382
    53  -0.0399  -0.1830   0.1644   0.0000  -0.0000  -0.4574   0.2969   1.4169   0.9044   0.2088
    54   0.1109   0.2352   0.1174  -0.0000   0.0000   0.5268  -0.5439   1.0120   0.6460  -0.2109
    55  -0.0163   0.0038  -0.0040  -0.0003   0.0007  -0.0073  -0.0109   0.0984   0.0433   0.1849
    56  -0.0026   0.0069   0.0086  -0.0004  -0.0052  -0.0058   0.0000  -0.2137  -0.0942   0.1044
    57   0.0037   0.0076  -0.0081   0.0045  -0.0025  -0.0046   0.0048   0.2009   0.0885   0.0594
    58  -0.0022  -0.0120  -0.0047  -0.0008  -0.0048   0.0082  -0.0050   0.1155   0.0509  -0.1242
    59  -0.0039  -0.0065   0.0059   0.0060   0.0009   0.0037  -0.0047  -0.1459  -0.0643  -0.0447
    60   0.0000   0.0000  -0.0946   0.0000   0.0000   0.0000  -0.0000   0.8014   0.3058   0.0000
    61   0.0065  -0.0012  -0.0038  -0.0001   0.0001   0.0045   0.0075  -0.0216  -0.0104  -0.0129
    62  -0.0067   0.0075   0.0033  -0.0001   0.0000  -0.0123  -0.0047   0.0190   0.0091   0.0269
    63   0.0057   0.0017   0.0071  -0.0001  -0.0001   0.0006   0.0078   0.0403   0.0194  -0.0052
    64   0.0005   0.0052  -0.0125  -0.0001  -0.0000  -0.0062   0.0031  -0.0713  -0.0342   0.0107
    65   0.0010   0.0006  -0.0054   0.0001  -0.0001  -0.0003   0.0015  -0.0306  -0.0147  -0.0002
    66  -0.0055  -0.0080  -0.0033  -0.0001  -0.0000   0.0073  -0.0105  -0.0190  -0.0091  -0.0089
    67  -0.0000   0.0004   0.0017  -0.0001  -0.0001  -0.0006   0.0002   0.0097   0.0047   0.0010
    68   0.0032  -0.0052  -0.0150  -0.0000  -0.0000   0.0136   0.0027  -0.1514  -0.0702  -0.0227
    69   0.0074  -0.0004   0.0107   0.0000   0.0000   0.0069   0.0154   0.1081   0.0501  -0.0174
    70  -0.0029  -0.0069   0.0106   0.0000   0.0000   0.0123  -0.0117   0.1069   0.0496  -0.0145
    71  -0.0000  -0.0000   0.0028  -0.0000  -0.0000   0.0000   0.0000  -0.0257  -0.0079  -0.0000

 MOs :     31       32       33       34       35       36       37       38       39       40
 occup:   0.00     0.00     0.00     0.00     0.00     0.00     0.00     0.00     0.00     0.00
 CF+SFO
     1   0.0000  -0.0028   0.0000   0.0000   0.0000   0.0000  -0.0000  -0.0000  -0.0000   0.0000
     2   0.0000  -0.0231   0.0000   0.0000   0.0000   0.0000  -0.0000  -0.0000  -0.0000   0.0000
     3   0.0000  -0.0038   0.0000   0.0000   0.0000   0.0000  -0.0000   0.0000  -0.0000   0.0000
     4   0.0005   0.0000  -0.0000  -0.0000  -0.0000   0.0000  -0.0000  -0.0000  -0.0004  -0.0002
     5   0.0006  -0.0000  -0.0000  -0.0000  -0.0000  -0.0000  -0.0000   0.0000  -0.0002   0.0004
     6  -0.0000   0.0670  -0.0000  -0.0000  -0.0000  -0.0000   0.0000   0.0000   0.0000  -0.0000
     7   0.0001   0.2576   0.0000   0.0000   0.0000   0.0000  -0.0000   0.0000  -0.0000   0.0000
     8  -0.0434   0.0000   0.0000   0.0000   0.0000  -0.0000   0.0000   0.0000   0.0297   0.0010
     9  -0.0184   0.0000  -0.0000   0.0000   0.0000   0.0000  -0.0000  -0.0000   0.0010  -0.0297
    10   0.0001   0.3860   0.0000   0.0000   0.0000   0.0000  -0.0000  -0.0000  -0.0000   0.0000
    11  -0.0001   0.7625  -0.0000  -0.0000  -0.0000  -0.0000   0.0000   0.0000   0.0000  -0.0000
    12  -0.0000   0.0273  -0.0000  -0.0000  -0.0000  -0.0000   0.0000   0.0000  -0.0000   0.0000
    13  -0.2456  -0.0000   0.0000   0.0000   0.0000  -0.0000   0.0000   0.0000   0.1103  -0.0206
    14  -0.0448   0.0000   0.0000   0.0000   0.0000   0.0000  -0.0000  -0.0000  -0.0206  -0.1103
    15  -0.0001  -0.0999   0.0000  -0.0000  -0.0000   0.0000  -0.0000  -0.0000   0.0000  -0.0001
    16  -0.2132   0.0000   0.0000   0.0000   0.0000  -0.0000   0.0000   0.0000   0.1315  -0.0118
    17  -0.0603   0.0001   0.0000   0.0000   0.0000   0.0000  -0.0000  -0.0000  -0.0118  -0.1315
    18   0.0000   0.0002  -0.0035  -0.0154   0.0000   0.0000   0.0065   0.0044  -0.0000  -0.0000
    19   0.0000  -0.0000   0.0154  -0.0035   0.0000   0.0000  -0.0044   0.0065   0.0000  -0.0000
    20   0.0000   0.5087   0.0000   0.0000  -0.0000  -0.0000   0.0000  -0.0000  -0.0000  -0.0000
    21   0.3515   0.0000  -0.0000  -0.0000  -0.0000   0.0000  -0.0000  -0.0000  -0.1358  -0.1508
    22  -0.9110  -0.0000   0.0000   0.0000   0.0000  -0.0000   0.0000  -0.0000   0.1508  -0.1359
    23  -0.0000  -0.7481  -0.0000   0.0000   0.0000   0.0000   0.0000   0.0000  -0.0000   0.0000
    24  -0.0000  -0.0000   0.0690   0.3339   0.0008   0.0007   0.7666   0.5451  -0.0001  -0.0000
    25  -0.0000   0.0000   0.3339  -0.0690  -0.0004  -0.0004   0.5452  -0.7666  -0.0001   0.0000
    26   0.0000   0.0000   0.0000  -0.0000   0.2856   0.9583  -0.0005  -0.0010   0.0000   0.0000
    27   0.0000   0.0000   0.0000   0.0000  -0.9583   0.2856   0.0003   0.0005  -0.0000   0.0000
    28   0.0571   0.0000  -0.0000   0.0000   0.0000  -0.0000  -0.0001   0.0001  -0.8391   0.2157
    29   0.0065  -0.0000  -0.0000  -0.0000   0.0000  -0.0000  -0.0000   0.0000   0.2157   0.8391
    30   0.0000  -0.0512   0.0000  -0.0000  -0.0000   0.0000  -0.0000  -0.0000  -0.0000  -0.0001
    31  -0.0000  -0.2633  -0.0000  -0.0000  -0.0000  -0.0000  -0.0000  -0.0000  -0.0000  -0.0000
    32  -0.0097  -0.0000   0.0000   0.0000  -0.0000   0.0000   0.0000  -0.0000  -0.0036  -0.0005
    33  -0.0054   0.0000   0.0000  -0.0000  -0.0000   0.0000   0.0000  -0.0000  -0.0005   0.0036
    34  -0.0000  -0.0304  -0.0000  -0.0000  -0.0000   0.0000  -0.0000  -0.0000  -0.0000   0.0000
    35   0.0000   0.0401   0.0000   0.0000   0.0000   0.0000   0.0000   0.0000   0.0000   0.0000
    36  -0.0000   0.0000   0.0356   0.0789  -0.0000  -0.0000  -0.0441  -0.0185   0.0000   0.0000
    37   0.0000   0.0000  -0.0789   0.0356  -0.0000  -0.0000   0.0185  -0.0441  -0.0000   0.0000
    38  -0.0006  -0.0000  -0.0000  -0.0000  -0.0000  -0.0000   0.0000   0.0000   0.0112   0.0206
    39   0.0045   0.0000   0.0000  -0.0000  -0.0000   0.0000  -0.0000   0.0000  -0.0206   0.0112
    40   0.0000  -0.0853   0.0000   0.0000  -0.0000  -0.0000  -0.0000  -0.0000  -0.0000  -0.0000
    41   0.0000   0.0006  -0.0000  -0.0000   0.0000   0.0000  -0.0000  -0.0000  -0.0000   0.0000
    42   0.0000  -0.0000  -0.0000  -0.0000   0.0000  -0.0000  -0.0000   0.0000   0.0001   0.0002
    43  -0.0005  -0.0000   0.0000   0.0000  -0.0000   0.0000   0.0000  -0.0000   0.0002  -0.0001
    44   0.0000  -0.0014   0.0000   0.0000  -0.0000   0.0000   0.0000  -0.0000   0.0000  -0.0000
    45   0.0000  -0.0002   0.0000   0.0000   0.0000  -0.0000   0.0000  -0.0000   0.0000   0.0000
    46  -0.0000  -0.1300  -0.0000  -0.0000  -0.0000   0.0000   0.0000  -0.0000  -0.0000   0.0000
    47  -0.0001  -0.6110  -0.0000  -0.0000  -0.0000   0.0000   0.0000   0.0000   0.0000   0.0000
    48  -0.2480   0.1311  -0.0000  -0.0000   0.0000   0.0000  -0.0000  -0.0000  -0.0179  -0.0123
    49   0.1251  -0.3373  -0.0000  -0.0000  -0.0000   0.0000  -0.0000  -0.0000   0.0016  -0.0132
    50   0.3681   0.2030   0.0000   0.0000   0.0000  -0.0000   0.0000   0.0000   0.0142  -0.0141
    51   0.0001  -0.7191   0.0000   0.0000   0.0000   0.0000  -0.0000  -0.0000  -0.0000   0.0000
    52  -0.2913  -0.0135   0.0000   0.0000   0.0000  -0.0000   0.0000   0.0000   0.0785   0.0559
    53  -0.2306  -0.1017   0.0000   0.0000   0.0000   0.0000   0.0000   0.0000   0.0258  -0.0508
    54   0.3770  -0.0727  -0.0000   0.0000   0.0000   0.0000  -0.0000   0.0000  -0.0507   0.0607
    55   0.1622   0.2215  -0.0893  -0.0035  -0.0000  -0.0000   0.0281  -0.0240   0.3739   0.1974
    56  -0.0278  -0.4812   0.5688  -0.2307   0.0001   0.0001  -0.1071   0.2296   0.0195   0.1848
    57  -0.1089   0.4524   0.4353   0.4182  -0.0001  -0.0001  -0.2491  -0.0041  -0.1384   0.1623
    58   0.1291   0.2600   0.5131  -0.2547   0.0001   0.0001  -0.0835   0.2212   0.1310  -0.2787
    59   0.1023  -0.3285   0.1122   0.7098  -0.0002  -0.0002  -0.2334  -0.1831   0.1368  -0.1346
    60   0.0000   0.1046   0.0000  -0.0000   0.0000   0.0000  -0.0000  -0.0000   0.0000   0.0000
    61  -0.0125  -0.0214   0.0045   0.0010  -0.0001   0.0007   0.0025  -0.0015  -0.0145  -0.0067
    62   0.0030   0.0189   0.0022   0.0014  -0.0004   0.0005   0.0016  -0.0003   0.0110   0.0214
    63  -0.0153   0.0400  -0.0015   0.0041  -0.0006  -0.0003   0.0010   0.0026  -0.0143   0.0005
    64  -0.0094  -0.0708  -0.0004   0.0023   0.0001  -0.0005   0.0008   0.0012  -0.0044   0.0118
    65  -0.0032  -0.0304  -0.0039  -0.0010  -0.0007   0.0009  -0.0023   0.0012  -0.0027   0.0009
[...]
   68    1.22268020090032E-15  1.27490317023034E-15 -6.73475896361894E-17  6.91477040556943E-16
   69   -1.45859751143548E-15 -1.08497297246751E-15  6.07290224171101E-16 -7.33217977164687E-16
   70   -1.58387199026850E-15 -6.01598374523789E-16  3.90031990672767E-16 -5.09714781504484E-16
   71   -2.77555756156289E-16 -2.21177243187043E-16  7.58074159001865E-16 -1.58813934225677E-15

 column          57                    58                    59                    60
 row
   57    9.99999999999995E-01
   58   -9.63007004326465E-16  9.99999999999999E-01
   59    2.33520207294433E-16  1.37425928791032E-15  9.99999999999998E-01
   60   -1.40742994515775E-17  2.38016258178458E-16 -5.46248159552509E-16  9.99999999999996E-01
   61   -1.53297293343504E-16 -6.88742077049377E-16  8.79468274024391E-16  4.94992078331783E-16
   62    1.29949084262324E-15  4.93954939427430E-16  7.02935702267399E-17 -2.50022950205788E-16
   63    1.94985205688751E-15  5.61390249913219E-16 -1.68124626261014E-15 -1.09385495995241E-15
   64   -3.81186467956237E-15 -1.31279518912576E-15  2.67679055529772E-15  2.20148436969308E-15
   65   -2.38252982711392E-15 -9.20927042781581E-16  9.27906064871365E-16  9.39960084864622E-16
   66    1.49755425074560E-17 -7.57352698689041E-16  1.61951259559012E-15  6.58977233403742E-16
   67    9.12508488197939E-16  2.12718798645541E-16 -2.27288268264127E-16 -3.90366780445169E-16
   68   -6.08602489964635E-16 -9.01577633892741E-17  2.53059563321695E-16 -2.66123183060608E-15
   69    1.65777900304823E-16 -3.30501244590314E-16 -6.43689559255223E-16  1.82687557844039E-15
   70    4.71934994474574E-16  5.81436449280295E-16 -1.84885269528985E-16  2.36619670255026E-15
   71    1.67227343084164E-15  7.84962372879505E-16 -1.21127066710081E-15 -2.90913126921311E-15

 column          61                    62                    63                    64
 row
   61    9.99999999999999E-01
   62    5.97752705976911E-16  1.00000000000000E+00
   63    3.10334767868217E-15 -1.15552009671305E-16  9.99999999999997E-01
   64   -1.13976263691616E-15  8.91653848822269E-16  2.78592482132081E-15  9.99999999999994E-01
   65    1.90137032620639E-16  2.58603370138673E-15  2.64963632013509E-15 -3.98251259579744E-15
   66   -7.58424777702469E-16  2.80589953904807E-16  6.78729750566137E-17 -2.80057062978377E-15
   67   -2.39876707151843E-15 -1.83771739171573E-15  8.02772186890148E-16  3.03023290640592E-15
   68   -1.33328650430662E-16  4.08881861880964E-16  1.30684795904485E-16 -5.69161671325159E-16
   69    1.62475424722597E-16 -1.83311985238799E-16  7.04054473972044E-16 -4.53754914569418E-16
   70   -3.31885958170617E-16  3.54242810478243E-16 -4.20504212708477E-16 -4.99771355857547E-16
   71    9.09130626683408E-16 -1.08395822699670E-15 -1.91150264020057E-15  3.25824436875344E-15

 column          65                    66                    67                    68
 row
   65    1.00000000000000E+00
   66    1.62418309555661E-15  9.99999999999998E-01
   67   -3.54304072797898E-15 -4.15788283982745E-16  9.99999999999998E-01
   68    1.35750635264217E-16 -5.81072278052535E-16 -5.50274318909046E-16  9.99999999999997E-01
   69    3.94496807216863E-16  4.24418854883552E-16  1.41107178978424E-16  2.24084704954317E-15
   70   -5.39061137934616E-16 -4.85941081304118E-16  1.44838213527292E-16  2.32202880479039E-15
   71    1.00651908682692E-15  1.35709585930011E-15 -4.60650398034779E-16 -2.55698240358981E-15

 column          69                    70                    71
 row
   69    9.99999999999998E-01
   70   -2.21460194543073E-15  1.00000000000000E+00
   71    1.58748882095328E-15  1.67726076083508E-15  1.00000000000000E+00


 SFO contributions (%) per orbital
 (multiplication by the orbital occupation yields the SFO Gross Populations)

 Orb.:        5      6      7      8      9     10     11     12     13     14     15     16     17     18
 occup:     2.00   2.00   2.00   2.00   2.00   2.00   2.00   2.00   2.00   2.00   0.00   0.00   0.00   0.00
 CF+SFO     ----   ----   ----   ----   ----   ----   ----   ----   ----   ----   ----   ----   ----   ----
 ------
      4:   99.96   0.04  -0.00   0.00   0.00   0.00   0.00  -0.00   0.00   0.00  -0.00  -0.00   0.00  -0.00
      5:    0.04  99.96  -0.00   0.00   0.00   0.00   0.00   0.00   0.00   0.00  -0.00  -0.00   0.00  -0.00
      6:    0.00  -0.00   0.18  98.94   0.55  -0.00  -0.00   0.05   0.00   0.00   0.13  -0.62   0.08  -0.00
      7:   -0.00  -0.00   2.24   0.02  14.19  -0.00   0.00  69.26   0.00   0.00  -7.07  15.09   6.84  -0.00
      8:    0.00   0.00   0.00   0.00   0.00   0.12   0.34   0.00  97.06   2.17  -0.00   0.00  -0.00   0.33
      9:    0.00   0.00   0.00   0.00   0.00   0.34   0.12   0.00   2.17  97.06  -0.00   0.00   0.00   0.01
     10:    0.00   0.00   3.45   0.01   2.60  -0.00  -0.00  20.83   0.00   0.00 -24.63  49.57  33.07  -0.00
     11:   -0.00   0.00  -0.13  -0.01   2.24   0.00  -0.00   0.52   0.00   0.00 -17.29  43.45  48.99   0.00
     12:    0.00   0.00   0.05   0.03   0.00  -0.00   0.00   0.12   0.00   0.00   0.17  -0.77   3.60   0.00
     13:    0.00   0.00   0.00   0.00  -0.00   0.03   0.33   0.00   0.15   0.02  -0.00  -0.00   0.00  79.36
     14:    0.00   0.00   0.00   0.00   0.00   0.33   0.03   0.00   0.02   0.15   0.00   0.00   0.00  11.17
     15:    0.00   0.00  -0.01   0.06   0.08   0.00   0.00  -0.03   0.00   0.00  -0.04  -1.62   1.86   0.00
     16:    0.00   0.00  -0.00   0.00   0.00   0.08   0.41  -0.00   0.09   0.01  -0.00  -0.00   0.00   3.43
     20:    0.00  -0.00   0.78  -0.00   0.01   0.00   0.00   0.41   0.00   0.00   3.46   1.23   1.67   0.00
     23:    0.00   0.00  -0.04   0.00   0.08   0.00   0.00  -0.02  -0.00   0.00   5.52   0.39  -1.70   0.00
     31:    0.00   0.00   0.07   0.00   0.58   0.00   0.00   0.10   0.00   0.00   0.99   4.16   0.59   0.00
     47:   -0.00   0.00  91.82   0.22   4.28   0.00   0.00  -0.02  -0.00  -0.00   0.97  -0.59   1.16  -0.00
     48:    0.00   0.00   0.14   0.07   7.49  69.74  18.14   0.62   0.31   0.06  -0.13  -0.02   1.27  -0.05
     49:    0.00   0.00   0.94   0.45  49.63  22.05  11.05   4.12   0.00   0.14  -0.89  -0.15   8.39  -0.00
     50:    0.00   0.00   0.34   0.16  17.98   5.82  68.43   1.49   0.10   0.21  -0.32  -0.05   3.04  -0.02
     51:   -0.00   0.00   0.01   0.10  -0.02   0.00   0.00   1.79   0.00   0.00 141.48   6.40  -0.44  -0.00
     52:    0.00   0.00  -0.00  -0.00  -0.00   0.22   0.05   0.01   0.03   0.01  -0.02  -0.19  -0.05   3.83
     53:    0.00   0.00  -0.02  -0.05  -0.18   0.03   0.06   0.50   0.00   0.01  -1.31 -10.80  -2.92   0.14
     54:    0.00   0.00  -0.01  -0.03  -0.09   0.02   0.16   0.26   0.01   0.02  -0.67  -5.51  -1.49   0.79
     60:    0.00  -0.00  -0.02  -0.00  -0.07  -0.00   0.00   0.01  -0.00   0.00  -0.73  -0.40  -1.94   0.00


 Summation over all MOs, multiplied by occupation: Total SFO Gross Populations in this Irrep
 ===========================================================================================

     2.00    2.00    2.00    2.00    2.00    1.99    1.71    1.99    1.99    0.54    0.05    0.00
     0.01    0.01    0.00    0.01    0.01    0.00    0.00    0.02    0.01    0.01    0.00    0.00
     0.00    0.00    0.00    0.00    0.00    0.00    0.01    0.00    0.00   -0.00    0.00    0.00
    -0.00    0.00    0.00   -0.00    0.00    0.00    0.00   -0.00    0.00    2.00    1.93    1.93
     1.77    1.89    0.04    0.01    0.01    0.01    0.00    0.01    0.00    0.00    0.00   -0.00
     0.00    0.00    0.00    0.00    0.00    0.00    0.00    0.00    0.00    0.00   -0.00



 List of all MOs, ordered by energy, with the most significant SFO gross populations
 ===================================================================================

 Each percentage contribution in the table below corresponds to the indicated SFO.
 In general, a SFO may be a linear combination of several Fragment Orbitals on the same,
 or on symmetry-related Fragments. Only the first 'member' of such a combination is
 specified here. A full definition of all SFOs is given in an earlier part of the output.
 The numbering of the SFOs in this table does NOT include the Core Orbitals, and starts
 from one for each symmetry representation, as in the SFO definition list earlier.

       E(eV)  Occ       MO           %     SFO (first member)   E(eV)  Occ   Fragment
 -------------------------------------------------------------------------------------

     -12.382  2.00     8 A         98.94%     6 A             -19.778  2.00     1 ClH
                                    0.45%     4 A               2.944  2.00     2 F
      -6.864  2.00     9 A         49.63%     4 A               2.944  2.00     2 F
                                   17.98%     5 A               2.944  2.00     2 F
                                   14.19%     7 A              -9.966  2.00     1 ClH
                                    7.49%     3 A               2.944  2.00     2 F
                                    4.28%     2 A             -15.093  2.00     2 F
                                    2.60%    10 A              -4.828  0.00     1 ClH
                                    2.24%    11 A               1.690  0.00     1 ClH
      -3.511  2.00    10 A         69.74%     3 A               2.944  2.00     2 F
                                   22.05%     4 A               2.944  2.00     2 F
                                    5.82%     5 A               2.944  2.00     2 F
      -3.510  2.00    11 A         68.43%     5 A               2.944  2.00     2 F
                                   18.14%     3 A               2.944  2.00     2 F
                                   11.05%     4 A               2.944  2.00     2 F
      -1.111  2.00    12 A         69.26%     7 A              -9.966  2.00     1 ClH
                                   20.83%    10 A              -4.828  0.00     1 ClH
                                    4.12%     4 A               2.944  2.00     2 F
                                    1.79%     6 A               7.773  0.00     2 F
                                    1.49%     5 A               2.944  2.00     2 F
      -0.697  2.00    13 A         97.06%     8 A              -7.622  2.00     1 ClH
                                    2.17%     9 A              -7.622  2.00     1 ClH
      -0.697  2.00    14 A         97.06%     9 A              -7.622  2.00     1 ClH
                                    2.17%     8 A              -7.622  2.00     1 ClH
       5.269  0.00    15 A        141.48%     6 A               7.773  0.00     2 F
                                  -24.63%    10 A              -4.828  0.00     1 ClH
                                  -17.29%    11 A               1.690  0.00     1 ClH
                                   -7.07%     7 A              -9.966  2.00     1 ClH
                                    5.52%    23 A              24.679  0.00     1 ClH
                                    3.46%    20 A              11.848  0.00     1 ClH
                                   -1.31%     8 A              22.092  0.00     2 F
       7.096  0.00    16 A         49.57%    10 A              -4.828  0.00     1 ClH
                                   43.45%    11 A               1.690  0.00     1 ClH
                                   15.09%     7 A              -9.966  2.00     1 ClH
                                  -10.80%     8 A              22.092  0.00     2 F
                                    6.40%     6 A               7.773  0.00     2 F
                                   -5.51%     9 A              22.092  0.00     2 F
                                    4.16%    31 A              45.575  0.00     1 ClH
                                   -1.62%    15 A               8.685  0.00     1 ClH
                                    1.23%    20 A              11.848  0.00     1 ClH
      10.252  0.00    17 A         48.99%    11 A               1.690  0.00     1 ClH
                                   33.07%    10 A              -4.828  0.00     1 ClH
                                    8.39%     4 A               2.944  2.00     2 F
                                    6.84%     7 A              -9.966  2.00     1 ClH
                                    3.60%    12 A               5.827  0.00     1 ClH
                                    3.04%     5 A               2.944  2.00     2 F
                                   -2.92%     8 A              22.092  0.00     2 F
                                   -1.94%    15 A              55.515  0.00     2 F
                                    1.86%    15 A               8.685  0.00     1 ClH
                                   -1.70%    23 A              24.679  0.00     1 ClH
                                    1.67%    20 A              11.848  0.00     1 ClH
                                   -1.49%     9 A              22.092  0.00     2 F
                                    1.27%     3 A               2.944  2.00     2 F
                                    1.16%     2 A             -15.093  2.00     2 F



 =======================================================================
 Electrostatic potential at the Nuclei due to electrons and other nuclei
 =======================================================================
  
         Atom                  Potential
         ----                  ---------
     1)   Cl                 64.71258110
     2)   H                   1.16520896
     3)   F                  26.83272828
 
 
 ========================
 No memory problems found
 ========================
 
 Maximum number of active allocate calls:         546
 
 *******************************************************************************

                             A D F   E X I T
 NORMAL TERMINATION



 =================
 Timing Statistics
 =================
  
 Total Used :                     CPU=        4.55      System=        0.16     Elapsed=        5.07

 Calls  Section                     ( Mean, Percentage )
 ---------------------------------------------------------------------------------------------------
     3  ><      ................      0.00    0.02             0.00    0.00             0.00    0.01
     1  INIT    ................      0.46   10.20             0.02   15.19             0.49    9.69
     1  GEOMET  ................      0.03    0.75             0.01    4.43             0.34    6.76
     1  FRAGM   ................      0.01    0.31             0.01    3.80             0.03    0.62
     1  INPUTA  ................      0.00    0.00             0.00    0.00             0.00    0.01
     1  ATDEN   ................      0.00    0.09             0.00    0.63             0.00    0.10
     1  MAINSY  ................      0.01    0.18             0.00    1.90             0.01    0.26
     1  SYMFIT  ................      0.00    0.04             0.00    0.00             0.00    0.04
     1  CORORT  ................      0.00    0.02             0.00    0.00             0.00    0.01
     1  SYMORB  ................      0.00    0.07             0.00    0.00             0.00    0.06
     1  CLSMAT  ................      0.01    0.29             0.00    0.00             0.01    0.24
     1  ORTHON  ................      0.00    0.11             0.00    0.63             0.01    0.13
     1  GENPT   ................      0.10    2.11             0.00    3.16             0.10    1.99
     1  PTBAS   ................      0.02    0.51             0.00    0.00             0.02    0.47
    13  FOCKY   ................      0.09   26.97             0.00    7.59             0.10   24.64
    13  FOCKTR  ................      0.00    0.35             0.00    0.63             0.00    0.45
    13  SDIIS   ................      0.00    1.08             0.00    5.06             0.00    0.97
     1  COREPS  ................      0.08    1.80             0.00    1.90             0.09    1.70
     1  TOTEN   ................      0.24    5.23             0.00    1.90             0.24    4.78
     1  POPAN   ................      0.00    0.07             0.00    0.00             0.01    0.16
     1  DEBYE   ................      0.00    0.07             0.00    0.00             0.00    0.05
     1  INPUTE  ................      0.00    0.02             0.00    0.00             0.00    0.03
     1  SYMORE  ................      0.00    0.00             0.00    0.00             0.00    0.02
     1  METS    ................      0.00    0.04             0.00    0.00             0.00    0.01
     1  CETS    ................      0.01    0.13             0.00    0.00             0.02    0.31
     1  POPUL   ................      2.23   48.99             0.08   51.27             2.33   45.89
     1  EXIT PROCEDURE .........      0.03    0.57             0.00    1.90             0.03    0.59


 Currently Open Files (EXIT00)
 ====================

 Unit    Access Format  Status   Type       Ident (file)
 -------------------------------------------------------
   3      SEQ    FORM   TRANSP  NORMAL      LOGFILE
                                          ( logfile )


 Buffered I/O statistics
 =======================
 Memory available:                     67108864
 Number of records fitting in memory:     16131
 Input :   1.4% of                        43506  *4k bytes
 Output:  11.7% of                         3336  *4k bytes
 Records from serial files evicted:           0
                    others evicted:           0
 Hash table lookups:     122531 with          0 conflicts (  0.00%)

 ***************************************************************************************************
 (LOGFILE)
 <May09-2019> <17:23:41>  ADF 2017  RunTime: May09-2019 17:23:41  Nodes: 1  Procs: 12
 <May09-2019> <17:23:41>  *** (NO TITLE) ***
 <May09-2019> <17:23:41>  RunType   : SINGLE POINT
 <May09-2019> <17:23:42>  Net Charge: -1 (Nuclei minus Electrons)
 <May09-2019> <17:23:42>  Symmetry  : NOSYM
 <May09-2019> <17:23:42>  >>>> FRAGM
  Coordinates
    Atom         X           Y           Z   (Angstrom)
    1.Cl       -3.907774   -0.076535   -0.085203
    2.H        -2.394005    0.462141    0.878263
    3.F        -1.578716    0.752263    1.397169
 <May09-2019> <17:23:42>  >>>> CORORT
 <May09-2019> <17:23:42>  >>>> CLSMAT
 <May09-2019> <17:23:42>  >>>> ORTHON
 <May09-2019> <17:23:42>  >>>> GENPT
 <May09-2019> <17:23:42>  Block Length= 128
 <May09-2019> <17:23:42>  >>>> PTBAS
 <May09-2019> <17:23:42>  >>>> CYCLE
 <May09-2019> <17:23:42>              |Error|         MaxErr       Wt(A-DIIS)
 <May09-2019> <17:23:42>      1      1.41452311      1.17795206
 <May09-2019> <17:23:42>      2      0.46749229      0.12775410    100.0
 <May09-2019> <17:23:42>      3      0.40972799      0.11643562    100.0
 <May09-2019> <17:23:42>      4      0.41031632      0.11618280    100.0
 <May09-2019> <17:23:42>      5      0.85378460      0.23847671    100.0
 <May09-2019> <17:23:43>      6      0.13143630      0.04118635     40.6
 <May09-2019> <17:23:43>      7      0.07587205      0.02126179     20.5
 <May09-2019> <17:23:43>      8      0.00854417      0.00218658      1.2
 <May09-2019> <17:23:43>      9      0.00088664      0.00023229      0.0
 <May09-2019> <17:23:43>     10      0.00007557      0.00002605      0.0
 <May09-2019> <17:23:43>     11      0.00001636      0.00000600      0.0
 <May09-2019> <17:23:43>     12      0.00000105      0.00000036      0.0
 <May09-2019> <17:23:43>  SCF converged
 <May09-2019> <17:23:43>     13      0.00000011      0.00000003      0.0
 <May09-2019> <17:23:43>  >>>> TOTEN
 <May09-2019> <17:23:44>  >>>> POPAN
 <May09-2019> <17:23:44>  >>>> DEBYE
 <May09-2019> <17:23:44>  >>>> AMETS
 <May09-2019> <17:23:46>   Bond Energy          -0.18411755 a.u.
 <May09-2019> <17:23:46>   Bond Energy          -5.01009352 eV
 <May09-2019> <17:23:46>   Bond Energy        -115.54       kcal/mol
 <May09-2019> <17:23:46>  >>>> POPUL
 <May09-2019> <17:23:46>  NORMAL TERMINATION
 <May09-2019> <17:23:46>  END
