
Create H   file=TZ2P-H
XC
  GGA BP86
End
End Input

 *******************************************************************************
 *                                                                             *
 *  -------------------------------------                                      *
 *   Amsterdam Density Functional  (ADF)         development version           *
 *  -------------------------------------                                      *
 *                                               r61132 2017-09-08             *
 *                                                                             *
 *                                                                             *
 *                              =================                              *
 *                              |               |                              *
 *                              |     A D F     |                              *
 *                              |               |                              *
 *                              =================                              *
 *                                                                             *
 *                                                                             *
 *   Online information and documentation:  https://www.scm.com/support/       *
 *   E-mail:  support@scm.com   info@scm.com                                   *
 *                                                                             *
 *   Scientific publications using ADF results must be properly referenced     *
 *   See the User Manuals (or the web site) for recommended citations          *
 *   The terms and conditions of the End User License Agreement apply to       *
 *   the use of ADF, https://www.scm.com/license-terms/                        *
 *                                                                             *
 **********************  x86_64_linux_intel / intelmpi  ************************
 
 Licensed to: VU/FEW (+ SARA) / ALGEMEEN / Amsterdam / THE NETHERLANDS
 SCM User ID: u7668
  
 ADF development version  RunTime: Apr18-2019 21:55:48  Nodes: 1  Procs: 1

 Temporary files are created in /local/datastore0/tcst25/186807/kid_0.8oLxax

 Hydrogen (TZ2P)



 ===========================
 A T T A C H E D   F I L E S
 ===========================
  
 CREATE - Data File:    TZ2P-H
                        Hydrogen (TZ2P)



 ===============================
 M O D E L   P A R A M E T E R S
 ===============================
  
 DENSITY FUNCTIONAL POTENTIAL (scf)
    LDA:                               VWN                                      
    Gradient Corrections:              Becke88 Perdew86                        == Not Default ==

 SPIN  (restricted / unrestr.)
    Molecule:                          Restricted                               

 OTHER ASPECTS
    Relativistic Corrections:          ---                                      

    Nuclear Charge Density Model:      Point Charge Nuclei                      
    Core Treatment:                    Frozen Orbital(s)                        

    Hyperfine or Zeeman Interaction:   ---                                      



 =====================================
 S Y M M E T R Y ,   E L E C T R O N S
 =====================================
  
 Symmetry: ATOM

 Irreducible Representations, including subspecies
 -------------------------------------------------
 S
 P:x  P:y  P:z
 D:z2  D:x2-y2  D:xy  D:xz  D:yz
 F:z3  F:z  F:xyz  F:z2x  F:z2y  F:x  F:y


 Configuration of Valence Electrons
 ==================================

          Occupation Numbers
          -------------------------------------------------
 S        1
 P        0
 D        0
 F        0
          -------------------------------------------------

 Total:   1

 Net Charge: 0 (Nuclei minus Electrons)

 Preset values for MO occupations will be applied through SCF cycle no. 1000000
 Thereafter, the program will assign electrons to MOs that are spatially
 similar to the occupied MOs in a "reference" cycle ("KeepOrbitals").
 The reference cycle is always the PREVIOUS cycle: it will evolve with
 the SCF procedure.



 ================================
 (Slater-type)  F U N C T I O N S  ***  (Basis and Fit)  ***
 ================================
  

 Atom Type    1  (H)
 ==============

 Valence Basis Sets:   5
 -----------------------
   1 S    0.690000
   1 S    0.920000
   1 S    1.580000
   2 P    1.250000
   3 D    2.500000


 BAS: List of all Elementary Cartesian Basis Functions
 =====================================================

 The numbering in the list below (to the right of the function characteristics) is referred
 to in print-outs of MO eigenvectors and Mulliken populations in the BAS representation
 (as contrasted to the SFO representation).

 Notes:
 1. The functions are characterized by a polynomial prefactor (powers of x,y,z and r) and
    an exponential decay factor alpha.
 2. Since the basis sets are specific for an atom TYPE, the individual functions occur on
    all atoms of that type.
 3. The word 'Core' in the left margin signals that it is a Core Function (CF) : not a
    degree of freedom in the valence set, but only used to ensure orthogonalization of
    the other valence basis functions on the frozen Core Orbitals.


 (power of) X  Y  Z  R     Alpha  on Atom
            ==========     =====     ==========

 H                                    1
                                  ---------------------------------------------------------------------------
            0  0  0  0     0.690      1
            0  0  0  0     0.920      2
            0  0  0  0     1.580      3
            1  0  0  0     1.250      4
            0  1  0  0     1.250      5
            0  0  1  0     1.250      6
            2  0  0  0     2.500      7
            1  1  0  0     2.500      8
            1  0  1  0     2.500      9
            0  2  0  0     2.500     10
            0  1  1  0     2.500     11
            0  0  2  0     2.500     12

 Total number of charge fitting functions (nprimf)        50
 Total number of Cartesian basis functions (naos)         12
 Total number of Cartesian core functions  (ncos)          0



 BAS: List of all Elementary Cartesian Basis Functions
 =====================================================

 The numbering in the list below (to the right of the function characteristics) is referred
 to in print-outs of MO eigenvectors and Mulliken populations in the BAS representation
 (as contrasted to the SFO representation).

 Notes:
 1. The functions are characterized by a polynomial prefactor (powers of x,y,z and r) and
    an exponential decay factor alpha.
 2. Since the basis sets are specific for an atom TYPE, the individual functions occur on
    all atoms of that type.
 3. The word 'Core' in the left margin signals that it is a Core Function (CF) : not a
    degree of freedom in the valence set, but only used to ensure orthogonalization of
    the other valence basis functions on the frozen Core Orbitals.


 (power of) X  Y  Z  R     Alpha  on Atom
            ==========     =====     ==========

 H                                    1
                                  ---------------------------------------------------------------------------
            0  0  0  0     0.690      1
            0  0  0  0     0.920      2
            0  0  0  0     1.580      3
            1  0  0  0     1.250      4
            0  1  0  0     1.250      5
            0  0  1  0     1.250      6
            2  0  0  0     2.500      7
            1  1  0  0     2.500      8
            1  0  1  0     2.500      9
            0  2  0  0     2.500     10
            0  1  1  0     2.500     11
            0  0  2  0     2.500     12
1
 ***************************************************************************************************



                                              ***********************
                                              *  T E C H N I C A L  *
                                              ***********************
  



 =============================================================
 P A R A L L E L I Z A T I O N  and  V E C T O R I Z A T I O N
 =============================================================
  
 Nr of parallel processes:                                1
 Maximum vector length in NumInt loops:                 128

 IO buffersize (Mb):                                     64.000000



 =====================
 S C F   U P D A T E S
 =====================
  
 Max. nr. of cycles:                               300
 Convergence criterion:                              0.0000000100
   secondary criterion:                              0.0000000100

 Mix parameter (when DIIS does not apply):           0.2000000000
 Special mix parameter for the first cycle:          1.0000000000
 Mixed ADIIS+DIIS will be used
    Max number of expansion vectors:                10
    Pure ADIIS when Max([F,P]) is above              0.1000000000
    Pure DIIS when Max([F,P]) is below               0.0010000000
 Automatic ElectronSmearing (in case of problematic SCF convergence) disabled



 =================
 P R E C I S I O N  ***  (General: NumInt, NeglectFunctionTails, ...)  ***
 =================
  

 NumInt:           Target precision:                12.0000000000
 -------           Initial precision:               10.0000000000
                   Min. precision (optimization):   10.0000000000

 Neglect Functions:          Basis functions:        0.1000000000E-13
 ------------------          Fit functions:          0.1000000000E-13



 ===========================
 L I N E A R   S C A L I N G
 ===========================
  

 Cut-off radii density fit:                        0.1000000000E-97
 Overlap cut-off criterion AO matrix elements:     0.1000000000E-97
 Cut-offs for Coulomb potential and fitted density:0.1000000000E-97
 Cut-off criterion for Coulomb multipole terms:    0.1000000000E-97
 Progressive Convergence parameter:                 0.000000000    
1
 ***************************************************************************************************



                                            ***************************
                                            *  C O M P U T A T I O N  *
                                            ***************************
  

 Number of elements of the density matrix on this node (used, total):        78        78



 ===========================================
 Numerical Integration : Fuzzy Cells (Becke)
 ===========================================
  
 Becke grid quality: VERYGOOD       
  
 Lebedev angular grid order:             min:  13 max:  41
 Nr. of radial points:                   min:  64 max:  64

 Total nr. of points:         64
 Nr. of blocks:                1
 Block length:                64
 Nr. of dummy points:          0


 Test of Precision of the Numerical Integration Grid
 ===================================================

 Integral of the Total Core Density:                   0.00000000000000



 ========================
 Density Fitting (zlmFit)
 ========================
  
 ZlmFit Fit Quality: VERYGOOD       
  
 Max L-expansion:                        min:   0 max:   0
 Nr. of radial interpolation points:     min: 130 max: 130



 =====
 S C F  ***  ScaSCF  ***
 =====
  

 CYCLE    1
 SCF Error: norm([F,P])=      0.000000000000, max([F,P])=      0.000000000000
 orbitals (Q,E):
 ---------------
 S :1...3            ( 1.00    -0.5000)  ( 0.00    -0.0900)  ( 0.00     1.2939)
 P :1...1            ( 0.00     0.1562)
 D :1...1            ( 0.00     2.2917)

 CYCLE    2
 SCF Error: norm([F,P])=      0.030526162244, max([F,P])=      0.029682528591
 orbitals (Q,E):
 ---------------
 S :1...2            ( 1.00    -0.2270)  ( 0.00     0.1038)
 P :1...1            ( 0.00     0.4131)
 D :1...1            ( 0.00     2.5768)

 CYCLE    3
  SDIIS (wt  0.000):  0.1733  0.8267
 A-DIIS (wt  1.000):  0.0000  1.0000
  DIIS coefficients:  0.0000  1.0000
 SCF Error: norm([F,P])=      0.007183061946, max([F,P])=      0.006712148192
 orbitals (Q,E):
 ---------------
 S :1...2            ( 1.00    -0.2462)  ( 0.00     0.0917)
 P :1...1            ( 0.00     0.3973)
 D :1...1            ( 0.00     2.5583)

 CYCLE    4
  SDIIS (wt  0.999):  0.1398  0.8602
 A-DIIS (wt  0.001):  0.0000  1.0000
  DIIS coefficients:  0.1396  0.8604
 SCF Error: norm([F,P])=      0.001175086780, max([F,P])=      0.001143060931
 orbitals (Q,E):
 ---------------
 S :1...2            ( 1.00    -0.2434)  ( 0.00     0.0933)
 P :1...1            ( 0.00     0.3996)
 D :1...1            ( 0.00     2.5611)

 CYCLE    5
  SDIIS (wt  1.000):  0.0219  0.9781
  DIIS coefficients:  0.0219  0.9781
 SCF Error: norm([F,P])=      0.000027525369, max([F,P])=      0.000023543474
 orbitals (Q,E):
 ---------------
 S :1...2            ( 1.00    -0.2435)  ( 0.00     0.0932)
 P :1...1            ( 0.00     0.3996)
 D :1...1            ( 0.00     2.5610)

 CYCLE    6
  SDIIS (wt  1.000): -0.0582  1.0582
  DIIS coefficients: -0.0582  1.0582
 SCF Error: norm([F,P])=      0.000001514450, max([F,P])=      0.000001285214
 orbitals (Q,E):
 ---------------
 S :1...2            ( 1.00    -0.2435)  ( 0.00     0.0932)
 P :1...1            ( 0.00     0.3996)
 D :1...1            ( 0.00     2.5610)

 CYCLE    7
  SDIIS (wt  1.000): -0.0031  1.0031
  DIIS coefficients: -0.0031  1.0031
 SCF Error: norm([F,P])=      0.000000004705, max([F,P])=      0.000000004158
 orbitals (Q,E):
 ---------------
 S :1...2            ( 1.00    -0.2435)  ( 0.00     0.0932)
 P :1...1            ( 0.00     0.3996)
 D :1...1            ( 0.00     2.5610)

 SCF CONVERGED

 CYCLE    8
1
 ***************************************************************************************************



                                                *******************
                                                *  R E S U L T S  *
                                                *******************
  
 *** Setting up for NEW gradients in Focky
 *** Using FIT density in Focky

 Orbital Energies, per Irrep and Spin:
 ======================================
                        Occup              E (au)              E (eV)       Diff (eV) with prev. cycle
                        -----      --------------------        ------       --------------------------
 S
               1        1.000     -0.24350452296405E+00        -6.626               4.48E-09
               2        0.000      0.93233330888585E-01         2.537
               3        0.000      0.15154066862623E+01        41.236
 P
               1        0.000      0.39955072057198E+00        10.872
 D
               1        0.000      0.25610214787646E+01        69.689


 Partially Occupied:
               1 S                -0.24350452296405E+00
  
 LUMO :        2 S                 0.93233330888585E-01
  


 Orbital Energies, all Irreps
 ========================================

 Irrep        no.  (spin)   Occup              E (au)                E (eV)
 ---------------------------------------------------------------------------
 S             1             1.00       -0.24350452296405E+00        -6.6261
 S             2             0.00        0.93233330888585E-01         2.5370
 P             1             0.00        0.39955072057198E+00        10.8723
 S             3             0.00        0.15154066862623E+01        41.2363
 D             1             0.00        0.25610214787646E+01        69.6889


 All Electron Calculation, thus no Orbital Energies of the Core Orbitals are calculated



 =======================================
 M U L L I K E N   P O P U L A T I O N S
 =======================================
  
 The survey below gives for each atom:
 a) the total charge (Z minus electrons)
 b) the net spin polarization (nr of electrons spin-A minus spin-B)
 c) for each spin the atomic electron valence density (integrated) per L-value.

 Atom              Charge    Spin density          S         P         D         F
 ----              ------    ------------       ------    ------    ------    ------
 1 H               0.0000                       1.0000    0.0000    0.0000    0.0000

 Populations of individual BAS functions
 ----------------------------------------
 1 H            0.1853  0.7115  0.1032  0.0000  0.0000  0.0000  0.0000  0.0000  0.0000  0.0000
                0.0000  0.0000

 Gross Charges per Atom (Z minus electrons)
 ==========================================
             0.0000
 Net Total:  0.00000000



 =======================================================================
 Electrostatic potential at the Nuclei due to electrons and other nuclei
 =======================================================================
  
         Atom                  Potential
         ----                  ---------
     1)   H                   0.94550094
 
 
 ========================
 No memory problems found
 ========================
 
 Maximum number of active allocate calls:         363
 
 *******************************************************************************

                             A D F   E X I T
 NORMAL TERMINATION



 =================
 Timing Statistics
 =================
  
 Total Used :                     CPU=        0.30      System=        0.02     Elapsed=        0.33

 Calls  Section                     ( Mean, Percentage )
 ---------------------------------------------------------------------------------------------------
     3  ><      ................      0.00    0.33             0.00    0.00             0.00    0.24
     1  INIT    ................      0.01    2.97             0.02   66.67             0.03    8.20
     1  GEOMET  ................      0.00    1.65             0.00   12.50             0.01    2.56
     1  INPUTA  ................      0.00    0.33             0.00    0.00             0.00    0.45
     1  MAINSY  ................      0.00    1.65             0.00    4.17             0.01    1.74
     1  SYMFIT  ................      0.00    0.00             0.00    4.16             0.00    0.25
     1  CORORT  ................      0.00    0.00             0.00    0.00             0.00    0.08
     1  SYMORB  ................      0.00    0.33             0.00    0.00             0.00    0.16
     1  CLSMAT  ................      0.00    1.32             0.00    0.00             0.00    1.21
     1  ORTHON  ................      0.00    0.33             0.00    0.00             0.00    0.38
     1  GENPT   ................      0.01    3.30             0.00    0.00             0.01    2.97
     1  PTBAS   ................      0.00    0.99             0.00    0.00             0.00    1.03
     8  FOCKY   ................      0.03   68.98             0.00    4.17             0.03   63.95
     8  FOCKTR  ................      0.00    1.65             0.00    0.00             0.00    1.69
     8  SDIIS   ................      0.00    4.29             0.00    0.00             0.00    3.74
     1  COREPS  ................      0.02    5.28             0.00    0.00             0.02    4.78
     1  POPAN   ................      0.00    1.32             0.00    0.00             0.00    1.15
     1  DEBYE   ................      0.00    0.00             0.00    0.00             0.00    0.15
     1  EXIT PROCEDURE .........      0.02    5.28             0.00    8.33             0.02    5.28


 Currently Open Files (EXIT00)
 ====================

 Unit    Access Format  Status   Type       Ident (file)
 -------------------------------------------------------
   3      SEQ    FORM   TRANSP  NORMAL      LOGFILE
                                          ( logfile )


 Buffered I/O statistics
 =======================
 Memory available:                     67108864
 Number of records fitting in memory:     16131
 Input :   0.2% of                        17478  *4k bytes
 Output:  15.2% of                         1046  *4k bytes
 Records from serial files evicted:           0
                    others evicted:           0
 Hash table lookups:      44676 with          0 conflicts (  0.00%)

 ***************************************************************************************************
 (LOGFILE)
 <Apr18-2019> <21:55:48>  ADF development version  RunTime: Apr18-2019 21:55:48  Nodes: 1  Procs: 1
 <Apr18-2019> <21:55:48>  Hydrogen (TZ2P)
 <Apr18-2019> <21:55:48>  RunType   : CREATE
 <Apr18-2019> <21:55:48>  Net Charge: 0 (Nuclei minus Electrons)
 <Apr18-2019> <21:55:48>  Symmetry  : ATOM
  Coordinates
    Atom         X           Y           Z   (Angstrom)
    1.H         0.000000    0.000000    0.000000
 <Apr18-2019> <21:55:48>  >>>> CORORT
 <Apr18-2019> <21:55:48>  >>>> CLSMAT
 <Apr18-2019> <21:55:48>  >>>> ORTHON
 <Apr18-2019> <21:55:48>  >>>> GENPT
 <Apr18-2019> <21:55:48>  Block Length=  64
 <Apr18-2019> <21:55:48>  >>>> PTBAS
 <Apr18-2019> <21:55:48>  >>>> CYCLE
 <Apr18-2019> <21:55:48>              |Error|         MaxErr       Wt(A-DIIS)
 <Apr18-2019> <21:55:48>      1      0.00000000      0.00000000
 <Apr18-2019> <21:55:48>      2      0.03052616      0.02968253
 <Apr18-2019> <21:55:48>      3      0.00718306      0.00671215    100.0
 <Apr18-2019> <21:55:48>      4      0.00117509      0.00114306      0.1
 <Apr18-2019> <21:55:48>      5      0.00002753      0.00002354      0.0
 <Apr18-2019> <21:55:48>      6      0.00000151      0.00000129      0.0
 <Apr18-2019> <21:55:48>      7      0.00000000      0.00000000      0.0
 <Apr18-2019> <21:55:48>  SCF converged
 <Apr18-2019> <21:55:48>      8      0.00000000      0.00000000      0.0
 <Apr18-2019> <21:55:48>  >>>> POPAN
 <Apr18-2019> <21:55:48>  >>>> DEBYE
 <Apr18-2019> <21:55:48>  NORMAL TERMINATION
 <Apr18-2019> <21:55:48>  END

Create N   file=TZ2P-N
XC
  GGA BP86
End
End Input

 *******************************************************************************
 *                                                                             *
 *  -------------------------------------                                      *
 *   Amsterdam Density Functional  (ADF)         development version           *
 *  -------------------------------------                                      *
 *                                               r61132 2017-09-08             *
 *                                                                             *
 *                                                                             *
 *                              =================                              *
 *                              |               |                              *
 *                              |     A D F     |                              *
 *                              |               |                              *
 *                              =================                              *
 *                                                                             *
 *                                                                             *
 *   Online information and documentation:  https://www.scm.com/support/       *
 *   E-mail:  support@scm.com   info@scm.com                                   *
 *                                                                             *
 *   Scientific publications using ADF results must be properly referenced     *
 *   See the User Manuals (or the web site) for recommended citations          *
 *   The terms and conditions of the End User License Agreement apply to       *
 *   the use of ADF, https://www.scm.com/license-terms/                        *
 *                                                                             *
 **********************  x86_64_linux_intel / intelmpi  ************************
 
 Licensed to: VU/FEW (+ SARA) / ALGEMEEN / Amsterdam / THE NETHERLANDS
 SCM User ID: u7668
  
 ADF development version  RunTime: Apr18-2019 21:55:48  Nodes: 1  Procs: 1

 Temporary files are created in /local/datastore0/tcst25/186807/kid_0.GJjoS1

 Nitrogen (TZ2P)



 ===========================
 A T T A C H E D   F I L E S
 ===========================
  
 CREATE - Data File:    TZ2P-N
                        Nitrogen (TZ2P)



 ===============================
 M O D E L   P A R A M E T E R S
 ===============================
  
 DENSITY FUNCTIONAL POTENTIAL (scf)
    LDA:                               VWN                                      
    Gradient Corrections:              Becke88 Perdew86                        == Not Default ==

 SPIN  (restricted / unrestr.)
    Molecule:                          Restricted                               

 OTHER ASPECTS
    Relativistic Corrections:          ---                                      

    Nuclear Charge Density Model:      Point Charge Nuclei                      
    Core Treatment:                    Frozen Orbital(s)                        

    Hyperfine or Zeeman Interaction:   ---                                      



 =====================================
 S Y M M E T R Y ,   E L E C T R O N S
 =====================================
  
 Symmetry: ATOM

 Irreducible Representations, including subspecies
 -------------------------------------------------
 S
 P:x  P:y  P:z
 D:z2  D:x2-y2  D:xy  D:xz  D:yz
 F:z3  F:z  F:xyz  F:z2x  F:z2y  F:x  F:y


 Configuration of Valence Electrons
 ==================================

          Occupation Numbers
          -------------------------------------------------
 S        2*2
 P        3
 D        0
 F        0
          -------------------------------------------------

 Total:   7

 Net Charge: 0 (Nuclei minus Electrons)

 Preset values for MO occupations will be applied through SCF cycle no. 1000000
 Thereafter, the program will assign electrons to MOs that are spatially
 similar to the occupied MOs in a "reference" cycle ("KeepOrbitals").
 The reference cycle is always the PREVIOUS cycle: it will evolve with
 the SCF procedure.



 ================================
 (Slater-type)  F U N C T I O N S  ***  (Basis and Fit)  ***
 ================================
  

 Atom Type    1  (N)
 ==============

 Valence Basis Sets:  10
 -----------------------
   1 S    8.740000
   1 S    5.900000
   2 S    5.150000
   2 S    2.500000
   2 S    1.500000
   2 P    3.680000
   2 P    1.880000
   2 P    1.000000
   3 D    2.200000
   4 F    3.300000


 BAS: List of all Elementary Cartesian Basis Functions
 =====================================================

 The numbering in the list below (to the right of the function characteristics) is referred
 to in print-outs of MO eigenvectors and Mulliken populations in the BAS representation
 (as contrasted to the SFO representation).

 Notes:
 1. The functions are characterized by a polynomial prefactor (powers of x,y,z and r) and
    an exponential decay factor alpha.
 2. Since the basis sets are specific for an atom TYPE, the individual functions occur on
    all atoms of that type.
 3. The word 'Core' in the left margin signals that it is a Core Function (CF) : not a
    degree of freedom in the valence set, but only used to ensure orthogonalization of
    the other valence basis functions on the frozen Core Orbitals.


 (power of) X  Y  Z  R     Alpha  on Atom
            ==========     =====     ==========

 N                                    1
                                  ---------------------------------------------------------------------------
            0  0  0  0     8.740      1
            0  0  0  0     5.900      2
            0  0  0  1     5.150      3
            0  0  0  1     2.500      4
            0  0  0  1     1.500      5
            1  0  0  0     3.680      6
            0  1  0  0     3.680      7
            0  0  1  0     3.680      8
            1  0  0  0     1.880      9
            0  1  0  0     1.880     10
            0  0  1  0     1.880     11
            1  0  0  0     1.000     12
            0  1  0  0     1.000     13
            0  0  1  0     1.000     14
            2  0  0  0     2.200     15
            1  1  0  0     2.200     16
            1  0  1  0     2.200     17
            0  2  0  0     2.200     18
            0  1  1  0     2.200     19
            0  0  2  0     2.200     20
            3  0  0  0     3.300     21
            2  1  0  0     3.300     22
            2  0  1  0     3.300     23
            1  2  0  0     3.300     24
            1  1  1  0     3.300     25
            1  0  2  0     3.300     26
            0  3  0  0     3.300     27
            0  2  1  0     3.300     28
            0  1  2  0     3.300     29
            0  0  3  0     3.300     30

 Total number of charge fitting functions (nprimf)        84
 Total number of Cartesian basis functions (naos)         30
 Total number of Cartesian core functions  (ncos)          0



 BAS: List of all Elementary Cartesian Basis Functions
 =====================================================

 The numbering in the list below (to the right of the function characteristics) is referred
 to in print-outs of MO eigenvectors and Mulliken populations in the BAS representation
 (as contrasted to the SFO representation).

 Notes:
 1. The functions are characterized by a polynomial prefactor (powers of x,y,z and r) and
    an exponential decay factor alpha.
 2. Since the basis sets are specific for an atom TYPE, the individual functions occur on
    all atoms of that type.
 3. The word 'Core' in the left margin signals that it is a Core Function (CF) : not a
    degree of freedom in the valence set, but only used to ensure orthogonalization of
    the other valence basis functions on the frozen Core Orbitals.


 (power of) X  Y  Z  R     Alpha  on Atom
            ==========     =====     ==========

 N                                    1
                                  ---------------------------------------------------------------------------
            0  0  0  0     8.740      1
            0  0  0  0     5.900      2
            0  0  0  1     5.150      3
            0  0  0  1     2.500      4
            0  0  0  1     1.500      5
            1  0  0  0     3.680      6
            0  1  0  0     3.680      7
            0  0  1  0     3.680      8
            1  0  0  0     1.880      9
            0  1  0  0     1.880     10
            0  0  1  0     1.880     11
            1  0  0  0     1.000     12
            0  1  0  0     1.000     13
            0  0  1  0     1.000     14
            2  0  0  0     2.200     15
            1  1  0  0     2.200     16
            1  0  1  0     2.200     17
            0  2  0  0     2.200     18
            0  1  1  0     2.200     19
            0  0  2  0     2.200     20
            3  0  0  0     3.300     21
            2  1  0  0     3.300     22
            2  0  1  0     3.300     23
            1  2  0  0     3.300     24
            1  1  1  0     3.300     25
            1  0  2  0     3.300     26
            0  3  0  0     3.300     27
            0  2  1  0     3.300     28
            0  1  2  0     3.300     29
            0  0  3  0     3.300     30
1
 ***************************************************************************************************



                                              ***********************
                                              *  T E C H N I C A L  *
                                              ***********************
  



 =============================================================
 P A R A L L E L I Z A T I O N  and  V E C T O R I Z A T I O N
 =============================================================
  
 Nr of parallel processes:                                1
 Maximum vector length in NumInt loops:                 128

 IO buffersize (Mb):                                     64.000000



 =====================
 S C F   U P D A T E S
 =====================
  
 Max. nr. of cycles:                               300
 Convergence criterion:                              0.0000000100
   secondary criterion:                              0.0000000100

 Mix parameter (when DIIS does not apply):           0.2000000000
 Special mix parameter for the first cycle:          1.0000000000
 Mixed ADIIS+DIIS will be used
    Max number of expansion vectors:                10
    Pure ADIIS when Max([F,P]) is above              0.1000000000
    Pure DIIS when Max([F,P]) is below               0.0010000000
 Automatic ElectronSmearing (in case of problematic SCF convergence) disabled



 =================
 P R E C I S I O N  ***  (General: NumInt, NeglectFunctionTails, ...)  ***
 =================
  

 NumInt:           Target precision:                12.0000000000
 -------           Initial precision:               10.0000000000
                   Min. precision (optimization):   10.0000000000

 Neglect Functions:          Basis functions:        0.1000000000E-13
 ------------------          Fit functions:          0.1000000000E-13



 ===========================
 L I N E A R   S C A L I N G
 ===========================
  

 Cut-off radii density fit:                        0.1000000000E-97
 Overlap cut-off criterion AO matrix elements:     0.1000000000E-97
 Cut-offs for Coulomb potential and fitted density:0.1000000000E-97
 Cut-off criterion for Coulomb multipole terms:    0.1000000000E-97
 Progressive Convergence parameter:                 0.000000000    
1
 ***************************************************************************************************



                                            ***************************
                                            *  C O M P U T A T I O N  *
                                            ***************************
  

 Number of elements of the density matrix on this node (used, total):       465       465



 ===========================================
 Numerical Integration : Fuzzy Cells (Becke)
 ===========================================
  
 Becke grid quality: VERYGOOD       
  
 Lebedev angular grid order:             min:  13 max:  41
 Nr. of radial points:                   min:  72 max:  72

 Total nr. of points:         72
 Nr. of blocks:                1
 Block length:                72
 Nr. of dummy points:          0


 Test of Precision of the Numerical Integration Grid
 ===================================================

 Integral of the Total Core Density:                   0.00000000000000



 ========================
 Density Fitting (zlmFit)
 ========================
  
 ZlmFit Fit Quality: VERYGOOD       
  
 Max L-expansion:                        min:   0 max:   0
 Nr. of radial interpolation points:     min: 160 max: 160



 =====
 S C F  ***  ScaSCF  ***
 =====
  

 CYCLE    1
 SCF Error: norm([F,P])=      0.000000000000, max([F,P])=      0.000000000000
 orbitals (Q,E):
 ---------------
 S :1...5            ( 2.00   -24.4993)  ( 2.00    -6.1004)  ( 0.00    -2.6599)  ( 0.00     0.7211)
                     ( 0.00    54.4424)
 P :1...3            ( 3.00    -6.1210)  ( 0.00    -2.6439)  ( 0.00    -1.4084)
 D :1...1            ( 0.00    -2.7133)
 F :1...1            ( 0.00    -0.3300)

 CYCLE    2
  SDIIS (wt  0.000):  1.0000 -0.0000
 A-DIIS (wt  1.000):  0.0000  1.0000
  DIIS coefficients:  0.0000  1.0000
 SCF Error: norm([F,P])=      6.451367365890, max([F,P])=      4.219703087224
 orbitals (Q,E):
 ---------------
 S :1...3            ( 2.00   -10.8287)  ( 2.00     0.0014)  ( 0.00     1.1966)
 P :1...2            ( 3.00     0.1843)  ( 0.00     0.9564)
 D :1...1            ( 0.00     1.8417)
 F :1...1            ( 0.00     4.7248)

 CYCLE    3
  SDIIS (wt  0.000):  0.2198  0.7802
 A-DIIS (wt  1.000):  0.2131  0.7869
  DIIS coefficients:  0.2131  0.7869
 SCF Error: norm([F,P])=      2.481517685351, max([F,P])=      1.954795594132
 orbitals (Q,E):
 ---------------
 S :1...3            ( 2.00   -15.1747)  ( 2.00    -1.2497)  ( 0.00     0.2017)
 P :1...2            ( 3.00    -0.8323)  ( 0.00     0.0719)
 D :1...1            ( 0.00     0.7940)
 F :1...1            ( 0.00     3.4887)

 CYCLE    4
  SDIIS (wt  0.000): -0.0612  0.1925  0.8687
 A-DIIS (wt  1.000):  0.0000  0.0259  0.9741
  DIIS coefficients:  0.0000  0.0259  0.9741
 SCF Error: norm([F,P])=      0.970371105527, max([F,P])=      0.641065486122
 orbitals (Q,E):
 ---------------
 S :1...3            ( 2.00   -13.4412)  ( 2.00    -0.4401)  ( 0.00     0.6963)
 P :1...2            ( 3.00    -0.0468)  ( 0.00     0.4437)
 D :1...1            ( 0.00     1.4306)
 F :1...1            ( 0.00     4.2280)

 CYCLE    5
  SDIIS (wt  0.000): -0.0222 -0.0718  0.4807  0.6133
 A-DIIS (wt  1.000):  0.0000  0.0000  0.4633  0.5367
  DIIS coefficients:  0.0000  0.0000  0.4633  0.5367
 SCF Error: norm([F,P])=      0.831034576935, max([F,P])=      0.578511378985
 orbitals (Q,E):
 ---------------
 S :1...3            ( 2.00   -14.1857)  ( 2.00    -0.7190)  ( 0.00     0.4998)
 P :1...2            ( 3.00    -0.2946)  ( 0.00     0.2748)
 D :1...1            ( 0.00     1.2103)
 F :1...1            ( 0.00     3.9682)

 CYCLE    6
  SDIIS (wt  0.696):  0.0027 -0.0052 -0.0171  0.0723  0.9473
 A-DIIS (wt  0.304):  0.0000  0.0000  0.0000  0.0000  1.0000
  DIIS coefficients:  0.0019 -0.0036 -0.0119  0.0503  0.9634
 SCF Error: norm([F,P])=      0.059655214985, max([F,P])=      0.031138717216
 orbitals (Q,E):
 ---------------
 S :1...3            ( 2.00   -14.1243)  ( 2.00    -0.6773)  ( 0.00     0.5219)
 P :1...2            ( 3.00    -0.2558)  ( 0.00     0.2921)
 D :1...1            ( 0.00     1.2456)
 F :1...1            ( 0.00     4.0096)

 CYCLE    7
  SDIIS (wt  0.824): -0.0002  0.0014  0.0138 -0.0266 -0.0370  1.0487
 A-DIIS (wt  0.176):  0.0000  0.0000  0.0000  0.0000  0.0360  0.9640
  DIIS coefficients: -0.0002  0.0011  0.0114 -0.0220 -0.0242  1.0338
 SCF Error: norm([F,P])=      0.027721651816, max([F,P])=      0.018404675135
 orbitals (Q,E):
 ---------------
 S :1...3            ( 2.00   -14.1511)  ( 2.00    -0.6888)  ( 0.00     0.5142)
 P :1...2            ( 3.00    -0.2669)  ( 0.00     0.2857)
 D :1...1            ( 0.00     1.2367)
 F :1...1            ( 0.00     3.9991)

 CYCLE    8
  SDIIS (wt  0.979): -0.0000  0.0002  0.0011 -0.0022 -0.0006  0.2099  0.7916
 A-DIIS (wt  0.021):  0.0000  0.0000  0.0000  0.0000  0.0000  0.0000  1.0000
  DIIS coefficients: -0.0000  0.0002  0.0011 -0.0021 -0.0006  0.2055  0.7960
 SCF Error: norm([F,P])=      0.004499232480, max([F,P])=      0.003081258258
 orbitals (Q,E):
 ---------------
 S :1...3            ( 2.00   -14.1473)  ( 2.00    -0.6873)  ( 0.00     0.5152)
 P :1...2            ( 3.00    -0.2655)  ( 0.00     0.2865)
 D :1...1            ( 0.00     1.2378)
 F :1...1            ( 0.00     4.0005)

 CYCLE    9
  SDIIS (wt  1.000):  0.0000 -0.0000 -0.0001  0.0001 -0.0002 -0.0094 -0.0232  1.0327
  DIIS coefficients:  0.0000 -0.0000 -0.0001  0.0001 -0.0002 -0.0094 -0.0232  1.0327
 SCF Error: norm([F,P])=      0.000019361449, max([F,P])=      0.000012105781
 orbitals (Q,E):
 ---------------
 S :1...3            ( 2.00   -14.1473)  ( 2.00    -0.6873)  ( 0.00     0.5152)
 P :1...2            ( 3.00    -0.2655)  ( 0.00     0.2865)
 D :1...1            ( 0.00     1.2378)
 F :1...1            ( 0.00     4.0005)

 CYCLE   10
  SDIIS (wt  1.000): -0.0000 -0.0000  0.0000  0.0000 -0.0001  0.0001  0.0232  0.9769
  DIIS coefficients: -0.0000 -0.0000  0.0000  0.0000 -0.0001  0.0001  0.0232  0.9769
 SCF Error: norm([F,P])=      0.000001838439, max([F,P])=      0.000001230955
 orbitals (Q,E):
 ---------------
 S :1...3            ( 2.00   -14.1473)  ( 2.00    -0.6873)  ( 0.00     0.5152)
 P :1...2            ( 3.00    -0.2655)  ( 0.00     0.2865)
 D :1...1            ( 0.00     1.2378)
 F :1...1            ( 0.00     4.0005)

 CYCLE   11
  SDIIS (wt  1.000): -0.0000 -0.0000 -0.0000 -0.0006 -0.0321  1.0328
  DIIS coefficients: -0.0000 -0.0000 -0.0000 -0.0006 -0.0321  1.0328
 SCF Error: norm([F,P])=      0.000000052960, max([F,P])=      0.000000032927
 orbitals (Q,E):
 ---------------
 S :1...3            ( 2.00   -14.1473)  ( 2.00    -0.6873)  ( 0.00     0.5152)
 P :1...2            ( 3.00    -0.2655)  ( 0.00     0.2865)
 D :1...1            ( 0.00     1.2378)
 F :1...1            ( 0.00     4.0005)

 CYCLE   12
  SDIIS (wt  1.000): -0.0000  0.0000 -0.0002  0.0076  0.9926
  DIIS coefficients: -0.0000  0.0000 -0.0002  0.0076  0.9926
 SCF Error: norm([F,P])=      0.000000000214, max([F,P])=      0.000000000118
 orbitals (Q,E):
 ---------------
 S :1...3            ( 2.00   -14.1473)  ( 2.00    -0.6873)  ( 0.00     0.5152)
 P :1...2            ( 3.00    -0.2655)  ( 0.00     0.2865)
 D :1...1            ( 0.00     1.2378)
 F :1...1            ( 0.00     4.0005)

 SCF CONVERGED

 CYCLE   13
1
 ***************************************************************************************************



                                                *******************
                                                *  R E S U L T S  *
                                                *******************
  
 *** Setting up for NEW gradients in Focky
 *** Using FIT density in Focky

 Orbital Energies, per Irrep and Spin:
 ======================================
                        Occup              E (au)              E (eV)       Diff (eV) with prev. cycle
                        -----      --------------------        ------       --------------------------
 S
               1        2.000     -0.14147275471391E+02      -384.967               8.94E-10
               2        2.000     -0.68732764310953E+00       -18.703               5.68E-10
               3        0.000      0.51515957710219E+00        14.018
               4        0.000      0.68959769444915E+01       187.649
               5        0.000      0.63979073432212E+02      1740.959
 P
               1        3.000     -0.26548379507191E+00        -7.224               5.44E-10
               2        0.000      0.28654429146964E+00         7.797
               3        0.000      0.32908032270942E+01        89.547
 D
               1        0.000      0.12378131244837E+01        33.683
 F
               1        0.000      0.40004783530592E+01       108.859


 Partially Occupied:
               1 P                -0.26548379507191E+00
  
 HOMO :        2 S                -0.68732764310953E+00
 LUMO :        2 P                 0.28654429146964E+00
  


 Orbital Energies, all Irreps
 ========================================

 Irrep        no.  (spin)   Occup              E (au)                E (eV)
 ---------------------------------------------------------------------------
 S             1             2.00       -0.14147275471391E+02      -384.9670
 S             2             2.00       -0.68732764310953E+00       -18.7031
 P             1             3.00       -0.26548379507191E+00        -7.2242
 P             2             0.00        0.28654429146964E+00         7.7973
 S             3             0.00        0.51515957710219E+00        14.0182
 D             1             0.00        0.12378131244837E+01        33.6826
 P             3             0.00        0.32908032270942E+01        89.5473
 F             1             0.00        0.40004783530592E+01       108.8586
 S             4             0.00        0.68959769444915E+01       187.6491
 S             5             0.00        0.63979073432212E+02      1740.9592


 All Electron Calculation, thus no Orbital Energies of the Core Orbitals are calculated



 =======================================
 M U L L I K E N   P O P U L A T I O N S
 =======================================
  
 The survey below gives for each atom:
 a) the total charge (Z minus electrons)
 b) the net spin polarization (nr of electrons spin-A minus spin-B)
 c) for each spin the atomic electron valence density (integrated) per L-value.

 Atom              Charge    Spin density          S         P         D         F
 ----              ------    ------------       ------    ------    ------    ------
 1 N              -0.0000                       4.0000    3.0000    0.0000    0.0000

 Populations of individual BAS functions
 ----------------------------------------
 1 N            0.5256  1.4646 -0.0480  1.1588  0.8990  0.1407  0.1407  0.1407  0.5661  0.5661
                0.5661  0.2932  0.2932  0.2932  0.0000  0.0000  0.0000  0.0000  0.0000  0.0000
                0.0000  0.0000  0.0000  0.0000  0.0000  0.0000  0.0000  0.0000  0.0000  0.0000

 Gross Charges per Atom (Z minus electrons)
 ==========================================
            -0.0000
 Net Total: -0.00000000



 =======================================================================
 Electrostatic potential at the Nuclei due to electrons and other nuclei
 =======================================================================
  
         Atom                  Potential
         ----                  ---------
     1)   N                  18.29008691
 
 
 ========================
 No memory problems found
 ========================
 
 Maximum number of active allocate calls:         447
 
 *******************************************************************************

                             A D F   E X I T
 NORMAL TERMINATION



 =================
 Timing Statistics
 =================
  
 Total Used :                     CPU=        0.48      System=        0.03     Elapsed=        0.57

 Calls  Section                     ( Mean, Percentage )
 ---------------------------------------------------------------------------------------------------
     3  ><      ................      0.00    0.21             0.00    0.00             0.00    0.14
     1  INIT    ................      0.01    1.66             0.02   45.71             0.08   13.93
     1  GEOMET  ................      0.00    1.04             0.00    8.57             0.01    1.49
     1  INPUTA  ................      0.00    0.41             0.00    0.00             0.00    0.27
     1  MAINSY  ................      0.00    0.83             0.00    5.71             0.01    1.07
     1  SYMFIT  ................      0.00    0.21             0.00    0.00             0.00    0.14
     1  CORORT  ................      0.00    0.00             0.00    0.00             0.00    0.05
     1  SYMORB  ................      0.00    0.00             0.00    2.86             0.00    0.12
     1  CLSMAT  ................      0.00    1.04             0.00    2.86             0.01    0.91
     1  ORTHON  ................      0.00    0.21             0.00    0.00             0.00    0.26
     1  GENPT   ................      0.01    2.90             0.00    2.86             0.01    2.57
     1  PTBAS   ................      0.00    0.62             0.00    0.00             0.00    0.60
    13  FOCKY   ................      0.03   75.98             0.00   11.43             0.03   64.80
    13  FOCKTR  ................      0.00    2.48             0.00    0.00             0.00    1.94
    13  SDIIS   ................      0.00    3.73             0.00   11.43             0.00    3.81
     1  COREPS  ................      0.02    4.14             0.00    2.86             0.02    3.68
     1  POPAN   ................      0.00    1.04             0.00    0.00             0.01    0.91
     1  DEBYE   ................      0.00    0.21             0.00    0.00             0.00    0.10
     1  EXIT PROCEDURE .........      0.02    3.31             0.00    5.71             0.02    3.22


 Currently Open Files (EXIT00)
 ====================

 Unit    Access Format  Status   Type       Ident (file)
 -------------------------------------------------------
   3      SEQ    FORM   TRANSP  NORMAL      LOGFILE
                                          ( logfile )


 Buffered I/O statistics
 =======================
 Memory available:                     67108864
 Number of records fitting in memory:     16131
 Input :   0.1% of                        27821  *4k bytes
 Output:  13.6% of                         1374  *4k bytes
 Records from serial files evicted:           0
                    others evicted:           0
 Hash table lookups:      71921 with          0 conflicts (  0.00%)

 ***************************************************************************************************
 (LOGFILE)
 <Apr18-2019> <21:55:48>  ADF development version  RunTime: Apr18-2019 21:55:48  Nodes: 1  Procs: 1
 <Apr18-2019> <21:55:48>  Hydrogen (TZ2P)
 <Apr18-2019> <21:55:48>  RunType   : CREATE
 <Apr18-2019> <21:55:48>  Net Charge: 0 (Nuclei minus Electrons)
 <Apr18-2019> <21:55:48>  Symmetry  : ATOM
  Coordinates
    Atom         X           Y           Z   (Angstrom)
    1.H         0.000000    0.000000    0.000000
 <Apr18-2019> <21:55:48>  >>>> CORORT
 <Apr18-2019> <21:55:48>  >>>> CLSMAT
 <Apr18-2019> <21:55:48>  >>>> ORTHON
 <Apr18-2019> <21:55:48>  >>>> GENPT
 <Apr18-2019> <21:55:48>  Block Length=  64
 <Apr18-2019> <21:55:48>  >>>> PTBAS
 <Apr18-2019> <21:55:48>  >>>> CYCLE
 <Apr18-2019> <21:55:48>              |Error|         MaxErr       Wt(A-DIIS)
 <Apr18-2019> <21:55:48>      1      0.00000000      0.00000000
 <Apr18-2019> <21:55:48>      2      0.03052616      0.02968253
 <Apr18-2019> <21:55:48>      3      0.00718306      0.00671215    100.0
 <Apr18-2019> <21:55:48>      4      0.00117509      0.00114306      0.1
 <Apr18-2019> <21:55:48>      5      0.00002753      0.00002354      0.0
 <Apr18-2019> <21:55:48>      6      0.00000151      0.00000129      0.0
 <Apr18-2019> <21:55:48>      7      0.00000000      0.00000000      0.0
 <Apr18-2019> <21:55:48>  SCF converged
 <Apr18-2019> <21:55:48>      8      0.00000000      0.00000000      0.0
 <Apr18-2019> <21:55:48>  >>>> POPAN
 <Apr18-2019> <21:55:48>  >>>> DEBYE
 <Apr18-2019> <21:55:48>  NORMAL TERMINATION
 <Apr18-2019> <21:55:48>  END
 <Apr18-2019> <21:55:48>  ADF development version  RunTime: Apr18-2019 21:55:48  Nodes: 1  Procs: 1
 <Apr18-2019> <21:55:48>  Nitrogen (TZ2P)
 <Apr18-2019> <21:55:48>  RunType   : CREATE
 <Apr18-2019> <21:55:48>  Net Charge: 0 (Nuclei minus Electrons)
 <Apr18-2019> <21:55:48>  Symmetry  : ATOM
  Coordinates
    Atom         X           Y           Z   (Angstrom)
    1.N         0.000000    0.000000    0.000000
 <Apr18-2019> <21:55:48>  >>>> CORORT
 <Apr18-2019> <21:55:48>  >>>> CLSMAT
 <Apr18-2019> <21:55:48>  >>>> ORTHON
 <Apr18-2019> <21:55:48>  >>>> GENPT
 <Apr18-2019> <21:55:48>  Block Length=  72
 <Apr18-2019> <21:55:48>  >>>> PTBAS
 <Apr18-2019> <21:55:48>  >>>> CYCLE
 <Apr18-2019> <21:55:49>              |Error|         MaxErr       Wt(A-DIIS)
 <Apr18-2019> <21:55:49>      1      0.00000000      0.00000000
 <Apr18-2019> <21:55:49>      2      6.45136737      4.21970309    100.0
 <Apr18-2019> <21:55:49>      3      2.48151769      1.95479559    100.0
 <Apr18-2019> <21:55:49>      4      0.97037111      0.64106549    100.0
 <Apr18-2019> <21:55:49>      5      0.83103458      0.57851138    100.0
 <Apr18-2019> <21:55:49>      6      0.05965521      0.03113872     30.4
 <Apr18-2019> <21:55:49>      7      0.02772165      0.01840468     17.6
 <Apr18-2019> <21:55:49>      8      0.00449923      0.00308126      2.1
 <Apr18-2019> <21:55:49>      9      0.00001936      0.00001211      0.0
 <Apr18-2019> <21:55:49>     10      0.00000184      0.00000123      0.0
 <Apr18-2019> <21:55:49>     11      0.00000005      0.00000003      0.0
 <Apr18-2019> <21:55:49>     12      0.00000000      0.00000000      0.0
 <Apr18-2019> <21:55:49>  SCF converged
 <Apr18-2019> <21:55:49>     13      0.00000000      0.00000000      0.0
 <Apr18-2019> <21:55:49>  >>>> POPAN
 <Apr18-2019> <21:55:49>  >>>> DEBYE
 <Apr18-2019> <21:55:49>  NORMAL TERMINATION
 <Apr18-2019> <21:55:49>  END


 Parallel Execution: Process Information
 ==============================================================================
 Rank   Node Name                              NodeID   MyNodeRank  NodeMaster
    0   BAZIS-cn076                               0          0          0
    1   BAZIS-cn076                               0          1         -1
    2   BAZIS-cn076                               0          2         -1
    3   BAZIS-cn076                               0          3         -1
    4   BAZIS-cn076                               0          4         -1
    5   BAZIS-cn076                               0          5         -1
    6   BAZIS-cn076                               0          6         -1
    7   BAZIS-cn076                               0          7         -1
    8   BAZIS-cn076                               0          8         -1
    9   BAZIS-cn076                               0          9         -1
   10   BAZIS-cn076                               0         10         -1
   11   BAZIS-cn076                               0         11         -1
 ==============================================================================


May use up to 30736MB of RAM as shared memory on node 0


XC
  GGA BP86
END

ANALYTICALFREQ
END

SCF
  iterations 250
END

SYMMETRY nosym
CHARGE 0

ZLMFIT
  Quality normal
END

BECKEGRID
  Quality good
End

ATOMS
5.H         1.254833    0.271086   -0.275011
6.N         0.787867   -0.626917   -0.446919
7.H         1.252342   -1.096767   -1.232857
8.H         0.878868   -1.213758    0.390614
END

Fragments
H t21.H
N t21.N
End
end input

 *******************************************************************************
 *                                                                             *
 *  -------------------------------------                                      *
 *   Amsterdam Density Functional  (ADF)         development version           *
 *  -------------------------------------                                      *
 *                                               r61132 2017-09-08             *
 *                                                                             *
 *                                                                             *
 *                              =================                              *
 *                              |               |                              *
 *                              |     A D F     |                              *
 *                              |               |                              *
 *                              =================                              *
 *                                                                             *
 *                                                                             *
 *   Online information and documentation:  https://www.scm.com/support/       *
 *   E-mail:  support@scm.com   info@scm.com                                   *
 *                                                                             *
 *   Scientific publications using ADF results must be properly referenced     *
 *   See the User Manuals (or the web site) for recommended citations          *
 *   The terms and conditions of the End User License Agreement apply to       *
 *   the use of ADF, https://www.scm.com/license-terms/                        *
 *                                                                             *
 **********************  x86_64_linux_intel / intelmpi  ************************
 
 Licensed to: VU/FEW (+ SARA) / ALGEMEEN / Amsterdam / THE NETHERLANDS
 SCM User ID: u7668
  
 ADF development version  RunTime: Apr18-2019 21:55:49  Nodes: 1  Procs: 12

 Temporary files are created in /local/datastore0/tcst25/186807/kid_0.p0SR6B


Communication costs MPI_COMM_WORLD:      2.626 usec per message,   0.0133 usec per 8-byte item
Communication costs for intra-node:      2.667 usec per message,   0.0133 usec per 8-byte item

 *** (NO TITLE) ***



 ===========================
 A T T A C H E D   F I L E S
 ===========================
  



 ===============================
 M O D E L   P A R A M E T E R S
 ===============================
  
 DENSITY FUNCTIONAL POTENTIAL (scf)
    LDA:                               VWN                                      
    Gradient Corrections:              Becke88 Perdew86                        == Not Default ==

 SPIN  (restricted / unrestr.)
    Molecule:                          Restricted                               
    Fragments:                         Restricted                               

 OTHER ASPECTS
    Relativistic Corrections:          ---                                      

    Nuclear Charge Density Model:      Point Charge Nuclei                      
    Core Treatment:                    Frozen Orbital(s)                        

    Hyperfine or Zeeman Interaction:   ---                                      


 Fragment File(s)
 ----------------
 H:
         file : t21.H
         jobid: ADF development version  RunTime: Apr18-2019 21:55:48  Nodes: 1  Procs: 1
         title: Hydrogen (TZ2P)
 N:
         file : t21.N
         jobid: ADF development version  RunTime: Apr18-2019 21:55:48  Nodes: 1  Procs: 1
         title: Nitrogen (TZ2P)



                                        ************************************
                                        *  R U N   T Y P E : SINGLE POINT  *
                                        ************************************
  



 ===============
 G E O M E T R Y  ***  3D  Molecule  ***
 ===============
  

 ATOMS
 =====                            X Y Z                    CHARGE
                                (Angstrom)             Nucl     +Core       At.Mass
                       --------------------------    ----------------       -------
    1  H               1.2548    0.2711   -0.2750      1.00      1.00        1.0078
    2  N               0.7879   -0.6269   -0.4469      7.00      7.00       14.0031
    3  H               1.2523   -1.0968   -1.2329      1.00      1.00        1.0078
    4  H               0.8789   -1.2138    0.3906      1.00      1.00        1.0078


 FRAGMENTS
 =========                                     Atoms in this Fragment     Cart. coord.s (Angstrom)
                                               -------------------------------------------------------
    1  H                                                 1  H            1.2548    0.2711   -0.2750
    2  H                                                 3  H            1.2523   -1.0968   -1.2329
    3  H                                                 4  H            0.8789   -1.2138    0.3906
    4  N                                                 2  N            0.7879   -0.6269   -0.4469


 Interatomic Distance Matrix (Angstrom)
 --------------------------------------

   1)     0.000
   2)     1.027   0.000
   3)     1.670   1.027   0.000
   4)     1.670   1.027   1.670   0.000

 Min. Distance =    1.0267
 Max. Distance =    1.6701



 =====================================
 S Y M M E T R Y ,   E L E C T R O N S
 =====================================
  
 Symmetry: NOSYM

 Irreducible Representations, including subspecies
 -------------------------------------------------
 A


 Configuration of Valence Electrons
 ==================================
 ( determined in the SCF procedure )

 Total:   10

 Net Charge: 0 (Nuclei minus Electrons)

 Aufbau principle for MO occupations will be applied through SCF cycle no.     125
 Thereafter, the program will assign electrons to MOs that are spatially
 similar to the occupied MOs in a "reference" cycle ("KeepOrbitals").
 The reference cycle is always the PREVIOUS cycle: it will evolve with
 the SCF procedure.
1
 ***************************************************************************************************



                                      ****************************************
                                      *  B U I L D : (Fragments, Functions)  *
                                      ****************************************
  



 =======
 S F O s  ***  (Symmetrized Fragment Orbitals)  ***
 =======
  
 SFOs are linear combinations of (valence) Fragment Orbitals (FOs), such that the SFOs transform as the
 irreducible representations of the (molecular) symmetry group. Each SFO is therefore characterized by
 an irrep of the molecule and by a few (or only one) generating FOs.
 The SFOs constitute a symmetry-adapted basis for the Fock matrix. The MO eigenvector coefficients in
 this basis provide a direct interpretation of the MOs in terms of Frontier Orbital Theory.

 The SFOs are combined with auxiliary Core Functions (CFs) to ensure orthogonalization on the (frozen)
 Core Orbitals (COs). The Core-orthogonalized SFOs (CSFOs) constitute the true Fock basis.

 The FOs, and hence also the (C)SFOs are combinations of the elementary basis functions (BAS). The basis
 functions that participate in the description of the SFOs depend on the irrep. The indices of the
 involved functions are printed below for each irrep.
 (The complete list of primitive basis functions is printed in another section)

 Total nr. of (C)SFOs (summation over all irreps) :    59

 NOTE: a (C)SFO that is defined as a combination of more than one FO is usually NOT normalized.



                                       === A ===
 Nr. of SFOs :   59
 Cartesian basis functions that participate in this irrep (total number =    66) :
      1     2     3     4     5     6     7     8     9    10
     11    12    13    14    15    16    17    18    19    20
     21    22    23    24    25    26    27    28    29    30
     31    32    33    34    35    36    37    38    39    40
     41    42    45    48    43    46    49    44    47    50
     51    52    53    54    55    56    57    58    59    60
     61    62    63    64    65    66

    SFO  (index         Fragment          Generating    Expansion in Fragment Orbitals
  indx  incl.CFs)   Occup   Orb.Energy   FragmentType  Coeff.   Orbital     on Fragment
 --------------------------------------------------------------------------------------
     1       1      1.000      -0.244 au  H             1.00      1 S               1
                        (      -6.626 eV)
     2       2       --         0.093 au  H             1.00      2 S               1
                        (       2.537 eV)
     3       3       --         1.515 au  H             1.00      3 S               1
                        (      41.236 eV)
     4       4       --         0.400 au  H             1.00      1 P:x             1
                        (      10.872 eV)
     5       5       --         0.400 au  H             1.00      1 P:y             1
                        (      10.872 eV)
     6       6       --         0.400 au  H             1.00      1 P:z             1
                        (      10.872 eV)
     7       7       --         2.561 au  H             1.00      1 D:z2            1
                        (      69.689 eV)
     8       8       --         2.561 au  H             1.00      1 D:x2-y2         1
                        (      69.689 eV)
     9       9       --         2.561 au  H             1.00      1 D:xy            1
                        (      69.689 eV)
    10      10       --         2.561 au  H             1.00      1 D:xz            1
                        (      69.689 eV)
    11      11       --         2.561 au  H             1.00      1 D:yz            1
                        (      69.689 eV)
    12      12      1.000      -0.244 au  H             1.00      1 S               2
                        (      -6.626 eV)
    13      13       --         0.093 au  H             1.00      2 S               2
                        (       2.537 eV)
    14      14       --         1.515 au  H             1.00      3 S               2
                        (      41.236 eV)
    15      15       --         0.400 au  H             1.00      1 P:x             2
                        (      10.872 eV)
    16      16       --         0.400 au  H             1.00      1 P:y             2
                        (      10.872 eV)
    17      17       --         0.400 au  H             1.00      1 P:z             2
                        (      10.872 eV)
    18      18       --         2.561 au  H             1.00      1 D:z2            2
                        (      69.689 eV)
    19      19       --         2.561 au  H             1.00      1 D:x2-y2         2
                        (      69.689 eV)
    20      20       --         2.561 au  H             1.00      1 D:xy            2
                        (      69.689 eV)
    21      21       --         2.561 au  H             1.00      1 D:xz            2
                        (      69.689 eV)
    22      22       --         2.561 au  H             1.00      1 D:yz            2
                        (      69.689 eV)
    23      23      1.000      -0.244 au  H             1.00      1 S               3
                        (      -6.626 eV)
    24      24       --         0.093 au  H             1.00      2 S               3
                        (       2.537 eV)
    25      25       --         1.515 au  H             1.00      3 S               3
                        (      41.236 eV)
    26      26       --         0.400 au  H             1.00      1 P:x             3
                        (      10.872 eV)
    27      27       --         0.400 au  H             1.00      1 P:y             3
                        (      10.872 eV)
    28      28       --         0.400 au  H             1.00      1 P:z             3
                        (      10.872 eV)
    29      29       --         2.561 au  H             1.00      1 D:z2            3
                        (      69.689 eV)
    30      30       --         2.561 au  H             1.00      1 D:x2-y2         3
                        (      69.689 eV)
    31      31       --         2.561 au  H             1.00      1 D:xy            3
                        (      69.689 eV)
    32      32       --         2.561 au  H             1.00      1 D:xz            3
                        (      69.689 eV)
    33      33       --         2.561 au  H             1.00      1 D:yz            3
                        (      69.689 eV)
    34      34      2.000     -14.147 au  N             1.00      1 S               4
                        (    -384.967 eV)
    35      35      2.000      -0.687 au  N             1.00      2 S               4
                        (     -18.703 eV)
    36      36       --         0.515 au  N             1.00      3 S               4
                        (      14.018 eV)
    37      37       --         6.896 au  N             1.00      4 S               4
                        (     187.649 eV)
    38      38       --        63.979 au  N             1.00      5 S               4
                        (    1740.959 eV)
    39      39      1.000      -0.265 au  N             1.00      1 P:x             4
                        (      -7.224 eV)
    40      40       --         0.287 au  N             1.00      2 P:x             4
                        (       7.797 eV)
    41      41       --         3.291 au  N             1.00      3 P:x             4
                        (      89.547 eV)
    42      42      1.000      -0.265 au  N             1.00      1 P:y             4
                        (      -7.224 eV)
    43      43       --         0.287 au  N             1.00      2 P:y             4
                        (       7.797 eV)
    44      44       --         3.291 au  N             1.00      3 P:y             4
                        (      89.547 eV)
    45      45      1.000      -0.265 au  N             1.00      1 P:z             4
                        (      -7.224 eV)
    46      46       --         0.287 au  N             1.00      2 P:z             4
                        (       7.797 eV)
    47      47       --         3.291 au  N             1.00      3 P:z             4
                        (      89.547 eV)
    48      48       --         1.238 au  N             1.00      1 D:z2            4
                        (      33.683 eV)
    49      49       --         1.238 au  N             1.00      1 D:x2-y2         4
                        (      33.683 eV)
    50      50       --         1.238 au  N             1.00      1 D:xy            4
                        (      33.683 eV)
    51      51       --         1.238 au  N             1.00      1 D:xz            4
                        (      33.683 eV)
    52      52       --         1.238 au  N             1.00      1 D:yz            4
                        (      33.683 eV)
    53      53       --         4.000 au  N             1.00      1 F:z3            4
                        (     108.859 eV)
    54      54       --         4.000 au  N             1.00      1 F:z             4
                        (     108.859 eV)
    55      55       --         4.000 au  N             1.00      1 F:xyz           4
                        (     108.859 eV)
    56      56       --         4.000 au  N             1.00      1 F:z2x           4
                        (     108.859 eV)
    57      57       --         4.000 au  N             1.00      1 F:z2y           4
                        (     108.859 eV)
    58      58       --         4.000 au  N             1.00      1 F:x             4
                        (     108.859 eV)
    59      59       --         4.000 au  N             1.00      1 F:y             4
                        (     108.859 eV)



 ================================
 (Slater-type)  F U N C T I O N S  ***  (Basis and Fit)  ***
 ================================
  

 Atom Type    1  (H)
 ==============

 Valence Basis Sets:   5
 -----------------------
   1 S    0.690000
   1 S    0.920000
   1 S    1.580000
   2 P    1.250000
   3 D    2.500000

 Atom Type    2  (N)
 ==============

 Valence Basis Sets:  10
 -----------------------
   1 S    8.740000
   1 S    5.900000
   2 S    5.150000
   2 S    2.500000
   2 S    1.500000
   2 P    3.680000
   2 P    1.880000
   2 P    1.000000
   3 D    2.200000
   4 F    3.300000


 BAS: List of all Elementary Cartesian Basis Functions
 =====================================================

 The numbering in the list below (to the right of the function characteristics) is referred
 to in print-outs of MO eigenvectors and Mulliken populations in the BAS representation
 (as contrasted to the SFO representation).

 Notes:
 1. The functions are characterized by a polynomial prefactor (powers of x,y,z and r) and
    an exponential decay factor alpha.
 2. Since the basis sets are specific for an atom TYPE, the individual functions occur on
    all atoms of that type.
 3. The word 'Core' in the left margin signals that it is a Core Function (CF) : not a
    degree of freedom in the valence set, but only used to ensure orthogonalization of
    the other valence basis functions on the frozen Core Orbitals.


 (power of) X  Y  Z  R     Alpha  on Atom
            ==========     =====     ==========

 H                                    1    2    3
                                  ---------------------------------------------------------------------------
            0  0  0  0     0.690      1   13   25
            0  0  0  0     0.920      2   14   26
            0  0  0  0     1.580      3   15   27
            1  0  0  0     1.250      4   16   28
            0  1  0  0     1.250      5   17   29
            0  0  1  0     1.250      6   18   30
            2  0  0  0     2.500      7   19   31
            1  1  0  0     2.500      8   20   32
            1  0  1  0     2.500      9   21   33
            0  2  0  0     2.500     10   22   34
            0  1  1  0     2.500     11   23   35
            0  0  2  0     2.500     12   24   36

 N                                    4
                                  ---------------------------------------------------------------------------
            0  0  0  0     8.740     37
            0  0  0  0     5.900     38
            0  0  0  1     5.150     39
            0  0  0  1     2.500     40
            0  0  0  1     1.500     41
            1  0  0  0     3.680     42
            0  1  0  0     3.680     43
            0  0  1  0     3.680     44
            1  0  0  0     1.880     45
            0  1  0  0     1.880     46
            0  0  1  0     1.880     47
            1  0  0  0     1.000     48
            0  1  0  0     1.000     49
            0  0  1  0     1.000     50
            2  0  0  0     2.200     51
            1  1  0  0     2.200     52
            1  0  1  0     2.200     53
            0  2  0  0     2.200     54
            0  1  1  0     2.200     55
            0  0  2  0     2.200     56
            3  0  0  0     3.300     57
            2  1  0  0     3.300     58
            2  0  1  0     3.300     59
            1  2  0  0     3.300     60
            1  1  1  0     3.300     61
            1  0  2  0     3.300     62
            0  3  0  0     3.300     63
            0  2  1  0     3.300     64
            0  1  2  0     3.300     65
            0  0  3  0     3.300     66

 Total number of charge fitting functions (nprimf)       234
 Total number of Cartesian basis functions (naos)         66
 Total number of Cartesian core functions  (ncos)          0

1
 ***************************************************************************************************



                                              ***********************
                                              *  T E C H N I C A L  *
                                              ***********************
  



 =============================================================
 P A R A L L E L I Z A T I O N  and  V E C T O R I Z A T I O N
 =============================================================
  
 Nr of parallel processes:                               12
 Maximum vector length in NumInt loops:                 128

 IO buffersize (Mb):                                     64.000000



 =====================
 S C F   U P D A T E S
 =====================
  
 Max. nr. of cycles:                               250
 Convergence criterion:                              0.0000010000
   secondary criterion:                              0.0010000000

 Mix parameter (when DIIS does not apply):           0.2000000000
 Mixed ADIIS+DIIS will be used
    Max number of expansion vectors:                10
    Pure ADIIS when Max([F,P]) is above              0.1000000000
    Pure DIIS when Max([F,P]) is below               0.0010000000
 Automatic ElectronSmearing (in case of problematic SCF convergence) disabled



 =================
 P R E C I S I O N  ***  (General: NumInt, NeglectFunctionTails, ...)  ***
 =================
  

 NumInt:           Target precision:                 6.0000000000
 -------           Initial precision:                6.0000000000
                   Min. precision (optimization):    6.0000000000

 Neglect Functions:          Basis functions:        0.1000000000E-07
 ------------------          Fit functions:          0.1000000000E-07



 ===========================
 L I N E A R   S C A L I N G
 ===========================
  

 Cut-off radii density fit:                        0.1000000000E-09
 Overlap cut-off criterion AO matrix elements:     0.1000000000E-07
 Cut-offs for Coulomb potential and fitted density:0.1000000000E-09
 Cut-off criterion for Coulomb multipole terms:    0.1000000000E-09
 Progressive Convergence parameter:                 0.000000000    
1
 ***************************************************************************************************



                                            ***************************
                                            *  C O M P U T A T I O N  *
                                            ***************************
  

 Number of elements of the density matrix on this node (used, total):       465      2211



 ===========================================
 Numerical Integration : Fuzzy Cells (Becke)
 ===========================================
  
 Becke grid quality: GOOD           
  
 Lebedev angular grid order:             min:  11 max:  31
 Nr. of radial points:                   min:  54 max:  61

 Total nr. of points:      48376
 Nr. of blocks:              378
 Block length:               128
 Nr. of dummy points:          8


 Test of Precision of the Numerical Integration Grid
 ===================================================

 Integral of the Total Core Density:                   0.00000000000000



 ========================
 Density Fitting (zlmFit)
 ========================
  
 ZlmFit Fit Quality: NORMAL         
  
 Max L-expansion:                        min:   6 max:   7
 Nr. of radial interpolation points:     min:  39 max:  48



 =====
 S C F  ***  ScaSCF  ***
 =====
  
 Initial density matrix is calculated as sum of fragments

 CYCLE    1
 SCF Error: norm([F,P])=      2.494945358288, max([F,P])=      1.226136430023
 orbitals (Q,E):
 ---------------
 A :1...15           ( 2.00   -14.2814)  ( 2.00    -0.9707)  ( 2.00    -0.5959)  ( 2.00    -0.5958)
                     ( 2.00    -0.4196)  ( 0.00    -0.0696)  ( 0.00    -0.0030)  ( 0.00    -0.0030)
                     ( 0.00     0.1239)  ( 0.00     0.1240)  ( 0.00     0.1684)  ( 0.00     0.1858)
                     ( 0.00     0.3308)  ( 0.00     0.3308)  ( 0.00     0.3612)

 CYCLE    2
  SDIIS (wt  0.000):  0.1310  0.8690
 A-DIIS (wt  1.000):  0.6933  0.3067
  DIIS coefficients:  0.6933  0.3067
 SCF Error: norm([F,P])=      0.861666143467, max([F,P])=      0.273848210773
 orbitals (Q,E):
 ---------------
 A :1...6            ( 2.00   -14.0091)  ( 2.00    -0.8406)  ( 2.00    -0.4814)  ( 2.00    -0.4813)
                     ( 2.00    -0.2852)  ( 0.00    -0.0348)

 CYCLE    3
  SDIIS (wt  0.000):  0.0092 -0.1523  1.1431
 A-DIIS (wt  1.000):  0.1871  0.0000  0.8129
  DIIS coefficients:  0.1871  0.0000  0.8129
 SCF Error: norm([F,P])=      0.144564508381, max([F,P])=      0.054483030371
 orbitals (Q,E):
 ---------------
 A :1...6            ( 2.00   -13.9599)  ( 2.00    -0.7733)  ( 2.00    -0.4194)  ( 2.00    -0.4194)
                     ( 2.00    -0.2240)  ( 0.00    -0.0120)

 CYCLE    4
  SDIIS (wt  0.818):  0.1024 -0.1843  1.0819
 A-DIIS (wt  0.182):  0.0000  0.0426  0.9574
  DIIS coefficients:  0.0838 -0.1431  1.0593
 SCF Error: norm([F,P])=      0.062311621245, max([F,P])=      0.018977925081
 orbitals (Q,E):
 ---------------
 A :1...6            ( 2.00   -13.9900)  ( 2.00    -0.7756)  ( 2.00    -0.4200)  ( 2.00    -0.4200)
                     ( 2.00    -0.2269)  ( 0.00    -0.0111)

 CYCLE    5
  SDIIS (wt  0.962):  0.0080 -0.0345  0.2343  0.7922
 A-DIIS (wt  0.038):  0.0000  0.0000  0.0313  0.9687
  DIIS coefficients:  0.0077 -0.0332  0.2267  0.7988
 SCF Error: norm([F,P])=      0.014802733524, max([F,P])=      0.004716259016
 orbitals (Q,E):
 ---------------
 A :1...6            ( 2.00   -13.9838)  ( 2.00    -0.7737)  ( 2.00    -0.4187)  ( 2.00    -0.4186)
                     ( 2.00    -0.2252)  ( 0.00    -0.0109)

 CYCLE    6
  SDIIS (wt  1.000):  0.0000  0.0012 -0.0038  0.0630  0.9396
  DIIS coefficients:  0.0000  0.0012 -0.0038  0.0630  0.9396
 SCF Error: norm([F,P])=      0.001408653936, max([F,P])=      0.000438555003
 orbitals (Q,E):
 ---------------
 A :1...6            ( 2.00   -13.9842)  ( 2.00    -0.7740)  ( 2.00    -0.4189)  ( 2.00    -0.4188)
                     ( 2.00    -0.2254)  ( 0.00    -0.0110)

 CYCLE    7
  SDIIS (wt  1.000):  0.0001  0.0004 -0.0019  0.0063  0.2075  0.7877
  DIIS coefficients:  0.0001  0.0004 -0.0019  0.0063  0.2075  0.7877
 SCF Error: norm([F,P])=      0.000046605077, max([F,P])=      0.000016259733
 orbitals (Q,E):
 ---------------
 A :1...6            ( 2.00   -13.9842)  ( 2.00    -0.7740)  ( 2.00    -0.4189)  ( 2.00    -0.4188)
                     ( 2.00    -0.2254)  ( 0.00    -0.0110)

 CYCLE    8
  SDIIS (wt  1.000): -0.0000  0.0000 -0.0002  0.0001  0.0123  0.1668  0.8209
[...]
    2       2          2       0.28294238D-02
    2       2          3       0.83902429D-03
    2       2          4       0.40455240D-04
    2       2          5       0.10413916D-04
    2       2          6       0.16368360D-05
*** CPKS converged.
----------------------------------------------
    2       3          1       0.22145840D-01
    2       3          2       0.34147174D-02
    2       3          3       0.85320946D-03
    2       3          4       0.53135741D-04
    2       3          5       0.13111779D-04
    2       3          6       0.17571895D-05
*** CPKS converged.
----------------------------------------------

====================  end of solving CPKS equations  ====================

 ***************************************************************************************************



                                     ******************************************
                                     *  F R E Q U E N C Y    A N A L Y S I S  *
                                     ******************************************
  


 Atomic Masses:
 ---------------
    1. H               1.00782500
    2. N              14.00307400
    3. H               1.00782500
    4. H               1.00782500



 ======================================
 Normal Modes in Symmetry Displacements  ***  (cartesians, not mass-weighted)  ***
 ======================================
  


                                       === A ===

 Symmetry Displacements


                          1                             2                             3
              ------------------------      ------------------------      ------------------------
    1.H          0.670   0.326  -0.012         0.000   0.847   0.087         0.000   0.000   0.741
    2.N         -0.093  -0.048  -0.008         0.038  -0.033   0.004        -0.010  -0.006  -0.067
    3.H          0.370   0.256   0.084        -0.275  -0.209  -0.076        -0.155  -0.295   0.020
    4.H          0.254   0.082   0.045        -0.259  -0.185  -0.070         0.298   0.385   0.173


                          4                             5                             6
              ------------------------      ------------------------      ------------------------
    1.H          0.000   0.000   0.000         0.000   0.000   0.000         0.000   0.000   0.000
    2.N         -0.041   0.052   0.048         0.023  -0.053   0.020        -0.006   0.040  -0.056
    3.H          0.460  -0.575  -0.557         0.000   0.325  -0.652         0.000   0.000   0.000
    4.H          0.110  -0.150  -0.110        -0.320   0.406   0.378         0.085  -0.550   0.785


 Frequencies and Normal Modes
 ============================

             1           2           3           4           5           6

          924.9320   1619.3978   1619.5339   3315.5892   3451.3938   3451.8122
        ----------  ----------  ----------  ----------  ----------  ----------
   1    0.68488669  0.39077533 -0.01686909 -0.32839629  0.04101182 -0.51808705
   2   -0.54942597 -0.26137034 -0.15334716 -0.48471352  0.03877658 -0.60815334
   3    0.19474631 -0.50993917  0.82723615 -0.06705396 -0.02010203 -0.11320755
   4    0.18425704 -0.22875345 -0.19495317 -0.52583775 -0.68721381  0.35629525
   5   -0.39365491  0.68275308  0.50377457 -0.24161444 -0.23229637  0.11294283
   6    0.04712051 -0.02150156  0.00921354 -0.56376375  0.68570102  0.45740244


 Intensities
 ===========

               Frequency       Dipole Strength        Absorption Intensity (degeneracy not counted)
                 cm-1           1e-40 esu2 cm2          km/mole
              ----------          ----------          ----------
              924.931982          661.721402          153.413313
             1619.397773           48.607639           19.730411
             1619.533925           48.744926           19.787801
             3315.589159            2.972859            2.470661
             3451.393778            6.017701            5.205988
             3451.812233            6.022735            5.210975



 Zero-Point Energy :      0.032766 a.u.
 ===================      0.891611 eV
                                                   hartree              eV         kcal/mol           kJ/mol
                                      --------------------     -----------       ----------      -----------
              Bond Energy:              -0.711118239972414        -19.3505          -446.23         -1867.04
              Zero-Point Energy:         0.032766108688633          0.8916            20.56            86.03
              Enthalpy (T=0K):          -0.678352131283780        -18.4589          -425.67         -1781.01



 ===========================
 Vibrations and Normal Modes  ***  (cartesian coordinates, NOT mass-weighted)  ***
 ===========================
  
 The headers on the normal mode eigenvectors below give the Frequency in cm-1
 (a negative value means an imaginary frequency, no output for (almost-)zero frequencies)


                       924.932                      1619.398                      1619.534
              ------------------------      ------------------------      ------------------------
    1.H          0.500  -0.264   0.096         0.271  -0.097  -0.419        -0.012  -0.140   0.620
    2.N         -0.113   0.018  -0.025        -0.017  -0.057   0.035         0.007  -0.037  -0.058
    3.H          0.500  -0.001   0.280         0.197   0.682  -0.285        -0.188   0.061  -0.200
    4.H          0.572   0.021  -0.032        -0.238   0.215   0.221         0.103   0.594   0.385


                      3315.589                      3451.394                      3451.812
              ------------------------      ------------------------      ------------------------
    1.H         -0.223  -0.523  -0.089         0.029   0.048  -0.013         0.363   0.715   0.136
    2.N          0.032  -0.005   0.007         0.017   0.000  -0.078        -0.012  -0.079  -0.003
    3.H         -0.222   0.264   0.463        -0.322   0.343   0.558        -0.164   0.147   0.284
    4.H         -0.007   0.332  -0.473         0.054  -0.397   0.545        -0.036   0.243  -0.379




 List of All Frequencies:


 Intensities
 ===========

               Frequency       Dipole Strength        Absorption Intensity (degeneracy not counted)
                 cm-1           1e-40 esu2 cm2          km/mole
              ----------          ----------          ----------
              924.931982          661.721402          153.413313
             1619.397773           48.607639           19.730411
             1619.533925           48.744926           19.787801
             3315.589159            2.972859            2.470661
             3451.393778            6.017701            5.205988
             3451.812233            6.022735            5.210975



 ============================
 Statistical Thermal Analysis  ***  ideal gas assumed  ***
 ============================
  
 Pressure:                  1.000000 atm.
 Temperature:             298.150000 K



 Moments of Inertia (and direction vectors)
 ==========================================

           6.1234          6.1248         10.0370
 ------------------------------------------------
           0.2504         -0.0667          0.9658
           0.7495          0.6449         -0.1498
          -0.6129          0.7614          0.2115


 The rotational contribution to the molecular entropy includes
 a term, dependent on the symmetry number sigma. The results 
 reported below were computed using sigma = 3, determined from
 the point group symmetry of the input geometry (C(3V)). 
 If this is not the correct symmetry, please contact SCM to report a bug.
 Contributions from frequencies below 20 1/cm are not included in
 the vibrational sums. Their contributions, if any, are reported separately.


     Temp                                                       Transl     Rotat    Vibrat     Total
     ----                                                       ------     -----    ------     -----

     298.15   Entropy (cal/mole-K):                             34.441    11.513     0.141    46.094
              Internal Energy (Kcal/mole):                       0.889     0.889    20.596    22.373
              Constant Volume Heat Capacity (cal/mole-K):        2.981     2.981     0.565     6.527

              Summary of energy terms
                                                   hartree              eV         kcal/mol           kJ/mol
                                      --------------------     -----------       ----------      -----------
              Bond Energy:              -0.711118239972414        -19.3505          -446.23         -1867.04
              Internal Energy:           0.035653755240912          0.9702            22.37            93.61
              pV/n = RT:                 0.000944186013486          0.0257             0.59             2.48
              Enthalpy H:               -0.674520298718016        -18.3546          -423.27         -1770.95
              -T*S:                     -0.021900730768691         -0.5959           -13.74           -57.50
              Gibbs free energy:        -0.696421029486706        -18.9506          -437.01         -1828.45
 

 ***************************************************************************************************
 


====================================================================
*** DONE CALCULATING ANALYTICAL SECOND DERIVATIVES OF THE ENERGY ***
====================================================================

 
 
 ========================
 No memory problems found
 ========================
 
 Maximum number of active allocate calls:         993
 
 *******************************************************************************

                             A D F   E X I T
 NORMAL TERMINATION



 =================
 Timing Statistics
 =================
  
 Total Used :                     CPU=        7.99      System=        0.34     Elapsed=        8.38

 Calls  Section                     ( Mean, Percentage )
 ---------------------------------------------------------------------------------------------------
     3  ><      ................      0.00    0.01             0.00    0.00             0.00    0.01
     1  INIT    ................      0.46    5.79             0.02    4.97             0.48    5.73
     1  GEOMET  ................      0.03    0.34             0.01    1.75             0.03    0.39
     1  FRAGM   ................      0.01    0.09             0.01    2.63             0.02    0.20
     1  INPUTA  ................      0.00    0.01             0.00    0.00             0.00    0.00
     1  ATDEN   ................      0.00    0.06             0.00    0.29             0.01    0.07
     1  MAINSY  ................      0.01    0.10             0.00    1.17             0.01    0.14
     1  SYMFIT  ................      0.00    0.03             0.00    0.00             0.00    0.02
     1  CORORT  ................      0.00    0.00             0.00    0.00             0.00    0.00
     1  SYMORB  ................      0.00    0.05             0.00    0.00             0.00    0.04
     1  CLSMAT  ................      0.01    0.11             0.00    0.00             0.01    0.12
     1  ORTHON  ................      0.00    0.05             0.00    0.29             0.00    0.06
     1  GENPT   ................      0.05    0.66             0.00    1.17             0.06    0.68
     1  PTBAS   ................      0.01    0.19             0.00    0.29             0.02    0.19
    10  FOCKY   ................      0.08    9.56             0.00    3.22             0.08    9.23
    10  FOCKTR  ................      0.00    0.19             0.00    0.58             0.00    0.18
    10  SDIIS   ................      0.00    0.18             0.00    0.29             0.00    0.26
     1  COREPS  ................      0.07    0.84             0.00    0.00             0.07    0.80
     1  TOTEN   ................      0.18    2.23             0.00    1.17             0.18    2.17
     1  POPAN   ................      0.00    0.01             0.00    0.58             0.00    0.04
     1  DEBYE   ................      0.00    0.03             0.00    0.29             0.00    0.03
     1  INPUTE  ................      0.00    0.00             0.00    0.00             0.00    0.00
     1  SYMORE  ................      0.00    0.01             0.00    0.00             0.00    0.01
     1  METS    ................      0.00    0.01             0.00    0.00             0.00    0.01
     1  CETS    ................      0.00    0.04             0.00    0.00             0.00    0.04
     2  ELNRGY  ................      0.03    0.73             0.00    1.17             0.03    0.74
     1  POPUL   ................      0.01    0.08             0.00    0.58             0.01    0.11
     1  ENGRAD  ................      0.00    0.03             0.00    0.00             0.00    0.01
     1  ENHESS  ................      6.26   78.37             0.27   78.65             6.58   78.45
     1  EXIT PROCEDURE .........      0.02    0.23             0.00    0.88             0.02    0.26


 Currently Open Files (EXIT00)
 ====================

 Unit    Access Format  Status   Type       Ident (file)
 -------------------------------------------------------
   3      SEQ    FORM   TRANSP  NORMAL      LOGFILE
                                          ( logfile )


 Buffered I/O statistics
 =======================
 Memory available:                     67108864
 Number of records fitting in memory:     16131
 Input :   0.5% of                       162093  *4k bytes
 Output:   6.3% of                         6438  *4k bytes
 Records from serial files evicted:           0
                    others evicted:           0
 Hash table lookups:     427607 with          0 conflicts (  0.00%)

 ***************************************************************************************************
 (LOGFILE)
 <Apr18-2019> <21:55:48>  ADF development version  RunTime: Apr18-2019 21:55:48  Nodes: 1  Procs: 1
 <Apr18-2019> <21:55:48>  Hydrogen (TZ2P)
 <Apr18-2019> <21:55:48>  RunType   : CREATE
 <Apr18-2019> <21:55:48>  Net Charge: 0 (Nuclei minus Electrons)
 <Apr18-2019> <21:55:48>  Symmetry  : ATOM
  Coordinates
    Atom         X           Y           Z   (Angstrom)
    1.H         0.000000    0.000000    0.000000
 <Apr18-2019> <21:55:48>  >>>> CORORT
 <Apr18-2019> <21:55:48>  >>>> CLSMAT
 <Apr18-2019> <21:55:48>  >>>> ORTHON
 <Apr18-2019> <21:55:48>  >>>> GENPT
 <Apr18-2019> <21:55:48>  Block Length=  64
 <Apr18-2019> <21:55:48>  >>>> PTBAS
 <Apr18-2019> <21:55:48>  >>>> CYCLE
 <Apr18-2019> <21:55:48>              |Error|         MaxErr       Wt(A-DIIS)
 <Apr18-2019> <21:55:48>      1      0.00000000      0.00000000
 <Apr18-2019> <21:55:48>      2      0.03052616      0.02968253
 <Apr18-2019> <21:55:48>      3      0.00718306      0.00671215    100.0
 <Apr18-2019> <21:55:48>      4      0.00117509      0.00114306      0.1
 <Apr18-2019> <21:55:48>      5      0.00002753      0.00002354      0.0
 <Apr18-2019> <21:55:48>      6      0.00000151      0.00000129      0.0
 <Apr18-2019> <21:55:48>      7      0.00000000      0.00000000      0.0
 <Apr18-2019> <21:55:48>  SCF converged
 <Apr18-2019> <21:55:48>      8      0.00000000      0.00000000      0.0
 <Apr18-2019> <21:55:48>  >>>> POPAN
 <Apr18-2019> <21:55:48>  >>>> DEBYE
 <Apr18-2019> <21:55:48>  NORMAL TERMINATION
 <Apr18-2019> <21:55:48>  END
 <Apr18-2019> <21:55:48>  ADF development version  RunTime: Apr18-2019 21:55:48  Nodes: 1  Procs: 1
 <Apr18-2019> <21:55:48>  Nitrogen (TZ2P)
 <Apr18-2019> <21:55:48>  RunType   : CREATE
 <Apr18-2019> <21:55:48>  Net Charge: 0 (Nuclei minus Electrons)
 <Apr18-2019> <21:55:48>  Symmetry  : ATOM
  Coordinates
    Atom         X           Y           Z   (Angstrom)
    1.N         0.000000    0.000000    0.000000
 <Apr18-2019> <21:55:48>  >>>> CORORT
 <Apr18-2019> <21:55:48>  >>>> CLSMAT
 <Apr18-2019> <21:55:48>  >>>> ORTHON
 <Apr18-2019> <21:55:48>  >>>> GENPT
 <Apr18-2019> <21:55:48>  Block Length=  72
 <Apr18-2019> <21:55:48>  >>>> PTBAS
 <Apr18-2019> <21:55:48>  >>>> CYCLE
 <Apr18-2019> <21:55:49>              |Error|         MaxErr       Wt(A-DIIS)
 <Apr18-2019> <21:55:49>      1      0.00000000      0.00000000
 <Apr18-2019> <21:55:49>      2      6.45136737      4.21970309    100.0
 <Apr18-2019> <21:55:49>      3      2.48151769      1.95479559    100.0
 <Apr18-2019> <21:55:49>      4      0.97037111      0.64106549    100.0
 <Apr18-2019> <21:55:49>      5      0.83103458      0.57851138    100.0
 <Apr18-2019> <21:55:49>      6      0.05965521      0.03113872     30.4
 <Apr18-2019> <21:55:49>      7      0.02772165      0.01840468     17.6
 <Apr18-2019> <21:55:49>      8      0.00449923      0.00308126      2.1
 <Apr18-2019> <21:55:49>      9      0.00001936      0.00001211      0.0
 <Apr18-2019> <21:55:49>     10      0.00000184      0.00000123      0.0
 <Apr18-2019> <21:55:49>     11      0.00000005      0.00000003      0.0
 <Apr18-2019> <21:55:49>     12      0.00000000      0.00000000      0.0
 <Apr18-2019> <21:55:49>  SCF converged
 <Apr18-2019> <21:55:49>     13      0.00000000      0.00000000      0.0
 <Apr18-2019> <21:55:49>  >>>> POPAN
 <Apr18-2019> <21:55:49>  >>>> DEBYE
 <Apr18-2019> <21:55:49>  NORMAL TERMINATION
 <Apr18-2019> <21:55:49>  END
 <Apr18-2019> <21:55:49>  ADF development version  RunTime: Apr18-2019 21:55:49  Nodes: 1  Procs: 12
 <Apr18-2019> <21:55:50>  *** (NO TITLE) ***
 <Apr18-2019> <21:55:50>  RunType   : SINGLE POINT
 <Apr18-2019> <21:55:50>  Net Charge: 0 (Nuclei minus Electrons)
 <Apr18-2019> <21:55:50>  Symmetry  : NOSYM
 <Apr18-2019> <21:55:50>  >>>> FRAGM
  Coordinates
    Atom         X           Y           Z   (Angstrom)
    1.H         1.254833    0.271086   -0.275011
    2.N         0.787867   -0.626917   -0.446919
    3.H         1.252342   -1.096767   -1.232857
    4.H         0.878868   -1.213758    0.390614
 <Apr18-2019> <21:55:50>  >>>> CORORT
 <Apr18-2019> <21:55:50>  >>>> CLSMAT
 <Apr18-2019> <21:55:50>  >>>> ORTHON
 <Apr18-2019> <21:55:50>  >>>> GENPT
 <Apr18-2019> <21:55:50>  Block Length= 128
 <Apr18-2019> <21:55:50>  >>>> PTBAS
 <Apr18-2019> <21:55:50>  >>>> CYCLE
 <Apr18-2019> <21:55:50>              |Error|         MaxErr       Wt(A-DIIS)
 <Apr18-2019> <21:55:50>      1      2.49494536      1.22613643
 <Apr18-2019> <21:55:50>      2      0.86166614      0.27384821    100.0
 <Apr18-2019> <21:55:50>      3      0.14456451      0.05448303    100.0
 <Apr18-2019> <21:55:50>      4      0.06231162      0.01897793     18.2
 <Apr18-2019> <21:55:50>      5      0.01480273      0.00471626      3.8
 <Apr18-2019> <21:55:50>      6      0.00140865      0.00043856      0.0
 <Apr18-2019> <21:55:50>      7      0.00004661      0.00001626      0.0
 <Apr18-2019> <21:55:50>      8      0.00000685      0.00000307      0.0
 <Apr18-2019> <21:55:51>      9      0.00000053      0.00000017      0.0
 <Apr18-2019> <21:55:51>  SCF converged
 <Apr18-2019> <21:55:51>     10      0.00000007      0.00000002      0.0
 <Apr18-2019> <21:55:51>  >>>> TOTEN
 <Apr18-2019> <21:55:51>  >>>> POPAN
 <Apr18-2019> <21:55:51>  >>>> DEBYE
 <Apr18-2019> <21:55:51>  >>>> AMETS
 <Apr18-2019> <21:55:51>   Bond Energy          -0.71111824 a.u.
 <Apr18-2019> <21:55:51>   Bond Energy         -19.35051187 eV
 <Apr18-2019> <21:55:51>   Bond Energy        -446.23       kcal/mol
 <Apr18-2019> <21:55:51>  >>>> POPUL
 <Apr18-2019> <21:55:51>  >>>> ENGRAD
 <Apr18-2019> <21:55:51>  >>>> ENHESS
 <Apr18-2019> <21:55:51>  === NUCLEUS:     1
 <Apr18-2019> <21:55:53>  === NUCLEUS:     2
 <Apr18-2019> <21:55:54>  === NUCLEUS:     3
 <Apr18-2019> <21:55:56>  === NUCLEUS:     4
 <Apr18-2019> <21:55:57>  >>>> CALC_HESS_PMAT
 <Apr18-2019> <21:55:57>  >>>> CALC_HESS_WMAT
 <Apr18-2019> <21:55:58>  NORMAL TERMINATION
 <Apr18-2019> <21:55:58>  END
