
Create Br   file=TZ2P-Br
XC
  GGA blyp
  DISPERSION Grimme3 BJDAMP
End
End Input

 *******************************************************************************
 *                                                                             *
 *  -------------------------------------                                      *
 *   Amsterdam Density Functional  (ADF)         development version           *
 *  -------------------------------------                                      *
 *                                               r61132 2017-09-08             *
 *                                                                             *
 *                                                                             *
 *                              =================                              *
 *                              |               |                              *
 *                              |     A D F     |                              *
 *                              |               |                              *
 *                              =================                              *
 *                                                                             *
 *                                                                             *
 *   Online information and documentation:  https://www.scm.com/support/       *
 *   E-mail:  support@scm.com   info@scm.com                                   *
 *                                                                             *
 *   Scientific publications using ADF results must be properly referenced     *
 *   See the User Manuals (or the web site) for recommended citations          *
 *   The terms and conditions of the End User License Agreement apply to       *
 *   the use of ADF, https://www.scm.com/license-terms/                        *
 *                                                                             *
 **********************  x86_64_linux_intel / intelmpi  ************************
 
 Licensed to: VU/FEW (+ SARA) / ALGEMEEN / Amsterdam / THE NETHERLANDS
 SCM User ID: u7668
  
 ADF development version  RunTime: Apr18-2019 13:51:09  Nodes: 1  Procs: 1

 Temporary files are created in /local/datastore0/tcst25/186686/kid_0.Xbutxi

 Bromine (TZ2P)



 ===========================
 A T T A C H E D   F I L E S
 ===========================
  
 CREATE - Data File:    TZ2P-Br
                        Bromine (TZ2P)



 ===============================
 M O D E L   P A R A M E T E R S
 ===============================
  
 DENSITY FUNCTIONAL POTENTIAL (scf)
    LDA:                               Exchange only                           == Not Default ==
    Gradient Corrections:              Becke88 LYP                             == Not Default ==

 SPIN  (restricted / unrestr.)
    Molecule:                          Restricted                               

 OTHER ASPECTS
    Relativistic Corrections:          ---                                      

    Nuclear Charge Density Model:      Point Charge Nuclei                      
    Core Treatment:                    Frozen Orbital(s)                        

    Hyperfine or Zeeman Interaction:   ---                                      

 Settings for Grimme 3 dispersion correction

      damping                        BJ
      s6                          1.000
      a1                          0.430
      s8                          2.700
      a2                          4.236

 Other (technical) parameters

      alpha                      14.000
      version                         4
 



 =====================================
 S Y M M E T R Y ,   E L E C T R O N S
 =====================================
  
 Symmetry: ATOM

 Irreducible Representations, including subspecies
 -------------------------------------------------
 S
 P:x  P:y  P:z
 D:z2  D:x2-y2  D:xy  D:xz  D:yz
 F:z3  F:z  F:xyz  F:z2x  F:z2y  F:x  F:y


 Configuration of Valence Electrons
 ==================================

          Occupation Numbers
          -------------------------------------------------
 S        4*2
 P        2*6 5
 D        10
 F        0
          -------------------------------------------------

 Total:   35

 Net Charge: 0 (Nuclei minus Electrons)

 Preset values for MO occupations will be applied through SCF cycle no. 1000000
 Thereafter, the program will assign electrons to MOs that are spatially
 similar to the occupied MOs in a "reference" cycle ("KeepOrbitals").
 The reference cycle is always the PREVIOUS cycle: it will evolve with
 the SCF procedure.



 ================================
 (Slater-type)  F U N C T I O N S  ***  (Basis and Fit)  ***
 ================================
  

 Atom Type    1  (Br)
 ==============

 Valence Basis Sets:  20
 -----------------------
   1 S   41.300000
   1 S   32.800000
   2 S   13.900000
   2 P   19.450000
   2 P   13.100000
   3 S    7.200000
   3 S    4.950000
   3 P    7.900000
   3 P    5.050000
   3 D   10.900000
   3 D    6.050000
   3 D    3.500000
   4 S    4.500000
   4 S    2.800000
   4 S    1.800000
   4 P    3.250000
   4 P    1.950000
   4 P    1.200000
   4 D    1.800000
   4 F    1.800000


 BAS: List of all Elementary Cartesian Basis Functions
 =====================================================

 The numbering in the list below (to the right of the function characteristics) is referred
 to in print-outs of MO eigenvectors and Mulliken populations in the BAS representation
 (as contrasted to the SFO representation).

 Notes:
 1. The functions are characterized by a polynomial prefactor (powers of x,y,z and r) and
    an exponential decay factor alpha.
 2. Since the basis sets are specific for an atom TYPE, the individual functions occur on
    all atoms of that type.
 3. The word 'Core' in the left margin signals that it is a Core Function (CF) : not a
    degree of freedom in the valence set, but only used to ensure orthogonalization of
    the other valence basis functions on the frozen Core Orbitals.


 (power of) X  Y  Z  R     Alpha  on Atom
            ==========     =====     ==========

 Br                                   1
                                  ---------------------------------------------------------------------------
            0  0  0  0    41.300      1
            0  0  0  0    32.800      2
            0  0  0  1    13.900      3
            1  0  0  0    19.450      4
            0  1  0  0    19.450      5
            0  0  1  0    19.450      6
            1  0  0  0    13.100      7
            0  1  0  0    13.100      8
            0  0  1  0    13.100      9
            0  0  0  2     7.200     10
            0  0  0  2     4.950     11
            1  0  0  1     7.900     12
            0  1  0  1     7.900     13
            0  0  1  1     7.900     14
            1  0  0  1     5.050     15
            0  1  0  1     5.050     16
            0  0  1  1     5.050     17
            2  0  0  0    10.900     18
            1  1  0  0    10.900     19
            1  0  1  0    10.900     20
            0  2  0  0    10.900     21
            0  1  1  0    10.900     22
            0  0  2  0    10.900     23
            2  0  0  0     6.050     24
            1  1  0  0     6.050     25
            1  0  1  0     6.050     26
            0  2  0  0     6.050     27
            0  1  1  0     6.050     28
            0  0  2  0     6.050     29
            2  0  0  0     3.500     30
            1  1  0  0     3.500     31
            1  0  1  0     3.500     32
            0  2  0  0     3.500     33
            0  1  1  0     3.500     34
            0  0  2  0     3.500     35
            0  0  0  3     4.500     36
            0  0  0  3     2.800     37
            0  0  0  3     1.800     38
            1  0  0  2     3.250     39
            0  1  0  2     3.250     40
            0  0  1  2     3.250     41
            1  0  0  2     1.950     42
            0  1  0  2     1.950     43
            0  0  1  2     1.950     44
            1  0  0  2     1.200     45
            0  1  0  2     1.200     46
            0  0  1  2     1.200     47
            2  0  0  1     1.800     48
            1  1  0  1     1.800     49
            1  0  1  1     1.800     50
            0  2  0  1     1.800     51
            0  1  1  1     1.800     52
            0  0  2  1     1.800     53
            3  0  0  0     1.800     54
            2  1  0  0     1.800     55
            2  0  1  0     1.800     56
            1  2  0  0     1.800     57
            1  1  1  0     1.800     58
            1  0  2  0     1.800     59
            0  3  0  0     1.800     60
            0  2  1  0     1.800     61
            0  1  2  0     1.800     62
            0  0  3  0     1.800     63

 Total number of charge fitting functions (nprimf)       170
 Total number of Cartesian basis functions (naos)         63
 Total number of Cartesian core functions  (ncos)          0



 BAS: List of all Elementary Cartesian Basis Functions
 =====================================================

 The numbering in the list below (to the right of the function characteristics) is referred
 to in print-outs of MO eigenvectors and Mulliken populations in the BAS representation
 (as contrasted to the SFO representation).

 Notes:
 1. The functions are characterized by a polynomial prefactor (powers of x,y,z and r) and
    an exponential decay factor alpha.
 2. Since the basis sets are specific for an atom TYPE, the individual functions occur on
    all atoms of that type.
 3. The word 'Core' in the left margin signals that it is a Core Function (CF) : not a
    degree of freedom in the valence set, but only used to ensure orthogonalization of
    the other valence basis functions on the frozen Core Orbitals.


 (power of) X  Y  Z  R     Alpha  on Atom
            ==========     =====     ==========

 Br                                   1
                                  ---------------------------------------------------------------------------
            0  0  0  0    41.300      1
            0  0  0  0    32.800      2
            0  0  0  1    13.900      3
            1  0  0  0    19.450      4
            0  1  0  0    19.450      5
            0  0  1  0    19.450      6
            1  0  0  0    13.100      7
            0  1  0  0    13.100      8
            0  0  1  0    13.100      9
            0  0  0  2     7.200     10
            0  0  0  2     4.950     11
            1  0  0  1     7.900     12
            0  1  0  1     7.900     13
            0  0  1  1     7.900     14
            1  0  0  1     5.050     15
            0  1  0  1     5.050     16
            0  0  1  1     5.050     17
            2  0  0  0    10.900     18
            1  1  0  0    10.900     19
            1  0  1  0    10.900     20
            0  2  0  0    10.900     21
            0  1  1  0    10.900     22
            0  0  2  0    10.900     23
            2  0  0  0     6.050     24
            1  1  0  0     6.050     25
            1  0  1  0     6.050     26
            0  2  0  0     6.050     27
            0  1  1  0     6.050     28
            0  0  2  0     6.050     29
            2  0  0  0     3.500     30
            1  1  0  0     3.500     31
            1  0  1  0     3.500     32
            0  2  0  0     3.500     33
            0  1  1  0     3.500     34
            0  0  2  0     3.500     35
            0  0  0  3     4.500     36
            0  0  0  3     2.800     37
            0  0  0  3     1.800     38
            1  0  0  2     3.250     39
            0  1  0  2     3.250     40
            0  0  1  2     3.250     41
            1  0  0  2     1.950     42
            0  1  0  2     1.950     43
            0  0  1  2     1.950     44
            1  0  0  2     1.200     45
            0  1  0  2     1.200     46
            0  0  1  2     1.200     47
            2  0  0  1     1.800     48
            1  1  0  1     1.800     49
            1  0  1  1     1.800     50
            0  2  0  1     1.800     51
            0  1  1  1     1.800     52
            0  0  2  1     1.800     53
            3  0  0  0     1.800     54
            2  1  0  0     1.800     55
            2  0  1  0     1.800     56
            1  2  0  0     1.800     57
            1  1  1  0     1.800     58
            1  0  2  0     1.800     59
            0  3  0  0     1.800     60
            0  2  1  0     1.800     61
            0  1  2  0     1.800     62
            0  0  3  0     1.800     63
1
 ***************************************************************************************************



                                              ***********************
                                              *  T E C H N I C A L  *
                                              ***********************
  



 =============================================================
 P A R A L L E L I Z A T I O N  and  V E C T O R I Z A T I O N
 =============================================================
  
 Nr of parallel processes:                                1
 Maximum vector length in NumInt loops:                 128

 IO buffersize (Mb):                                     64.000000



 =====================
 S C F   U P D A T E S
 =====================
  
 Max. nr. of cycles:                               300
 Convergence criterion:                              0.0000000100
   secondary criterion:                              0.0000000100

 Mix parameter (when DIIS does not apply):           0.2000000000
 Special mix parameter for the first cycle:          1.0000000000
 Mixed ADIIS+DIIS will be used
    Max number of expansion vectors:                10
    Pure ADIIS when Max([F,P]) is above              0.1000000000
    Pure DIIS when Max([F,P]) is below               0.0010000000
 Automatic ElectronSmearing (in case of problematic SCF convergence) disabled



 =================
 P R E C I S I O N  ***  (General: NumInt, NeglectFunctionTails, ...)  ***
 =================
  

 NumInt:           Target precision:                12.0000000000
 -------           Initial precision:               10.0000000000
                   Min. precision (optimization):   10.0000000000

 Neglect Functions:          Basis functions:        0.1000000000E-13
 ------------------          Fit functions:          0.1000000000E-13



 ===========================
 L I N E A R   S C A L I N G
 ===========================
  

 Cut-off radii density fit:                        0.1000000000E-97
 Overlap cut-off criterion AO matrix elements:     0.1000000000E-97
 Cut-offs for Coulomb potential and fitted density:0.1000000000E-97
 Cut-off criterion for Coulomb multipole terms:    0.1000000000E-97
 Progressive Convergence parameter:                 0.000000000    
1
 ***************************************************************************************************



                                            ***************************
                                            *  C O M P U T A T I O N  *
                                            ***************************
  

 Number of elements of the density matrix on this node (used, total):      2016      2016



 ===========================================
 Numerical Integration : Fuzzy Cells (Becke)
 ===========================================
  
 Becke grid quality: VERYGOOD       
  
 Lebedev angular grid order:             min:  13 max:  41
 Nr. of radial points:                   min: 106 max: 106

 Total nr. of points:        106
 Nr. of blocks:                1
 Block length:               106
 Nr. of dummy points:          0


 Test of Precision of the Numerical Integration Grid
 ===================================================

 Integral of the Total Core Density:                   0.00000000000000



 ========================
 Density Fitting (zlmFit)
 ========================
  
 ZlmFit Fit Quality: VERYGOOD       
  
 Max L-expansion:                        min:   0 max:   0
 Nr. of radial interpolation points:     min: 240 max: 240



 =====
 S C F  ***  ScaSCF  ***
 =====
  

 CYCLE    1
 SCF Error: norm([F,P])=      0.000000000000, max([F,P])=      0.000000000000
 orbitals (Q,E):
 ---------------
 S :1...8            ( 2.00  -612.4786)  ( 2.00  -152.6714)  ( 2.00   -67.1618)  ( 2.00   -37.3471)
                     ( 0.00   -23.4672)  ( 0.00   -15.4322)  ( 0.00    -9.8352)  ( 0.00   627.8721)
 P :1...7            ( 6.00  -153.0715)  ( 6.00   -67.2002)  ( 5.00   -36.6918)  ( 0.00   -21.5714)
                     ( 0.00   -12.7861)  ( 0.00    -7.3590)  ( 0.00    16.5106)
 D :1...4            (10.00   -67.9473)  ( 0.00   -38.1263)  ( 0.00   -23.3212)  ( 0.00   -12.4393)
 F :1...1            ( 0.00   -14.1300)

 CYCLE    2
  SDIIS (wt  0.000):  1.0000 -0.0000
 A-DIIS (wt  1.000):  0.0000  1.0000
  DIIS coefficients:  0.0000  1.0000
 SCF Error: norm([F,P])=    133.903788591766, max([F,P])=     33.002638835768
 orbitals (Q,E):
 ---------------
 S :1...5            ( 2.00  -440.6623)  ( 2.00   -34.4608)  ( 2.00    -0.4838)  ( 2.00     0.2836)
                     ( 0.00     1.7588)
 P :1...4            ( 6.00   -26.4444)  ( 6.00     0.0834)  ( 5.00     0.3720)  ( 0.00     1.4169)
 D :1...2            (10.00     0.6774)  ( 0.00     3.4882)
 F :1...1            ( 0.00     1.3965)

 CYCLE    3
  SDIIS (wt  0.000):  0.1412  0.8588
 A-DIIS (wt  1.000):  0.4812  0.5188
  DIIS coefficients:  0.4812  0.5188
 SCF Error: norm([F,P])=     49.629143697465, max([F,P])=     17.595188807560
 orbitals (Q,E):
 ---------------
 S :1...5            ( 2.00  -480.8932)  ( 2.00   -64.7226)  ( 2.00   -13.6294)  ( 2.00    -3.4868)
                     ( 0.00    -0.5582)
 P :1...4            ( 6.00   -58.1726)  ( 6.00   -11.4786)  ( 5.00    -2.7508)  ( 0.00    -0.3243)
 D :1...2            (10.00    -7.6458)  ( 0.00    -1.4985)
 F :1...1            ( 0.00    -0.1774)

 CYCLE    4
  SDIIS (wt  0.000):  0.0224 -0.0021  0.9797
 A-DIIS (wt  1.000):  0.0000  0.0000  1.0000
  DIIS coefficients:  0.0000  0.0000  1.0000
 SCF Error: norm([F,P])=      9.092094844053, max([F,P])=      2.124855053538
 orbitals (Q,E):
 ---------------
 S :1...5            ( 2.00  -477.9553)  ( 2.00   -58.6455)  ( 2.00    -6.0025)  ( 2.00    -0.0887)
                     ( 0.00     0.6741)
 P :1...4            ( 6.00   -52.5726)  ( 6.00    -3.9206)  ( 5.00     0.0754)  ( 0.00     0.4470)
 D :1...2            (10.00    -0.2229)  ( 0.00     0.6460)
 F :1...1            ( 0.00     1.2104)

 CYCLE    5
  SDIIS (wt  0.000):  0.0181 -0.0308  0.6039  0.4089
 A-DIIS (wt  1.000):  0.0000  0.0000  0.5822  0.4178
  DIIS coefficients:  0.0000  0.0000  0.5822  0.4178
 SCF Error: norm([F,P])=     11.701584191545, max([F,P])=      3.988425979038
 orbitals (Q,E):
 ---------------
 S :1...5            ( 2.00  -481.8352)  ( 2.00   -62.3102)  ( 2.00    -8.5155)  ( 2.00    -0.7697)
                     ( 0.00     0.1875)
 P :1...4            ( 6.00   -56.2897)  ( 6.00    -6.4201)  ( 5.00    -0.3523)  ( 0.00     0.1239)
 D :1...2            (10.00    -2.6384)  ( 0.00     0.1906)
 F :1...1            ( 0.00     0.7840)

 CYCLE    6
  SDIIS (wt  0.000): -0.0026 -0.0016  0.0582  0.1076  0.8383
 A-DIIS (wt  1.000):  0.0000  0.0000  0.0000  0.0000  1.0000
  DIIS coefficients:  0.0000  0.0000  0.0000  0.0000  1.0000
 SCF Error: norm([F,P])=      1.823540048332, max([F,P])=      0.456619293025
 orbitals (Q,E):
 ---------------
 S :1...5            ( 2.00  -480.3974)  ( 2.00   -61.3034)  ( 2.00    -8.2095)  ( 2.00    -0.6754)
                     ( 0.00     0.2537)
 P :1...4            ( 6.00   -55.2073)  ( 6.00    -6.1080)  ( 5.00    -0.2621)  ( 0.00     0.1463)
 D :1...2            (10.00    -2.3134)  ( 0.00     0.2796)
 F :1...1            ( 0.00     0.8617)

 CYCLE    7
  SDIIS (wt  0.000): -0.0001  0.0001  0.0162 -0.0122  0.4359  0.5600
 A-DIIS (wt  1.000):  0.0000  0.0000  0.0000  0.0000  0.5218  0.4782
  DIIS coefficients:  0.0000  0.0000  0.0000  0.0000  0.5218  0.4782
 SCF Error: norm([F,P])=      1.607695839970, max([F,P])=      0.415842628956
 orbitals (Q,E):
 ---------------
 S :1...5            ( 2.00  -481.0075)  ( 2.00   -61.7929)  ( 2.00    -8.4313)  ( 2.00    -0.7171)
                     ( 0.00     0.2346)
 P :1...4            ( 6.00   -55.7193)  ( 6.00    -6.3308)  ( 5.00    -0.2925)  ( 0.00     0.1353)
 D :1...2            (10.00    -2.5382)  ( 0.00     0.2584)
 F :1...1            ( 0.00     0.8462)

 CYCLE    8
  SDIIS (wt  0.813): -0.0000  0.0000  0.0003 -0.0007  0.1156  0.1336  0.7512
 A-DIIS (wt  0.187):  0.0000  0.0000  0.0000  0.0000  0.0000  0.0000  1.0000
  DIIS coefficients: -0.0000  0.0000  0.0003 -0.0005  0.0941  0.1086  0.7976
 SCF Error: norm([F,P])=      0.065754007621, max([F,P])=      0.019467288040
 orbitals (Q,E):
 ---------------
 S :1...5            ( 2.00  -480.9996)  ( 2.00   -61.7672)  ( 2.00    -8.3915)  ( 2.00    -0.6991)
                     ( 0.00     0.2415)
 P :1...4            ( 6.00   -55.6965)  ( 6.00    -6.2914)  ( 5.00    -0.2791)  ( 0.00     0.1389)
 D :1...2            (10.00    -2.4995)  ( 0.00     0.2673)
 F :1...1            ( 0.00     0.8551)

 CYCLE    9
  SDIIS (wt  0.928): -0.0000 -0.0000 -0.0004  0.0001  0.0270  0.0241  0.3726  0.5766
 A-DIIS (wt  0.072):  0.0000  0.0000  0.0000  0.0000  0.0000  0.0000  0.1253  0.8747
  DIIS coefficients: -0.0000 -0.0000 -0.0004  0.0001  0.0251  0.0224  0.3549  0.5979
 SCF Error: norm([F,P])=      0.026013191770, max([F,P])=      0.008091160141
 orbitals (Q,E):
 ---------------
 S :1...5            ( 2.00  -481.0129)  ( 2.00   -61.7801)  ( 2.00    -8.4039)  ( 2.00    -0.7064)
                     ( 0.00     0.2380)
 P :1...4            ( 6.00   -55.7094)  ( 6.00    -6.3038)  ( 5.00    -0.2850)  ( 0.00     0.1366)
 D :1...2            (10.00    -2.5117)  ( 0.00     0.2628)
 F :1...1            ( 0.00     0.8506)

 CYCLE   10
  SDIIS (wt  1.000): -0.0000  0.0000 -0.0000 -0.0000  0.0019  0.0015  0.0216  0.0490  0.9260
  DIIS coefficients: -0.0000  0.0000 -0.0000 -0.0000  0.0019  0.0015  0.0216  0.0490  0.9260
 SCF Error: norm([F,P])=      0.000463673934, max([F,P])=      0.000100374140
 orbitals (Q,E):
 ---------------
 S :1...5            ( 2.00  -481.0128)  ( 2.00   -61.7801)  ( 2.00    -8.4038)  ( 2.00    -0.7064)
                     ( 0.00     0.2380)
 P :1...4            ( 6.00   -55.7094)  ( 6.00    -6.3036)  ( 5.00    -0.2850)  ( 0.00     0.1366)
 D :1...2            (10.00    -2.5116)  ( 0.00     0.2628)
 F :1...1            ( 0.00     0.8506)

 CYCLE   11
  SDIIS (wt  1.000): -0.0000  0.0000 -0.0000 -0.0000  0.0000  0.0000  0.0003  0.0002 -0.0123  1.0118
  DIIS coefficients: -0.0000  0.0000 -0.0000 -0.0000  0.0000  0.0000  0.0003  0.0002 -0.0123  1.0118
 SCF Error: norm([F,P])=      0.000010859570, max([F,P])=      0.000002783508
 orbitals (Q,E):
 ---------------
 S :1...5            ( 2.00  -481.0127)  ( 2.00   -61.7800)  ( 2.00    -8.4038)  ( 2.00    -0.7064)
                     ( 0.00     0.2380)
 P :1...4            ( 6.00   -55.7094)  ( 6.00    -6.3036)  ( 5.00    -0.2850)  ( 0.00     0.1366)
 D :1...2            (10.00    -2.5116)  ( 0.00     0.2628)
 F :1...1            ( 0.00     0.8506)

 CYCLE   12
  SDIIS (wt  1.000): -0.0000  0.0000  0.0000 -0.0114  1.0114
  DIIS coefficients: -0.0000  0.0000  0.0000 -0.0114  1.0114
 SCF Error: norm([F,P])=      0.000000253930, max([F,P])=      0.000000059057
 orbitals (Q,E):
 ---------------
 S :1...5            ( 2.00  -481.0127)  ( 2.00   -61.7800)  ( 2.00    -8.4038)  ( 2.00    -0.7064)
                     ( 0.00     0.2380)
 P :1...4            ( 6.00   -55.7094)  ( 6.00    -6.3036)  ( 5.00    -0.2850)  ( 0.00     0.1366)
 D :1...2            (10.00    -2.5116)  ( 0.00     0.2628)
 F :1...1            ( 0.00     0.8506)

 CYCLE   13
  SDIIS (wt  1.000):  0.0000 -0.0000 -0.0002  0.0471  0.9531
  DIIS coefficients:  0.0000 -0.0000 -0.0002  0.0471  0.9531
 SCF Error: norm([F,P])=      0.000000008155, max([F,P])=      0.000000002198
 orbitals (Q,E):
 ---------------
 S :1...5            ( 2.00  -481.0127)  ( 2.00   -61.7800)  ( 2.00    -8.4038)  ( 2.00    -0.7064)
                     ( 0.00     0.2380)
 P :1...4            ( 6.00   -55.7094)  ( 6.00    -6.3036)  ( 5.00    -0.2850)  ( 0.00     0.1366)
 D :1...2            (10.00    -2.5116)  ( 0.00     0.2628)
 F :1...1            ( 0.00     0.8506)

 SCF CONVERGED

 CYCLE   14
1
 ***************************************************************************************************



                                                *******************
                                                *  R E S U L T S  *
                                                *******************
  
 *** Setting up for NEW gradients in Focky
 *** Using FIT density in Focky

 Orbital Energies, per Irrep and Spin:
 ======================================
                        Occup              E (au)              E (eV)       Diff (eV) with prev. cycle
                        -----      --------------------        ------       --------------------------
 S
               1        2.000     -0.48101274587878E+03    -13089.023              -3.04E-09
               2        2.000     -0.61780048652771E+02     -1681.121              -1.34E-09
               3        2.000     -0.84037718795878E+01      -228.678              -2.41E-09
               4        2.000     -0.70640809652969E+00       -19.222              -2.95E-09
               5        0.000      0.23797090184223E+00         6.476
               6        0.000      0.24655941619106E+01        67.092
               7        0.000      0.14293653166501E+02       388.950
               8        0.000      0.74647931329125E+03     20312.736
 P
               1        6.000     -0.55709370544448E+02     -1515.929              -1.52E-09
               2        6.000     -0.63036166135521E+01      -171.530              -2.40E-09
               3        5.000     -0.28498840632730E+00        -7.755              -2.43E-09
               4        0.000      0.13662305746043E+00         3.718
               5        0.000      0.12150701661255E+01        33.064
               6        0.000      0.88352207867398E+01       240.419
               7        0.000      0.10087703617678E+03      2745.004
 D
               1       10.000     -0.25115984206637E+01       -68.344              -2.32E-09
               2        0.000      0.26280809227207E+00         7.151
               3        0.000      0.26773687643252E+01        72.855
               4        0.000      0.20605889125446E+02       560.715
 F
               1        0.000      0.85063213392399E+00        23.147


 Partially Occupied:
               3 P                -0.28498840632730E+00
  
 HOMO :        4 S                -0.70640809652969E+00
 LUMO :        4 P                 0.13662305746043E+00
  


 Orbital Energies, all Irreps
 ========================================

 Irrep        no.  (spin)   Occup              E (au)                E (eV)
 ---------------------------------------------------------------------------
 S             1             2.00       -0.48101274587878E+03    -13089.0228
 S             2             2.00       -0.61780048652771E+02     -1681.1207
 P             1             6.00       -0.55709370544448E+02     -1515.9291
 S             3             2.00       -0.84037718795878E+01      -228.6783
 P             2             6.00       -0.63036166135521E+01      -171.5301
 D             1            10.00       -0.25115984206637E+01       -68.3441
 S             4             2.00       -0.70640809652969E+00       -19.2223
 P             3             5.00       -0.28498840632730E+00        -7.7549
 P             4             0.00        0.13662305746043E+00         3.7177
 S             5             0.00        0.23797090184223E+00         6.4755
 D             2             0.00        0.26280809227207E+00         7.1514
 F             1             0.00        0.85063213392399E+00        23.1469
 P             5             0.00        0.12150701661255E+01        33.0637
 S             6             0.00        0.24655941619106E+01        67.0922
 D             3             0.00        0.26773687643252E+01        72.8549
 P             6             0.00        0.88352207867398E+01       240.4186
 S             7             0.00        0.14293653166501E+02       388.9501
 D             4             0.00        0.20605889125446E+02       560.7148
 P             7             0.00        0.10087703617678E+03      2745.0038
 S             8             0.00        0.74647931329125E+03     20312.7356


 All Electron Calculation, thus no Orbital Energies of the Core Orbitals are calculated



 =======================================
 M U L L I K E N   P O P U L A T I O N S
 =======================================
  
 The survey below gives for each atom:
 a) the total charge (Z minus electrons)
 b) the net spin polarization (nr of electrons spin-A minus spin-B)
 c) for each spin the atomic electron valence density (integrated) per L-value.

 Atom              Charge    Spin density          S         P         D         F
 ----              ------    ------------       ------    ------    ------    ------
 1 Br              0.0000                       8.0000   17.0000   10.0000    0.0000

 Populations of individual BAS functions
 ----------------------------------------
 1 Br           0.3604  1.5689  2.0728  0.7136  0.7136  0.7136  1.2644  1.2644  1.2644  1.4494
                0.5676  1.1356  1.1356  1.1356  0.8920  0.8920  0.8920  0.2683  0.4025  0.4025
                0.2683  0.4025  0.2683  0.7743  1.1615  1.1615  0.7743  1.1615  0.7743  0.2907
                0.4361  0.4361  0.2907  0.4361  0.2907  0.2958  1.2583  0.4268  0.5585  0.5585
                0.5585  0.8946  0.8946  0.8946  0.2080  0.2080  0.2080 -0.0001 -0.0001 -0.0001
               -0.0001 -0.0001 -0.0001  0.0000  0.0000  0.0000  0.0000  0.0000  0.0000  0.0000
                0.0000  0.0000  0.0000

 Gross Charges per Atom (Z minus electrons)
 ==========================================
             0.0000
 Net Total:  0.00000000



 =======================================================================
 Electrostatic potential at the Nuclei due to electrons and other nuclei
 =======================================================================
  
         Atom                  Potential
         ----                  ---------
     1)   Br                175.92949555
 
 
 ========================
 No memory problems found
 ========================
 
 Maximum number of active allocate calls:         447
 
 *******************************************************************************

                             A D F   E X I T
 NORMAL TERMINATION



 =================
 Timing Statistics
 =================
  
 Total Used :                     CPU=        0.82      System=        0.06     Elapsed=        1.20

 Calls  Section                     ( Mean, Percentage )
 ---------------------------------------------------------------------------------------------------
     3  ><      ................      0.00    0.12             0.00    0.00             0.00    0.12
     1  INIT    ................      0.01    1.09             0.02   42.86             0.13   10.57
     1  GEOMET  ................      0.01    0.85             0.01   14.29             0.10    8.35
     1  INPUTA  ................      0.00    0.24             0.00    0.00             0.01    0.45
     1  MAINSY  ................      0.01    0.97             0.00    1.79             0.04    3.26
     1  SYMFIT  ................      0.00    0.00             0.00    1.79             0.00    0.09
     1  CORORT  ................      0.00    0.12             0.00    0.00             0.01    0.43
     1  SYMORB  ................      0.00    0.00             0.00    0.00             0.00    0.06
     1  CLSMAT  ................      0.00    0.49             0.00    3.57             0.01    0.50
     1  ORTHON  ................      0.00    0.24             0.00    1.78             0.03    2.20
     1  GENPT   ................      0.02    3.04             0.00    0.00             0.03    2.59
     1  PTBAS   ................      0.00    0.49             0.00    1.79             0.02    1.26
    14  FOCKY   ................      0.05   80.68             0.00   21.43             0.05   60.24
    14  FOCKTR  ................      0.00    1.58             0.00    0.00             0.00    1.03
    14  SDIIS   ................      0.00    2.55             0.00    5.36             0.00    2.96
     1  COREPS  ................      0.04    4.50             0.00    0.00             0.04    3.60
     1  POPAN   ................      0.01    0.73             0.00    0.00             0.01    0.45
     1  DEBYE   ................      0.00    0.12             0.00    0.00             0.00    0.12
     1  EXIT PROCEDURE .........      0.02    2.19             0.00    5.36             0.02    1.73


 Currently Open Files (EXIT00)
 ====================

 Unit    Access Format  Status   Type       Ident (file)
 -------------------------------------------------------
   3      SEQ    FORM   TRANSP  NORMAL      LOGFILE
                                          ( logfile )


 Buffered I/O statistics
 =======================
 Memory available:                     67108864
 Number of records fitting in memory:     16131
 Input :   0.1% of                        29683  *4k bytes
 Output:  11.9% of                         1574  *4k bytes
 Records from serial files evicted:           0
                    others evicted:           0
 Hash table lookups:      77061 with          0 conflicts (  0.00%)

 ***************************************************************************************************
 (LOGFILE)
 <Apr18-2019> <13:51:09>  ADF development version  RunTime: Apr18-2019 13:51:09  Nodes: 1  Procs: 1
 <Apr18-2019> <13:51:10>  Bromine (TZ2P)
 <Apr18-2019> <13:51:10>  RunType   : CREATE
 <Apr18-2019> <13:51:10>  Net Charge: 0 (Nuclei minus Electrons)
 <Apr18-2019> <13:51:10>  Symmetry  : ATOM
  Coordinates
    Atom         X           Y           Z   (Angstrom)
    1.Br        0.000000    0.000000    0.000000
 <Apr18-2019> <13:51:10>  >>>> CORORT
 <Apr18-2019> <13:51:10>  >>>> CLSMAT
 <Apr18-2019> <13:51:10>  >>>> ORTHON
 <Apr18-2019> <13:51:10>  >>>> GENPT
 <Apr18-2019> <13:51:10>  Block Length= 106
 <Apr18-2019> <13:51:10>  >>>> PTBAS
 <Apr18-2019> <13:51:10>  >>>> CYCLE
 <Apr18-2019> <13:51:10>              |Error|         MaxErr       Wt(A-DIIS)
 <Apr18-2019> <13:51:10>      1      0.00000000      0.00000000
 <Apr18-2019> <13:51:10>      2    133.90378859     33.00263884    100.0
 <Apr18-2019> <13:51:10>      3     49.62914370     17.59518881    100.0
 <Apr18-2019> <13:51:10>      4      9.09209484      2.12485505    100.0
 <Apr18-2019> <13:51:10>      5     11.70158419      3.98842598    100.0
 <Apr18-2019> <13:51:10>      6      1.82354005      0.45661929    100.0
 <Apr18-2019> <13:51:10>      7      1.60769584      0.41584263    100.0
 <Apr18-2019> <13:51:10>      8      0.06575401      0.01946729     18.7
 <Apr18-2019> <13:51:10>      9      0.02601319      0.00809116      7.2
 <Apr18-2019> <13:51:10>     10      0.00046367      0.00010037      0.0
 <Apr18-2019> <13:51:10>     11      0.00001086      0.00000278      0.0
 <Apr18-2019> <13:51:10>     12      0.00000025      0.00000006      0.0
 <Apr18-2019> <13:51:11>     13      0.00000001      0.00000000      0.0
 <Apr18-2019> <13:51:11>  SCF converged
 <Apr18-2019> <13:51:11>     14      0.00000000      0.00000000      0.0
 <Apr18-2019> <13:51:11>  >>>> POPAN
 <Apr18-2019> <13:51:11>  >>>> DEBYE
 <Apr18-2019> <13:51:11>  NORMAL TERMINATION
 <Apr18-2019> <13:51:11>  END


 Parallel Execution: Process Information
 ==============================================================================
 Rank   Node Name                              NodeID   MyNodeRank  NodeMaster
    0   BAZIS-cn076                               0          0          0
    1   BAZIS-cn076                               0          1         -1
    2   BAZIS-cn076                               0          2         -1
    3   BAZIS-cn076                               0          3         -1
    4   BAZIS-cn076                               0          4         -1
    5   BAZIS-cn076                               0          5         -1
    6   BAZIS-cn076                               0          6         -1
    7   BAZIS-cn076                               0          7         -1
    8   BAZIS-cn076                               0          8         -1
    9   BAZIS-cn076                               0          9         -1
   10   BAZIS-cn076                               0         10         -1
   11   BAZIS-cn076                               0         11         -1
 ==============================================================================


May use up to 30736MB of RAM as shared memory on node 0


XC
  GGA blyp
  DISPERSION Grimme3 BJDAMP
END

ANALYTICALFREQ
END

SCF
  iterations 250
END

Geometry
  Iterations 300
  Optim Cartesian
  Convergence E=1e-4 grad=1e-4
End

SYMMETRY nosym
CHARGE -1

ZLMFIT
  Quality normal
END

BECKEGRID
  Quality good
End

ATOMS
Br     -4.94867129       3.04098476       0.02199102
Br     -3.76372578       1.14672480       0.05741844
Br    -6.06298381       5.11120939      -0.21661069
END

Fragments
Br t21.Br
End
end input

 *******************************************************************************
 *                                                                             *
 *  -------------------------------------                                      *
 *   Amsterdam Density Functional  (ADF)         development version           *
 *  -------------------------------------                                      *
 *                                               r61132 2017-09-08             *
 *                                                                             *
 *                                                                             *
 *                              =================                              *
 *                              |               |                              *
 *                              |     A D F     |                              *
 *                              |               |                              *
 *                              =================                              *
 *                                                                             *
 *                                                                             *
 *   Online information and documentation:  https://www.scm.com/support/       *
 *   E-mail:  support@scm.com   info@scm.com                                   *
 *                                                                             *
 *   Scientific publications using ADF results must be properly referenced     *
 *   See the User Manuals (or the web site) for recommended citations          *
 *   The terms and conditions of the End User License Agreement apply to       *
 *   the use of ADF, https://www.scm.com/license-terms/                        *
 *                                                                             *
 **********************  x86_64_linux_intel / intelmpi  ************************
 
 Licensed to: VU/FEW (+ SARA) / ALGEMEEN / Amsterdam / THE NETHERLANDS
 SCM User ID: u7668
  
 ADF development version  RunTime: Apr18-2019 13:51:11  Nodes: 1  Procs: 12

 Temporary files are created in /local/datastore0/tcst25/186686/kid_0.nIUO5P


Communication costs MPI_COMM_WORLD:      2.484 usec per message,   0.0135 usec per 8-byte item
Communication costs for intra-node:      2.496 usec per message,   0.0134 usec per 8-byte item

 *** (NO TITLE) ***



 ===========================
 A T T A C H E D   F I L E S
 ===========================
  



 ===============================
 M O D E L   P A R A M E T E R S
 ===============================
  
 DENSITY FUNCTIONAL POTENTIAL (scf)
    LDA:                               Exchange only                           == Not Default ==
    Gradient Corrections:              Becke88 LYP                             == Not Default ==

 SPIN  (restricted / unrestr.)
    Molecule:                          Restricted                               
    Fragments:                         Restricted                               

 OTHER ASPECTS
    Relativistic Corrections:          ---                                      

    Nuclear Charge Density Model:      Point Charge Nuclei                      
    Core Treatment:                    Frozen Orbital(s)                        

    Hyperfine or Zeeman Interaction:   ---                                      

 Settings for Grimme 3 dispersion correction

      damping                        BJ
      s6                          1.000
      a1                          0.430
      s8                          2.700
      a2                          4.236

 Other (technical) parameters

      alpha                      14.000
      version                         4
 


 Fragment File(s)
 ----------------
 Br:
         file : t21.Br
         jobid: ADF development version  RunTime: Apr18-2019 13:51:09  Nodes: 1  Procs: 1
         title: Bromine (TZ2P)



                                   *********************************************
                                   *  R U N   T Y P E : GEOMETRY OPTIMIZATION  *
                                   *********************************************
  



 ===============
 G E O M E T R Y  ***  Planar Molecule  ***
 ===============
  

 ATOMS
 =====                            X Y Z                    CHARGE
                                (Angstrom)             Nucl     +Core       At.Mass
                       --------------------------    ----------------       -------
    1  Br             -4.9487    3.0410    0.0220     35.00     35.00       78.9183
    2  Br             -3.7637    1.1467    0.0574     35.00     35.00       78.9183
    3  Br             -6.0630    5.1112   -0.2166     35.00     35.00       78.9183


 FRAGMENTS
 =========                                     Atoms in this Fragment     Cart. coord.s (Angstrom)
                                               -------------------------------------------------------
    1  Br                                                1  Br          -4.9487    3.0410    0.0220
    2  Br                                                2  Br          -3.7637    1.1467    0.0574
    3  Br                                                3  Br          -6.0630    5.1112   -0.2166


 Interatomic Distance Matrix (Angstrom)
 --------------------------------------

   1)     0.000
   2)     2.235   0.000
   3)     2.363   4.591   0.000

 Min. Distance =    2.2346
 Max. Distance =    4.5912



 =====================================
 S Y M M E T R Y ,   E L E C T R O N S
 =====================================
  
 Symmetry: NOSYM

 Irreducible Representations, including subspecies
 -------------------------------------------------
 A


 Configuration of Valence Electrons
 ==================================
 ( determined in the SCF procedure )

 Total:   106

 Net Charge: -1 (Nuclei minus Electrons)

 Aufbau principle for MO occupations will be applied through SCF cycle no.     125
 Thereafter, the program will assign electrons to MOs that are spatially
 similar to the occupied MOs in a "reference" cycle ("KeepOrbitals").
 The reference cycle is always the PREVIOUS cycle: it will evolve with
 the SCF procedure.
1
 ***************************************************************************************************



                                      ****************************************
                                      *  B U I L D : (Fragments, Functions)  *
                                      ****************************************
  



 =======
 S F O s  ***  (Symmetrized Fragment Orbitals)  ***
 =======
  
 SFOs are linear combinations of (valence) Fragment Orbitals (FOs), such that the SFOs transform as the
 irreducible representations of the (molecular) symmetry group. Each SFO is therefore characterized by
 an irrep of the molecule and by a few (or only one) generating FOs.
 The SFOs constitute a symmetry-adapted basis for the Fock matrix. The MO eigenvector coefficients in
 this basis provide a direct interpretation of the MOs in terms of Frontier Orbital Theory.

 The SFOs are combined with auxiliary Core Functions (CFs) to ensure orthogonalization on the (frozen)
 Core Orbitals (COs). The Core-orthogonalized SFOs (CSFOs) constitute the true Fock basis.

 The FOs, and hence also the (C)SFOs are combinations of the elementary basis functions (BAS). The basis
 functions that participate in the description of the SFOs depend on the irrep. The indices of the
 involved functions are printed below for each irrep.
 (The complete list of primitive basis functions is printed in another section)

 Total nr. of (C)SFOs (summation over all irreps) :   168

 NOTE: a (C)SFO that is defined as a combination of more than one FO is usually NOT normalized.



                                       === A ===
 Nr. of SFOs :  168
 Cartesian basis functions that participate in this irrep (total number =   189) :
      1     2     3    10    11    36    37    38     4     7
     12    15    39    42    45     5     8    13    16    40
     43    46     6     9    14    17    41    44    47    18
     24    30    48    19    25    31    49    20    26    32
     50    21    27    33    51    22    28    34    52    23
     29    35    53    54    55    56    57    58    59    60
     61    62    63    64    65    66    73    74    99   100
    101    67    70    75    78   102   105   108    68    71
     76    79   103   106   109    69    72    77    80   104
    107   110    81    87    93   111    82    88    94   112
     83    89    95   113    84    90    96   114    85    91
     97   115    86    92    98   116   117   118   119   120
    121   122   123   124   125   126   127   128   129   136
    137   162   163   164   130   133   138   141   165   168
    171   131   134   139   142   166   169   172   132   135
    140   143   167   170   173   144   150   156   174   145
    151   157   175   146   152   158   176   147   153   159
    177   148   154   160   178   149   155   161   179   180
    181   182   183   184   185   186   187   188   189

    SFO  (index         Fragment          Generating    Expansion in Fragment Orbitals
  indx  incl.CFs)   Occup   Orb.Energy   FragmentType  Coeff.   Orbital     on Fragment
 --------------------------------------------------------------------------------------
     1       1      2.000    -481.013 au  Br            1.00      1 S               1
                        (  -13089.023 eV)
     2       2      2.000     -61.780 au  Br            1.00      2 S               1
                        (   -1681.121 eV)
     3       3      2.000      -8.404 au  Br            1.00      3 S               1
                        (    -228.678 eV)
     4       4      2.000      -0.706 au  Br            1.00      4 S               1
                        (     -19.222 eV)
     5       5       --         0.238 au  Br            1.00      5 S               1
                        (       6.476 eV)
     6       6       --         2.466 au  Br            1.00      6 S               1
                        (      67.092 eV)
     7       7       --        14.294 au  Br            1.00      7 S               1
                        (     388.950 eV)
     8       8       --       746.479 au  Br            1.00      8 S               1
                        (   20312.736 eV)
     9       9      2.000     -55.709 au  Br            1.00      1 P:x             1
                        (   -1515.929 eV)
    10      10      2.000      -6.304 au  Br            1.00      2 P:x             1
                        (    -171.530 eV)
    11      11      1.667      -0.285 au  Br            1.00      3 P:x             1
                        (      -7.755 eV)
    12      12       --         0.137 au  Br            1.00      4 P:x             1
                        (       3.718 eV)
    13      13       --         1.215 au  Br            1.00      5 P:x             1
                        (      33.064 eV)
    14      14       --         8.835 au  Br            1.00      6 P:x             1
                        (     240.419 eV)
    15      15       --       100.877 au  Br            1.00      7 P:x             1
                        (    2745.004 eV)
    16      16      2.000     -55.709 au  Br            1.00      1 P:y             1
                        (   -1515.929 eV)
    17      17      2.000      -6.304 au  Br            1.00      2 P:y             1
                        (    -171.530 eV)
    18      18      1.667      -0.285 au  Br            1.00      3 P:y             1
                        (      -7.755 eV)
    19      19       --         0.137 au  Br            1.00      4 P:y             1
                        (       3.718 eV)
    20      20       --         1.215 au  Br            1.00      5 P:y             1
                        (      33.064 eV)
    21      21       --         8.835 au  Br            1.00      6 P:y             1
                        (     240.419 eV)
    22      22       --       100.877 au  Br            1.00      7 P:y             1
                        (    2745.004 eV)
    23      23      2.000     -55.709 au  Br            1.00      1 P:z             1
                        (   -1515.929 eV)
    24      24      2.000      -6.304 au  Br            1.00      2 P:z             1
                        (    -171.530 eV)
    25      25      1.667      -0.285 au  Br            1.00      3 P:z             1
                        (      -7.755 eV)
    26      26       --         0.137 au  Br            1.00      4 P:z             1
                        (       3.718 eV)
    27      27       --         1.215 au  Br            1.00      5 P:z             1
                        (      33.064 eV)
    28      28       --         8.835 au  Br            1.00      6 P:z             1
                        (     240.419 eV)
    29      29       --       100.877 au  Br            1.00      7 P:z             1
                        (    2745.004 eV)
    30      30      2.000      -2.512 au  Br            1.00      1 D:z2            1
                        (     -68.344 eV)
    31      31       --         0.263 au  Br            1.00      2 D:z2            1
                        (       7.151 eV)
    32      32       --         2.677 au  Br            1.00      3 D:z2            1
                        (      72.855 eV)
    33      33       --        20.606 au  Br            1.00      4 D:z2            1
                        (     560.715 eV)
    34      34      2.000      -2.512 au  Br            1.00      1 D:x2-y2         1
                        (     -68.344 eV)
    35      35       --         0.263 au  Br            1.00      2 D:x2-y2         1
                        (       7.151 eV)
    36      36       --         2.677 au  Br            1.00      3 D:x2-y2         1
                        (      72.855 eV)
    37      37       --        20.606 au  Br            1.00      4 D:x2-y2         1
                        (     560.715 eV)
    38      38      2.000      -2.512 au  Br            1.00      1 D:xy            1
                        (     -68.344 eV)
    39      39       --         0.263 au  Br            1.00      2 D:xy            1
                        (       7.151 eV)
    40      40       --         2.677 au  Br            1.00      3 D:xy            1
                        (      72.855 eV)
    41      41       --        20.606 au  Br            1.00      4 D:xy            1
                        (     560.715 eV)
    42      42      2.000      -2.512 au  Br            1.00      1 D:xz            1
                        (     -68.344 eV)
    43      43       --         0.263 au  Br            1.00      2 D:xz            1
                        (       7.151 eV)
    44      44       --         2.677 au  Br            1.00      3 D:xz            1
                        (      72.855 eV)
    45      45       --        20.606 au  Br            1.00      4 D:xz            1
                        (     560.715 eV)
    46      46      2.000      -2.512 au  Br            1.00      1 D:yz            1
                        (     -68.344 eV)
    47      47       --         0.263 au  Br            1.00      2 D:yz            1
                        (       7.151 eV)
    48      48       --         2.677 au  Br            1.00      3 D:yz            1
                        (      72.855 eV)
    49      49       --        20.606 au  Br            1.00      4 D:yz            1
                        (     560.715 eV)
    50      50       --         0.851 au  Br            1.00      1 F:z3            1
                        (      23.147 eV)
    51      51       --         0.851 au  Br            1.00      1 F:z             1
                        (      23.147 eV)
    52      52       --         0.851 au  Br            1.00      1 F:xyz           1
                        (      23.147 eV)
    53      53       --         0.851 au  Br            1.00      1 F:z2x           1
                        (      23.147 eV)
    54      54       --         0.851 au  Br            1.00      1 F:z2y           1
                        (      23.147 eV)
    55      55       --         0.851 au  Br            1.00      1 F:x             1
                        (      23.147 eV)
    56      56       --         0.851 au  Br            1.00      1 F:y             1
                        (      23.147 eV)
    57      57      2.000    -481.013 au  Br            1.00      1 S               2
                        (  -13089.023 eV)
    58      58      2.000     -61.780 au  Br            1.00      2 S               2
                        (   -1681.121 eV)
    59      59      2.000      -8.404 au  Br            1.00      3 S               2
                        (    -228.678 eV)
    60      60      2.000      -0.706 au  Br            1.00      4 S               2
                        (     -19.222 eV)
    61      61       --         0.238 au  Br            1.00      5 S               2
                        (       6.476 eV)
    62      62       --         2.466 au  Br            1.00      6 S               2
                        (      67.092 eV)
    63      63       --        14.294 au  Br            1.00      7 S               2
                        (     388.950 eV)
    64      64       --       746.479 au  Br            1.00      8 S               2
                        (   20312.736 eV)
    65      65      2.000     -55.709 au  Br            1.00      1 P:x             2
                        (   -1515.929 eV)
    66      66      2.000      -6.304 au  Br            1.00      2 P:x             2
                        (    -171.530 eV)
    67      67      1.667      -0.285 au  Br            1.00      3 P:x             2
                        (      -7.755 eV)
    68      68       --         0.137 au  Br            1.00      4 P:x             2
                        (       3.718 eV)
    69      69       --         1.215 au  Br            1.00      5 P:x             2
                        (      33.064 eV)
    70      70       --         8.835 au  Br            1.00      6 P:x             2
                        (     240.419 eV)
    71      71       --       100.877 au  Br            1.00      7 P:x             2
                        (    2745.004 eV)
    72      72      2.000     -55.709 au  Br            1.00      1 P:y             2
                        (   -1515.929 eV)
    73      73      2.000      -6.304 au  Br            1.00      2 P:y             2
                        (    -171.530 eV)
    74      74      1.667      -0.285 au  Br            1.00      3 P:y             2
                        (      -7.755 eV)
    75      75       --         0.137 au  Br            1.00      4 P:y             2
                        (       3.718 eV)
    76      76       --         1.215 au  Br            1.00      5 P:y             2
                        (      33.064 eV)
    77      77       --         8.835 au  Br            1.00      6 P:y             2
                        (     240.419 eV)
    78      78       --       100.877 au  Br            1.00      7 P:y             2
                        (    2745.004 eV)
    79      79      2.000     -55.709 au  Br            1.00      1 P:z             2
                        (   -1515.929 eV)
    80      80      2.000      -6.304 au  Br            1.00      2 P:z             2
                        (    -171.530 eV)
    81      81      1.667      -0.285 au  Br            1.00      3 P:z             2
                        (      -7.755 eV)
    82      82       --         0.137 au  Br            1.00      4 P:z             2
                        (       3.718 eV)
    83      83       --         1.215 au  Br            1.00      5 P:z             2
                        (      33.064 eV)
    84      84       --         8.835 au  Br            1.00      6 P:z             2
                        (     240.419 eV)
    85      85       --       100.877 au  Br            1.00      7 P:z             2
                        (    2745.004 eV)
    86      86      2.000      -2.512 au  Br            1.00      1 D:z2            2
                        (     -68.344 eV)
    87      87       --         0.263 au  Br            1.00      2 D:z2            2
                        (       7.151 eV)
    88      88       --         2.677 au  Br            1.00      3 D:z2            2
                        (      72.855 eV)
    89      89       --        20.606 au  Br            1.00      4 D:z2            2
                        (     560.715 eV)
    90      90      2.000      -2.512 au  Br            1.00      1 D:x2-y2         2
                        (     -68.344 eV)
    91      91       --         0.263 au  Br            1.00      2 D:x2-y2         2
                        (       7.151 eV)
    92      92       --         2.677 au  Br            1.00      3 D:x2-y2         2
                        (      72.855 eV)
    93      93       --        20.606 au  Br            1.00      4 D:x2-y2         2
                        (     560.715 eV)
    94      94      2.000      -2.512 au  Br            1.00      1 D:xy            2
                        (     -68.344 eV)
    95      95       --         0.263 au  Br            1.00      2 D:xy            2
                        (       7.151 eV)
    96      96       --         2.677 au  Br            1.00      3 D:xy            2
                        (      72.855 eV)
    97      97       --        20.606 au  Br            1.00      4 D:xy            2
                        (     560.715 eV)
    98      98      2.000      -2.512 au  Br            1.00      1 D:xz            2
                        (     -68.344 eV)
    99      99       --         0.263 au  Br            1.00      2 D:xz            2
                        (       7.151 eV)
   100     100       --         2.677 au  Br            1.00      3 D:xz            2
                        (      72.855 eV)
   101     101       --        20.606 au  Br            1.00      4 D:xz            2
                        (     560.715 eV)
   102     102      2.000      -2.512 au  Br            1.00      1 D:yz            2
                        (     -68.344 eV)
   103     103       --         0.263 au  Br            1.00      2 D:yz            2
                        (       7.151 eV)
   104     104       --         2.677 au  Br            1.00      3 D:yz            2
                        (      72.855 eV)
   105     105       --        20.606 au  Br            1.00      4 D:yz            2
                        (     560.715 eV)
   106     106       --         0.851 au  Br            1.00      1 F:z3            2
                        (      23.147 eV)
   107     107       --         0.851 au  Br            1.00      1 F:z             2
                        (      23.147 eV)
   108     108       --         0.851 au  Br            1.00      1 F:xyz           2
                        (      23.147 eV)
   109     109       --         0.851 au  Br            1.00      1 F:z2x           2
                        (      23.147 eV)
   110     110       --         0.851 au  Br            1.00      1 F:z2y           2
                        (      23.147 eV)
   111     111       --         0.851 au  Br            1.00      1 F:x             2
                        (      23.147 eV)
   112     112       --         0.851 au  Br            1.00      1 F:y             2
                        (      23.147 eV)
   113     113      2.000    -481.013 au  Br            1.00      1 S               3
                        (  -13089.023 eV)
   114     114      2.000     -61.780 au  Br            1.00      2 S               3
                        (   -1681.121 eV)
   115     115      2.000      -8.404 au  Br            1.00      3 S               3
                        (    -228.678 eV)
   116     116      2.000      -0.706 au  Br            1.00      4 S               3
                        (     -19.222 eV)
   117     117       --         0.238 au  Br            1.00      5 S               3
                        (       6.476 eV)
   118     118       --         2.466 au  Br            1.00      6 S               3
                        (      67.092 eV)
   119     119       --        14.294 au  Br            1.00      7 S               3
                        (     388.950 eV)
   120     120       --       746.479 au  Br            1.00      8 S               3
                        (   20312.736 eV)
   121     121      2.000     -55.709 au  Br            1.00      1 P:x             3
                        (   -1515.929 eV)
   122     122      2.000      -6.304 au  Br            1.00      2 P:x             3
                        (    -171.530 eV)
   123     123      1.667      -0.285 au  Br            1.00      3 P:x             3
                        (      -7.755 eV)
   124     124       --         0.137 au  Br            1.00      4 P:x             3
                        (       3.718 eV)
   125     125       --         1.215 au  Br            1.00      5 P:x             3
                        (      33.064 eV)
   126     126       --         8.835 au  Br            1.00      6 P:x             3
                        (     240.419 eV)
   127     127       --       100.877 au  Br            1.00      7 P:x             3
                        (    2745.004 eV)
   128     128      2.000     -55.709 au  Br            1.00      1 P:y             3
                        (   -1515.929 eV)
   129     129      2.000      -6.304 au  Br            1.00      2 P:y             3
                        (    -171.530 eV)
   130     130      1.667      -0.285 au  Br            1.00      3 P:y             3
                        (      -7.755 eV)
   131     131       --         0.137 au  Br            1.00      4 P:y             3
                        (       3.718 eV)
   132     132       --         1.215 au  Br            1.00      5 P:y             3
                        (      33.064 eV)
   133     133       --         8.835 au  Br            1.00      6 P:y             3
                        (     240.419 eV)
   134     134       --       100.877 au  Br            1.00      7 P:y             3
                        (    2745.004 eV)
   135     135      2.000     -55.709 au  Br            1.00      1 P:z             3
                        (   -1515.929 eV)
   136     136      2.000      -6.304 au  Br            1.00      2 P:z             3
                        (    -171.530 eV)
   137     137      1.667      -0.285 au  Br            1.00      3 P:z             3
                        (      -7.755 eV)
   138     138       --         0.137 au  Br            1.00      4 P:z             3
                        (       3.718 eV)
   139     139       --         1.215 au  Br            1.00      5 P:z             3
                        (      33.064 eV)
   140     140       --         8.835 au  Br            1.00      6 P:z             3
                        (     240.419 eV)
   141     141       --       100.877 au  Br            1.00      7 P:z             3
                        (    2745.004 eV)
   142     142      2.000      -2.512 au  Br            1.00      1 D:z2            3
                        (     -68.344 eV)
   143     143       --         0.263 au  Br            1.00      2 D:z2            3
                        (       7.151 eV)
   144     144       --         2.677 au  Br            1.00      3 D:z2            3
                        (      72.855 eV)
   145     145       --        20.606 au  Br            1.00      4 D:z2            3
                        (     560.715 eV)
   146     146      2.000      -2.512 au  Br            1.00      1 D:x2-y2         3
                        (     -68.344 eV)
   147     147       --         0.263 au  Br            1.00      2 D:x2-y2         3
                        (       7.151 eV)
   148     148       --         2.677 au  Br            1.00      3 D:x2-y2         3
                        (      72.855 eV)
   149     149       --        20.606 au  Br            1.00      4 D:x2-y2         3
                        (     560.715 eV)
   150     150      2.000      -2.512 au  Br            1.00      1 D:xy            3
                        (     -68.344 eV)
   151     151       --         0.263 au  Br            1.00      2 D:xy            3
                        (       7.151 eV)
   152     152       --         2.677 au  Br            1.00      3 D:xy            3
                        (      72.855 eV)
   153     153       --        20.606 au  Br            1.00      4 D:xy            3
                        (     560.715 eV)
   154     154      2.000      -2.512 au  Br            1.00      1 D:xz            3
                        (     -68.344 eV)
   155     155       --         0.263 au  Br            1.00      2 D:xz            3
                        (       7.151 eV)
   156     156       --         2.677 au  Br            1.00      3 D:xz            3
                        (      72.855 eV)
   157     157       --        20.606 au  Br            1.00      4 D:xz            3
                        (     560.715 eV)
   158     158      2.000      -2.512 au  Br            1.00      1 D:yz            3
                        (     -68.344 eV)
   159     159       --         0.263 au  Br            1.00      2 D:yz            3
                        (       7.151 eV)
   160     160       --         2.677 au  Br            1.00      3 D:yz            3
                        (      72.855 eV)
   161     161       --        20.606 au  Br            1.00      4 D:yz            3
                        (     560.715 eV)
   162     162       --         0.851 au  Br            1.00      1 F:z3            3
                        (      23.147 eV)
   163     163       --         0.851 au  Br            1.00      1 F:z             3
                        (      23.147 eV)
   164     164       --         0.851 au  Br            1.00      1 F:xyz           3
                        (      23.147 eV)
   165     165       --         0.851 au  Br            1.00      1 F:z2x           3
                        (      23.147 eV)
   166     166       --         0.851 au  Br            1.00      1 F:z2y           3
                        (      23.147 eV)
   167     167       --         0.851 au  Br            1.00      1 F:x             3
                        (      23.147 eV)
   168     168       --         0.851 au  Br            1.00      1 F:y             3
                        (      23.147 eV)



 ================================
 (Slater-type)  F U N C T I O N S  ***  (Basis and Fit)  ***
 ================================
  

 Atom Type    1  (Br)
 ==============

 Valence Basis Sets:  20
 -----------------------
   1 S   41.300000
   1 S   32.800000
   2 S   13.900000
   2 P   19.450000
   2 P   13.100000
   3 S    7.200000
   3 S    4.950000
   3 P    7.900000
   3 P    5.050000
   3 D   10.900000
   3 D    6.050000
   3 D    3.500000
   4 S    4.500000
   4 S    2.800000
   4 S    1.800000
   4 P    3.250000
   4 P    1.950000
   4 P    1.200000
   4 D    1.800000
   4 F    1.800000


 BAS: List of all Elementary Cartesian Basis Functions
 =====================================================

 The numbering in the list below (to the right of the function characteristics) is referred
 to in print-outs of MO eigenvectors and Mulliken populations in the BAS representation
 (as contrasted to the SFO representation).

 Notes:
 1. The functions are characterized by a polynomial prefactor (powers of x,y,z and r) and
    an exponential decay factor alpha.
 2. Since the basis sets are specific for an atom TYPE, the individual functions occur on
    all atoms of that type.
 3. The word 'Core' in the left margin signals that it is a Core Function (CF) : not a
    degree of freedom in the valence set, but only used to ensure orthogonalization of
    the other valence basis functions on the frozen Core Orbitals.


 (power of) X  Y  Z  R     Alpha  on Atom
            ==========     =====     ==========

 Br                                   1    2    3
                                  ---------------------------------------------------------------------------
            0  0  0  0    41.300      1   64  127
            0  0  0  0    32.800      2   65  128
            0  0  0  1    13.900      3   66  129
            1  0  0  0    19.450      4   67  130
            0  1  0  0    19.450      5   68  131
            0  0  1  0    19.450      6   69  132
            1  0  0  0    13.100      7   70  133
            0  1  0  0    13.100      8   71  134
            0  0  1  0    13.100      9   72  135
            0  0  0  2     7.200     10   73  136
            0  0  0  2     4.950     11   74  137
            1  0  0  1     7.900     12   75  138
            0  1  0  1     7.900     13   76  139
            0  0  1  1     7.900     14   77  140
            1  0  0  1     5.050     15   78  141
            0  1  0  1     5.050     16   79  142
            0  0  1  1     5.050     17   80  143
            2  0  0  0    10.900     18   81  144
            1  1  0  0    10.900     19   82  145
            1  0  1  0    10.900     20   83  146
            0  2  0  0    10.900     21   84  147
            0  1  1  0    10.900     22   85  148
            0  0  2  0    10.900     23   86  149
            2  0  0  0     6.050     24   87  150
            1  1  0  0     6.050     25   88  151
            1  0  1  0     6.050     26   89  152
            0  2  0  0     6.050     27   90  153
            0  1  1  0     6.050     28   91  154
            0  0  2  0     6.050     29   92  155
            2  0  0  0     3.500     30   93  156
            1  1  0  0     3.500     31   94  157
            1  0  1  0     3.500     32   95  158
            0  2  0  0     3.500     33   96  159
            0  1  1  0     3.500     34   97  160
            0  0  2  0     3.500     35   98  161
            0  0  0  3     4.500     36   99  162
            0  0  0  3     2.800     37  100  163
            0  0  0  3     1.800     38  101  164
            1  0  0  2     3.250     39  102  165
            0  1  0  2     3.250     40  103  166
            0  0  1  2     3.250     41  104  167
            1  0  0  2     1.950     42  105  168
            0  1  0  2     1.950     43  106  169
            0  0  1  2     1.950     44  107  170
            1  0  0  2     1.200     45  108  171
            0  1  0  2     1.200     46  109  172
            0  0  1  2     1.200     47  110  173
            2  0  0  1     1.800     48  111  174
            1  1  0  1     1.800     49  112  175
            1  0  1  1     1.800     50  113  176
            0  2  0  1     1.800     51  114  177
            0  1  1  1     1.800     52  115  178
            0  0  2  1     1.800     53  116  179
            3  0  0  0     1.800     54  117  180
            2  1  0  0     1.800     55  118  181
            2  0  1  0     1.800     56  119  182
            1  2  0  0     1.800     57  120  183
            1  1  1  0     1.800     58  121  184
            1  0  2  0     1.800     59  122  185
            0  3  0  0     1.800     60  123  186
            0  2  1  0     1.800     61  124  187
            0  1  2  0     1.800     62  125  188
            0  0  3  0     1.800     63  126  189

 Total number of charge fitting functions (nprimf)       510
 Total number of Cartesian basis functions (naos)        189
 Total number of Cartesian core functions  (ncos)          0



 Coordinates (Cartesian)
 =======================

     Atom                    bohr                                 angstrom                 Geometric Variables
                   X           Y           Z              X           Y           Z       (0:frozen, *:LT par.)
 --------------------------------------------------------------------------------------------------------------
     1 Br     -9.351633    5.746628    0.041557      -4.948671    3.040985    0.021991      1       2       3
     2 Br     -7.112411    2.166996    0.108505      -3.763726    1.146725    0.057418      4       5       6
     3 Br    -11.457379    9.658786   -0.409335      -6.062984    5.111209   -0.216611      7       8       9
 --------------------------------------------------------------------------------------------------------------
1
 ***************************************************************************************************



                                              ***********************
                                              *  T E C H N I C A L  *
                                              ***********************
  



 =============================================================
 P A R A L L E L I Z A T I O N  and  V E C T O R I Z A T I O N
 =============================================================
  
 Nr of parallel processes:                               12
 Maximum vector length in NumInt loops:                 128

 IO buffersize (Mb):                                     64.000000



 ===============================
 G E O M E T R Y   U P D A T E S
 ===============================
  
 Optimization coordinates:                       Cartesian
 Optimization code branch:                       NEW
 Hessian update method:                          BFGS (Broyden-Fletcher-Goldfarb-Shanno)

 Iterative Geometry Improvements:
    Max. nr. of iterations:                        300
    Convergence criteria:
         Change in energy (hartree):                 0.0001000000
         Gradients (au/Angstrom):                    0.0001000000
         Cart/bondlength changes (Angstrom):         0.0100000000
    Max. step to take:
         Trust Radius:                               0.2000000000

 GDIIS (Geometry Direct Inversion in Iteration Space):
    First geometry cycle:                            0
    Max. number expansion vectors:                   5



 =====================
 S C F   U P D A T E S
 =====================
  
 Max. nr. of cycles:                               250
 Convergence criterion:                              0.0000010000
   secondary criterion:                              0.0010000000

 Mix parameter (when DIIS does not apply):           0.2000000000
 Mixed ADIIS+DIIS will be used
    Max number of expansion vectors:                10
    Pure ADIIS when Max([F,P]) is above              0.1000000000
    Pure DIIS when Max([F,P]) is below               0.0010000000



 =================
 P R E C I S I O N  ***  (General: NumInt, NeglectFunctionTails, ...)  ***
 =================
  

 NumInt:           Target precision:                 6.0000000000
 -------           Initial precision:                6.0000000000
                   Min. precision (optimization):    6.0000000000

 Neglect Functions:          Basis functions:        0.1000000000E-07
 ------------------          Fit functions:          0.1000000000E-07



 ===========================
 L I N E A R   S C A L I N G
 ===========================
  

 Cut-off radii density fit:                        0.1000000000E-09
 Overlap cut-off criterion AO matrix elements:     0.1000000000E-07
 Cut-offs for Coulomb potential and fitted density:0.1000000000E-09
 Cut-off criterion for Coulomb multipole terms:    0.1000000000E-09
 Progressive Convergence parameter:                 0.000000000    
1
 ***************************************************************************************************



                                            ***************************
                                            *  C O M P U T A T I O N  *
                                            ***************************
  

 Number of elements of the density matrix on this node (used, total):      2016     17955



 ===========================================
 Numerical Integration : Fuzzy Cells (Becke)
 ===========================================
  
 Becke grid quality: GOOD           
  
 Lebedev angular grid order:             min:  11 max:  31
 Nr. of radial points:                   min:  90 max:  90

 Total nr. of points:      58212
 Nr. of blocks:              455
 Block length:               128
 Nr. of dummy points:         28


 Test of Precision of the Numerical Integration Grid
 ===================================================

 Integral of the Total Core Density:                   0.00000000000000



 ========================
 Density Fitting (zlmFit)
 ========================
  
 ZlmFit Fit Quality: NORMAL         
  
 Max L-expansion:                        min:   7 max:   7
 Nr. of radial interpolation points:     min:  72 max:  72



 =====
 S C F  ***  ScaSCF  ***
 =====
  
 Initial density matrix is calculated as sum of fragments

 CYCLE    1
 SCF Error: norm([F,P])=      3.647540216127, max([F,P])=      0.990867588574
 orbitals (Q,E):
 ---------------
 A :44...63          ( 2.00    -0.7393)  ( 2.00    -0.6629)  ( 2.00    -0.4253)  ( 2.00    -0.3485)
                     ( 2.00    -0.3483)  ( 2.00    -0.2999)  ( 2.00    -0.2999)  ( 2.00    -0.2709)
                     ( 2.00    -0.2471)  ( 2.00    -0.2454)  ( 0.00    -0.0908)  ( 0.00     0.0688)
                     ( 0.00     0.0765)  ( 0.00     0.1103)  ( 0.00     0.1103)  ( 0.00     0.1432)
                     ( 0.00     0.1433)  ( 0.00     0.1483)  ( 0.00     0.1528)  ( 0.00     0.1742)

 CYCLE    2
   MIX coefficients:  0.8000  0.2000
 SCF Error: norm([F,P])=      0.302212931046, max([F,P])=      0.081292470316
 orbitals (Q,E):
 ---------------
 A :44...54          ( 2.00    -0.6807)  ( 2.00    -0.6081)  ( 2.00    -0.3751)  ( 2.00    -0.2998)
                     ( 2.00    -0.2996)  ( 2.00    -0.2447)  ( 2.00    -0.2447)  ( 2.00    -0.2173)
                     ( 2.00    -0.1953)  ( 2.00    -0.1936)  ( 0.00    -0.0427)

 CYCLE    3
  SDIIS (wt  0.000): -0.8978  1.8978
 A-DIIS (wt  1.000):  0.0000  1.0000
  DIIS coefficients:  0.0000  1.0000
 SCF Error: norm([F,P])=      0.167205204439, max([F,P])=      0.049735951664
 orbitals (Q,E):
 ---------------
[...]
 <Apr18-2019> <13:51:14>  energy change                      -0.23850829     0.00010000    F
 <Apr18-2019> <13:51:14>  constrained gradient max            0.17919484     0.00010000    F
 <Apr18-2019> <13:51:14>  constrained gradient rms            0.08699980     0.00006667    F
 <Apr18-2019> <13:51:14>  gradient max                        0.17919484
 <Apr18-2019> <13:51:14>  gradient rms                        0.08699980
 <Apr18-2019> <13:51:14>  cart. step max                      0.11339618     0.01000000    F
 <Apr18-2019> <13:51:14>  cart. step rms                      0.06110412     0.00666667    F
  Coordinates in Geometry Cycle 2
    Atom         X           Y           Z   (Angstrom)
    1.Br       -4.938766    3.045366    0.007921
    2.Br       -3.704364    1.033329    0.072340
    3.Br       -6.132251    5.220224   -0.217462
 <Apr18-2019> <13:51:14>  >>>> CORORT
 <Apr18-2019> <13:51:14>  >>>> CLSMAT
 <Apr18-2019> <13:51:14>  >>>> ORTHON
 <Apr18-2019> <13:51:14>  >>>> GENPT
 <Apr18-2019> <13:51:14>  Block Length= 128
 <Apr18-2019> <13:51:14>  >>>> PTBAS
 <Apr18-2019> <13:51:14>  >>>> CYCLE
 <Apr18-2019> <13:51:14>              |Error|         MaxErr       Wt(A-DIIS)
 <Apr18-2019> <13:51:14>      1      0.76603732      0.22986319
 <Apr18-2019> <13:51:14>      2      0.04547221      0.00994841    100.0
 <Apr18-2019> <13:51:14>      3      0.07290027      0.01293033    100.0
 <Apr18-2019> <13:51:14>      4      0.01592224      0.00341624      2.4
 <Apr18-2019> <13:51:14>      5      0.00990720      0.00169466      0.7
 <Apr18-2019> <13:51:14>      6      0.00179212      0.00031283      0.0
 <Apr18-2019> <13:51:14>      7      0.00072803      0.00011607      0.0
 <Apr18-2019> <13:51:15>      8      0.00009067      0.00001769      0.0
 <Apr18-2019> <13:51:15>      9      0.00001688      0.00000260      0.0
 <Apr18-2019> <13:51:15>     10      0.00000113      0.00000020      0.0
 <Apr18-2019> <13:51:15>  SCF converged
 <Apr18-2019> <13:51:15>     11      0.00000075      0.00000014      0.0
 <Apr18-2019> <13:51:15>  >>>> TOTEN
 <Apr18-2019> <13:51:15>  >>>> POPAN
 <Apr18-2019> <13:51:15>  >>>> DEBYE
 <Apr18-2019> <13:51:15>  >>>> ENGRAD
 <Apr18-2019> <13:51:15>  current energy                               -0.27123840 Hartree
 <Apr18-2019> <13:51:15>  energy change                      -0.03273011     0.00010000    F
 <Apr18-2019> <13:51:15>  constrained gradient max            0.09368472     0.00010000    F
 <Apr18-2019> <13:51:15>  constrained gradient rms            0.04472449     0.00006667    F
 <Apr18-2019> <13:51:15>  gradient max                        0.09368472
 <Apr18-2019> <13:51:15>  gradient rms                        0.04472449
 <Apr18-2019> <13:51:15>  cart. step max                      0.13591459     0.01000000    F
 <Apr18-2019> <13:51:15>  cart. step rms                      0.06924048     0.00666667    F
  Coordinates in Geometry Cycle 3
    Atom         X           Y           Z   (Angstrom)
    1.Br       -4.920278    3.061333   -0.023875
    2.Br       -3.679701    0.897414    0.141644
    3.Br       -6.175402    5.340172   -0.254970
 <Apr18-2019> <13:51:15>  >>>> CORORT
 <Apr18-2019> <13:51:15>  >>>> CLSMAT
 <Apr18-2019> <13:51:15>  >>>> ORTHON
 <Apr18-2019> <13:51:15>  >>>> GENPT
 <Apr18-2019> <13:51:15>  Block Length= 128
 <Apr18-2019> <13:51:15>  >>>> PTBAS
 <Apr18-2019> <13:51:15>  >>>> CYCLE
 <Apr18-2019> <13:51:16>              |Error|         MaxErr       Wt(A-DIIS)
 <Apr18-2019> <13:51:16>      1      0.63123395      0.18359969
 <Apr18-2019> <13:51:16>      2      0.03893481      0.00754843    100.0
 <Apr18-2019> <13:51:16>      3      0.09137408      0.01817143    100.0
 <Apr18-2019> <13:51:16>      4      0.02556826      0.00405704      3.1
 <Apr18-2019> <13:51:16>      5      0.00514284      0.00106698      0.1
 <Apr18-2019> <13:51:16>      6      0.00272026      0.00052961      0.0
 <Apr18-2019> <13:51:16>      7      0.00022709      0.00003921      0.0
 <Apr18-2019> <13:51:16>      8      0.00005251      0.00001451      0.0
 <Apr18-2019> <13:51:16>      9      0.00001684      0.00000375      0.0
 <Apr18-2019> <13:51:17>     10      0.00000213      0.00000044      0.0
 <Apr18-2019> <13:51:17>  SCF converged
 <Apr18-2019> <13:51:17>     11      0.00000058      0.00000010      0.0
 <Apr18-2019> <13:51:17>  >>>> TOTEN
 <Apr18-2019> <13:51:17>  >>>> POPAN
 <Apr18-2019> <13:51:17>  >>>> DEBYE
 <Apr18-2019> <13:51:17>  >>>> ENGRAD
 <Apr18-2019> <13:51:17>  current energy                               -0.28656479 Hartree
 <Apr18-2019> <13:51:17>  energy change                      -0.01532639     0.00010000    F
 <Apr18-2019> <13:51:17>  constrained gradient max            0.03662544     0.00010000    F
 <Apr18-2019> <13:51:17>  constrained gradient rms            0.01716484     0.00006667    F
 <Apr18-2019> <13:51:17>  gradient max                        0.03662544
 <Apr18-2019> <13:51:17>  gradient rms                        0.01716484
 <Apr18-2019> <13:51:17>  cart. step max                      0.13295439     0.01000000    F
 <Apr18-2019> <13:51:17>  cart. step rms                      0.07888884     0.00666667    F
  Coordinates in Geometry Cycle 4
    Atom         X           Y           Z   (Angstrom)
    1.Br       -4.909782    3.078161   -0.047443
    2.Br       -3.727806    0.785197    0.274599
    3.Br       -6.137793    5.435561   -0.364357
 <Apr18-2019> <13:51:17>  >>>> CORORT
 <Apr18-2019> <13:51:17>  >>>> CLSMAT
 <Apr18-2019> <13:51:17>  >>>> ORTHON
 <Apr18-2019> <13:51:17>  >>>> GENPT
 <Apr18-2019> <13:51:17>  Block Length= 128
 <Apr18-2019> <13:51:17>  >>>> PTBAS
 <Apr18-2019> <13:51:17>  >>>> CYCLE
 <Apr18-2019> <13:51:17>              |Error|         MaxErr       Wt(A-DIIS)
 <Apr18-2019> <13:51:17>      1      0.37217436      0.10586336
 <Apr18-2019> <13:51:17>      2      0.04240547      0.00833284    100.0
 <Apr18-2019> <13:51:18>      3      0.13415967      0.02894817    100.0
 <Apr18-2019> <13:51:18>      4      0.04253248      0.00889191      8.0
 <Apr18-2019> <13:51:18>      5      0.00852096      0.00179437      0.8
 <Apr18-2019> <13:51:18>      6      0.00170376      0.00033266      0.0
 <Apr18-2019> <13:51:18>      7      0.00020743      0.00004866      0.0
 <Apr18-2019> <13:51:18>      8      0.00006982      0.00001080      0.0
 <Apr18-2019> <13:51:18>      9      0.00001226      0.00000287      0.0
 <Apr18-2019> <13:51:18>     10      0.00000274      0.00000049      0.0
 <Apr18-2019> <13:51:18>  SCF converged
 <Apr18-2019> <13:51:18>     11      0.00000068      0.00000014      0.0
 <Apr18-2019> <13:51:18>  >>>> TOTEN
 <Apr18-2019> <13:51:19>  >>>> POPAN
 <Apr18-2019> <13:51:19>  >>>> DEBYE
 <Apr18-2019> <13:51:19>  >>>> ENGRAD
 <Apr18-2019> <13:51:19>  current energy                               -0.28997193 Hartree
 <Apr18-2019> <13:51:19>  energy change                      -0.00340714     0.00010000    F
 <Apr18-2019> <13:51:19>  constrained gradient max            0.01102155     0.00010000    F
 <Apr18-2019> <13:51:19>  constrained gradient rms            0.00544246     0.00006667    F
 <Apr18-2019> <13:51:19>  gradient max                        0.01102155
 <Apr18-2019> <13:51:19>  gradient rms                        0.00544246
 <Apr18-2019> <13:51:19>  cart. step max                      0.05142551     0.01000000    F
 <Apr18-2019> <13:51:19>  cart. step rms                      0.03071233     0.00666667    F
  Coordinates in Geometry Cycle 5
    Atom         X           Y           Z   (Angstrom)
    1.Br       -4.906175    3.087067   -0.057762
    2.Br       -3.744747    0.739202    0.326024
    3.Br       -6.124458    5.472650   -0.405463
 <Apr18-2019> <13:51:19>  >>>> CORORT
 <Apr18-2019> <13:51:19>  >>>> CLSMAT
 <Apr18-2019> <13:51:19>  >>>> ORTHON
 <Apr18-2019> <13:51:19>  >>>> GENPT
 <Apr18-2019> <13:51:19>  Block Length= 128
 <Apr18-2019> <13:51:19>  >>>> PTBAS
 <Apr18-2019> <13:51:19>  >>>> CYCLE
 <Apr18-2019> <13:51:19>              |Error|         MaxErr       Wt(A-DIIS)
 <Apr18-2019> <13:51:19>      1      0.14245756      0.04281391
 <Apr18-2019> <13:51:19>      2      0.02281753      0.00496330    100.0
 <Apr18-2019> <13:51:19>      3      0.08290401      0.01959590    100.0
 <Apr18-2019> <13:51:19>      4      0.02834386      0.00614500    100.0
 <Apr18-2019> <13:51:19>      5      0.00301630      0.00051527      0.0
 <Apr18-2019> <13:51:20>      6      0.00053412      0.00008623      0.0
 <Apr18-2019> <13:51:20>      7      0.00010383      0.00001722      0.0
 <Apr18-2019> <13:51:20>      8      0.00002464      0.00000358      0.0
 <Apr18-2019> <13:51:20>      9      0.00000756      0.00000211      0.0
 <Apr18-2019> <13:51:20>     10      0.00000135      0.00000029      0.0
 <Apr18-2019> <13:51:20>  SCF converged
 <Apr18-2019> <13:51:20>     11      0.00000031      0.00000008      0.0
 <Apr18-2019> <13:51:20>  >>>> TOTEN
 <Apr18-2019> <13:51:20>  >>>> POPAN
 <Apr18-2019> <13:51:20>  >>>> DEBYE
 <Apr18-2019> <13:51:20>  >>>> ENGRAD
 <Apr18-2019> <13:51:20>  current energy                               -0.29030690 Hartree
 <Apr18-2019> <13:51:20>  energy change                      -0.00033497     0.00010000    F
 <Apr18-2019> <13:51:20>  constrained gradient max            0.00498367     0.00010000    F
 <Apr18-2019> <13:51:20>  constrained gradient rms            0.00246105     0.00006667    F
 <Apr18-2019> <13:51:20>  gradient max                        0.00498367
 <Apr18-2019> <13:51:20>  gradient rms                        0.00246105
 <Apr18-2019> <13:51:20>  cart. step max                      0.01173232     0.01000000    F
 <Apr18-2019> <13:51:20>  cart. step rms                      0.00665880     0.00666667    T
  Coordinates in Geometry Cycle 6
    Atom         X           Y           Z   (Angstrom)
    1.Br       -4.908756    3.088215   -0.055724
    2.Br       -3.751957    0.736783    0.335718
    3.Br       -6.114668    5.473921   -0.417195
 <Apr18-2019> <13:51:20>  >>>> CORORT
 <Apr18-2019> <13:51:20>  >>>> CLSMAT
 <Apr18-2019> <13:51:20>  >>>> ORTHON
 <Apr18-2019> <13:51:20>  >>>> GENPT
 <Apr18-2019> <13:51:20>  Block Length= 128
 <Apr18-2019> <13:51:21>  >>>> PTBAS
 <Apr18-2019> <13:51:21>  >>>> CYCLE
 <Apr18-2019> <13:51:21>              |Error|         MaxErr       Wt(A-DIIS)
 <Apr18-2019> <13:51:21>      1      0.01568942      0.00483299
 <Apr18-2019> <13:51:21>      2      0.00436142      0.00110533    100.0
 <Apr18-2019> <13:51:21>      3      0.00108946      0.00016937    100.0
 <Apr18-2019> <13:51:21>      4      0.00128918      0.00018866      0.0
 <Apr18-2019> <13:51:21>      5      0.00022417      0.00003879      0.0
 <Apr18-2019> <13:51:21>      6      0.00013824      0.00002949      0.0
 <Apr18-2019> <13:51:21>      7      0.00001235      0.00000276      0.0
 <Apr18-2019> <13:51:21>      8      0.00000536      0.00000144      0.0
 <Apr18-2019> <13:51:22>      9      0.00000079      0.00000020      0.0
 <Apr18-2019> <13:51:22>  SCF converged
 <Apr18-2019> <13:51:22>     10      0.00000010      0.00000002      0.0
 <Apr18-2019> <13:51:22>  >>>> TOTEN
 <Apr18-2019> <13:51:22>  >>>> POPAN
 <Apr18-2019> <13:51:22>  >>>> DEBYE
 <Apr18-2019> <13:51:22>  >>>> ENGRAD
 <Apr18-2019> <13:51:22>  current energy                               -0.29032830 Hartree
 <Apr18-2019> <13:51:22>  energy change                      -0.00002140     0.00010000    T
 <Apr18-2019> <13:51:22>  constrained gradient max            0.00447803     0.00010000    F
 <Apr18-2019> <13:51:22>  constrained gradient rms            0.00219440     0.00006667    F
 <Apr18-2019> <13:51:22>  gradient max                        0.00447803
 <Apr18-2019> <13:51:22>  gradient rms                        0.00219440
 <Apr18-2019> <13:51:22>  cart. step max                      0.01737262     0.01000000    F
 <Apr18-2019> <13:51:22>  cart. step rms                      0.01034532     0.00666667    F
  Coordinates in Geometry Cycle 7
    Atom         X           Y           Z   (Angstrom)
    1.Br       -4.926128    3.099445   -0.044488
    2.Br       -3.743591    0.737948    0.325636
    3.Br       -6.105661    5.461526   -0.418350
 <Apr18-2019> <13:51:22>  >>>> CORORT
 <Apr18-2019> <13:51:22>  >>>> CLSMAT
 <Apr18-2019> <13:51:22>  >>>> ORTHON
 <Apr18-2019> <13:51:22>  >>>> GENPT
 <Apr18-2019> <13:51:22>  Block Length= 128
 <Apr18-2019> <13:51:22>  >>>> PTBAS
 <Apr18-2019> <13:51:22>  >>>> CYCLE
 <Apr18-2019> <13:51:22>              |Error|         MaxErr       Wt(A-DIIS)
 <Apr18-2019> <13:51:22>      1      0.06967324      0.02041824
 <Apr18-2019> <13:51:22>      2      0.03435851      0.00884997    100.0
 <Apr18-2019> <13:51:23>      3      0.00666702      0.00114121    100.0
 <Apr18-2019> <13:51:23>      4      0.00964370      0.00140667    100.0
 <Apr18-2019> <13:51:23>      5      0.00208760      0.00051432      0.0
 <Apr18-2019> <13:51:23>      6      0.00060178      0.00012455      0.0
 <Apr18-2019> <13:51:23>      7      0.00008846      0.00001975      0.0
 <Apr18-2019> <13:51:23>      8      0.00002635      0.00000745      0.0
 <Apr18-2019> <13:51:23>      9      0.00000488      0.00000130      0.0
 <Apr18-2019> <13:51:23>     10      0.00000044      0.00000010      0.0
 <Apr18-2019> <13:51:23>  SCF converged
 <Apr18-2019> <13:51:23>     11      0.00000018      0.00000004      0.0
 <Apr18-2019> <13:51:23>  >>>> TOTEN
 <Apr18-2019> <13:51:23>  >>>> POPAN
 <Apr18-2019> <13:51:24>  >>>> DEBYE
 <Apr18-2019> <13:51:24>  >>>> ENGRAD
 <Apr18-2019> <13:51:24>  current energy                               -0.29039878 Hartree
 <Apr18-2019> <13:51:24>  energy change                      -0.00007048     0.00010000    T
 <Apr18-2019> <13:51:24>  constrained gradient max            0.00069006     0.00010000    F
 <Apr18-2019> <13:51:24>  constrained gradient rms            0.00036652     0.00006667    F
 <Apr18-2019> <13:51:24>  gradient max                        0.00069006
 <Apr18-2019> <13:51:24>  gradient rms                        0.00036652
 <Apr18-2019> <13:51:24>  cart. step max                      0.00346059     0.01000000    T
 <Apr18-2019> <13:51:24>  cart. step rms                      0.00214031     0.00666667    T
  Coordinates in Geometry Cycle 8
    Atom         X           Y           Z   (Angstrom)
    1.Br       -4.925035    3.099455   -0.045705
    2.Br       -3.744041    0.734547    0.328551
    3.Br       -6.106305    5.464917   -0.420048
 <Apr18-2019> <13:51:24>  >>>> CORORT
 <Apr18-2019> <13:51:24>  >>>> CLSMAT
 <Apr18-2019> <13:51:24>  >>>> ORTHON
 <Apr18-2019> <13:51:24>  >>>> GENPT
 <Apr18-2019> <13:51:24>  Block Length= 128
 <Apr18-2019> <13:51:24>  >>>> PTBAS
 <Apr18-2019> <13:51:24>  >>>> CYCLE
 <Apr18-2019> <13:51:24>              |Error|         MaxErr       Wt(A-DIIS)
 <Apr18-2019> <13:51:24>      1      0.01182386      0.00396653
 <Apr18-2019> <13:51:24>      2      0.00126935      0.00028790    100.0
 <Apr18-2019> <13:51:24>      3      0.00365210      0.00086234    100.0
 <Apr18-2019> <13:51:24>      4      0.00110111      0.00025053      0.0
 <Apr18-2019> <13:51:24>      5      0.00030633      0.00006373      0.0
 <Apr18-2019> <13:51:24>      6      0.00002887      0.00000519      0.0
 <Apr18-2019> <13:51:25>      7      0.00000797      0.00000160      0.0
 <Apr18-2019> <13:51:25>      8      0.00000158      0.00000026      0.0
 <Apr18-2019> <13:51:25>  SCF converged
 <Apr18-2019> <13:51:25>      9      0.00000035      0.00000008      0.0
 <Apr18-2019> <13:51:25>  >>>> TOTEN
 <Apr18-2019> <13:51:25>  >>>> POPAN
 <Apr18-2019> <13:51:25>  >>>> DEBYE
 <Apr18-2019> <13:51:25>  >>>> ENGRAD
 <Apr18-2019> <13:51:25>  current energy                               -0.29040326 Hartree
 <Apr18-2019> <13:51:25>  energy change                      -0.00000448     0.00010000    T
 <Apr18-2019> <13:51:25>  constrained gradient max            0.00010891     0.00010000    F
 <Apr18-2019> <13:51:25>  constrained gradient rms            0.00005032     0.00006667    T
 <Apr18-2019> <13:51:25>  gradient max                        0.00010891
 <Apr18-2019> <13:51:25>  gradient rms                        0.00005032
 <Apr18-2019> <13:51:25>  cart. step max                      0.00052687     0.01000000    T
 <Apr18-2019> <13:51:25>  cart. step rms                      0.00026202     0.00666667    T
  Coordinates in Geometry Cycle 9
    Atom         X           Y           Z   (Angstrom)
    1.Br       -4.925127    3.099640   -0.045734
    2.Br       -3.744205    0.733961    0.329149
    3.Br       -6.106049    5.465319   -0.420616
 <Apr18-2019> <13:51:25>  >>>> CORORT
 <Apr18-2019> <13:51:25>  >>>> CLSMAT
 <Apr18-2019> <13:51:25>  >>>> ORTHON
 <Apr18-2019> <13:51:25>  >>>> GENPT
 <Apr18-2019> <13:51:25>  Block Length= 128
 <Apr18-2019> <13:51:25>  >>>> PTBAS
 <Apr18-2019> <13:51:25>  >>>> CYCLE
 <Apr18-2019> <13:51:25>              |Error|         MaxErr       Wt(A-DIIS)
 <Apr18-2019> <13:51:25>      1      0.00175565      0.00058673
 <Apr18-2019> <13:51:26>      2      0.00047160      0.00011632    100.0
 <Apr18-2019> <13:51:26>      3      0.00190992      0.00047759    100.0
 <Apr18-2019> <13:51:26>      4      0.00068524      0.00016875      0.0
 <Apr18-2019> <13:51:26>      5      0.00004848      0.00001099      0.0
 <Apr18-2019> <13:51:26>      6      0.00000796      0.00000124      0.0
 <Apr18-2019> <13:51:26>      7      0.00000157      0.00000033      0.0
 <Apr18-2019> <13:51:26>  SCF converged
 <Apr18-2019> <13:51:26>      8      0.00000039      0.00000009      0.0
 <Apr18-2019> <13:51:26>  >>>> TOTEN
 <Apr18-2019> <13:51:26>  >>>> POPAN
 <Apr18-2019> <13:51:26>  >>>> DEBYE
 <Apr18-2019> <13:51:26>  >>>> ENGRAD
 <Apr18-2019> <13:51:26>  current energy                               -0.29040349 Hartree
 <Apr18-2019> <13:51:26>  energy change                      -0.00000023     0.00010000    T
 <Apr18-2019> <13:51:26>  constrained gradient max            0.00000246     0.00010000    T
 <Apr18-2019> <13:51:26>  constrained gradient rms            0.00000130     0.00006667    T
 <Apr18-2019> <13:51:26>  gradient max                        0.00000246
 <Apr18-2019> <13:51:26>  gradient rms                        0.00000130
 <Apr18-2019> <13:51:26>  cart. step max                      0.00001339     0.01000000    T
 <Apr18-2019> <13:51:26>  cart. step rms                      0.00000777     0.00666667    T
 <Apr18-2019> <13:51:26>  GEOMETRY CONVERGED
 <Apr18-2019> <13:51:26>  Calculating Energy Terms for Final Geometry
  Coordinates in Geometry Cycle 9
    Atom         X           Y           Z   (Angstrom)
    1.Br       -4.925127    3.099640   -0.045734
    2.Br       -3.744205    0.733961    0.329149
    3.Br       -6.106049    5.465319   -0.420616
 <Apr18-2019> <13:51:27>  >>>> CORORT
 <Apr18-2019> <13:51:27>  >>>> CLSMAT
 <Apr18-2019> <13:51:27>  >>>> ORTHON
 <Apr18-2019> <13:51:27>  >>>> GENPT
 <Apr18-2019> <13:51:27>  Block Length= 128
 <Apr18-2019> <13:51:27>  >>>> PTBAS
 <Apr18-2019> <13:51:27>  >>>> CYCLE
 <Apr18-2019> <13:51:27>              |Error|         MaxErr       Wt(A-DIIS)
 <Apr18-2019> <13:51:27>      1      0.00000009      0.00000003
 <Apr18-2019> <13:51:27>      2      0.00000026      0.00000009    100.0
 <Apr18-2019> <13:51:27>  SCF converged
 <Apr18-2019> <13:51:27>      3      0.00000091      0.00000027    100.0
 <Apr18-2019> <13:51:27>  >>>> TOTEN
 <Apr18-2019> <13:51:27>  >>>> POPAN
 <Apr18-2019> <13:51:27>  >>>> DEBYE
 <Apr18-2019> <13:51:27>  >>>> AMETS
 <Apr18-2019> <13:51:27>  >>>> POPUL
 <Apr18-2019> <13:51:27>   Bond Energy          -0.29040349 a.u.
 <Apr18-2019> <13:51:27>   Bond Energy          -7.90228097 eV
 <Apr18-2019> <13:51:27>   Bond Energy        -182.23       kcal/mol
 <Apr18-2019> <13:51:27>  >>>> ENHESS
 <Apr18-2019> <13:51:27>  === NUCLEUS:     1
 <Apr18-2019> <13:51:30>  === NUCLEUS:     2
 <Apr18-2019> <13:51:33>  === NUCLEUS:     3
 <Apr18-2019> <13:51:35>  >>>> CALC_HESS_PMAT
 <Apr18-2019> <13:51:36>  >>>> CALC_HESS_WMAT
 <Apr18-2019> <13:51:36>  NORMAL TERMINATION
 <Apr18-2019> <13:51:36>  END
