
Create H   file=TZ2P-H
XC
  GGA BP86
End
End Input

 *******************************************************************************
 *                                                                             *
 *  -------------------------------------                                      *
 *   Amsterdam Density Functional  (ADF)         development version           *
 *  -------------------------------------                                      *
 *                                               r61132 2017-09-08             *
 *                                                                             *
 *                                                                             *
 *                              =================                              *
 *                              |               |                              *
 *                              |     A D F     |                              *
 *                              |               |                              *
 *                              =================                              *
 *                                                                             *
 *                                                                             *
 *   Online information and documentation:  https://www.scm.com/support/       *
 *   E-mail:  support@scm.com   info@scm.com                                   *
 *                                                                             *
 *   Scientific publications using ADF results must be properly referenced     *
 *   See the User Manuals (or the web site) for recommended citations          *
 *   The terms and conditions of the End User License Agreement apply to       *
 *   the use of ADF, https://www.scm.com/license-terms/                        *
 *                                                                             *
 **********************  x86_64_linux_intel / intelmpi  ************************
 
 Licensed to: VU/FEW (+ SARA) / ALGEMEEN / Amsterdam / THE NETHERLANDS
 SCM User ID: u7668
  
 ADF development version  RunTime: Apr18-2019 21:09:10  Nodes: 1  Procs: 1

 Temporary files are created in /local/datastore0/tcst25/186780/kid_0.X8ntF4

 Hydrogen (TZ2P)



 ===========================
 A T T A C H E D   F I L E S
 ===========================
  
 CREATE - Data File:    TZ2P-H
                        Hydrogen (TZ2P)



 ===============================
 M O D E L   P A R A M E T E R S
 ===============================
  
 DENSITY FUNCTIONAL POTENTIAL (scf)
    LDA:                               VWN                                      
    Gradient Corrections:              Becke88 Perdew86                        == Not Default ==

 SPIN  (restricted / unrestr.)
    Molecule:                          Restricted                               

 OTHER ASPECTS
    Relativistic Corrections:          ---                                      

    Nuclear Charge Density Model:      Point Charge Nuclei                      
    Core Treatment:                    Frozen Orbital(s)                        

    Hyperfine or Zeeman Interaction:   ---                                      



 =====================================
 S Y M M E T R Y ,   E L E C T R O N S
 =====================================
  
 Symmetry: ATOM

 Irreducible Representations, including subspecies
 -------------------------------------------------
 S
 P:x  P:y  P:z
 D:z2  D:x2-y2  D:xy  D:xz  D:yz
 F:z3  F:z  F:xyz  F:z2x  F:z2y  F:x  F:y


 Configuration of Valence Electrons
 ==================================

          Occupation Numbers
          -------------------------------------------------
 S        1
 P        0
 D        0
 F        0
          -------------------------------------------------

 Total:   1

 Net Charge: 0 (Nuclei minus Electrons)

 Preset values for MO occupations will be applied through SCF cycle no. 1000000
 Thereafter, the program will assign electrons to MOs that are spatially
 similar to the occupied MOs in a "reference" cycle ("KeepOrbitals").
 The reference cycle is always the PREVIOUS cycle: it will evolve with
 the SCF procedure.



 ================================
 (Slater-type)  F U N C T I O N S  ***  (Basis and Fit)  ***
 ================================
  

 Atom Type    1  (H)
 ==============

 Valence Basis Sets:   5
 -----------------------
   1 S    0.690000
   1 S    0.920000
   1 S    1.580000
   2 P    1.250000
   3 D    2.500000


 BAS: List of all Elementary Cartesian Basis Functions
 =====================================================

 The numbering in the list below (to the right of the function characteristics) is referred
 to in print-outs of MO eigenvectors and Mulliken populations in the BAS representation
 (as contrasted to the SFO representation).

 Notes:
 1. The functions are characterized by a polynomial prefactor (powers of x,y,z and r) and
    an exponential decay factor alpha.
 2. Since the basis sets are specific for an atom TYPE, the individual functions occur on
    all atoms of that type.
 3. The word 'Core' in the left margin signals that it is a Core Function (CF) : not a
    degree of freedom in the valence set, but only used to ensure orthogonalization of
    the other valence basis functions on the frozen Core Orbitals.


 (power of) X  Y  Z  R     Alpha  on Atom
            ==========     =====     ==========

 H                                    1
                                  ---------------------------------------------------------------------------
            0  0  0  0     0.690      1
            0  0  0  0     0.920      2
            0  0  0  0     1.580      3
            1  0  0  0     1.250      4
            0  1  0  0     1.250      5
            0  0  1  0     1.250      6
            2  0  0  0     2.500      7
            1  1  0  0     2.500      8
            1  0  1  0     2.500      9
            0  2  0  0     2.500     10
            0  1  1  0     2.500     11
            0  0  2  0     2.500     12

 Total number of charge fitting functions (nprimf)        50
 Total number of Cartesian basis functions (naos)         12
 Total number of Cartesian core functions  (ncos)          0



 BAS: List of all Elementary Cartesian Basis Functions
 =====================================================

 The numbering in the list below (to the right of the function characteristics) is referred
 to in print-outs of MO eigenvectors and Mulliken populations in the BAS representation
 (as contrasted to the SFO representation).

 Notes:
 1. The functions are characterized by a polynomial prefactor (powers of x,y,z and r) and
    an exponential decay factor alpha.
 2. Since the basis sets are specific for an atom TYPE, the individual functions occur on
    all atoms of that type.
 3. The word 'Core' in the left margin signals that it is a Core Function (CF) : not a
    degree of freedom in the valence set, but only used to ensure orthogonalization of
    the other valence basis functions on the frozen Core Orbitals.


 (power of) X  Y  Z  R     Alpha  on Atom
            ==========     =====     ==========

 H                                    1
                                  ---------------------------------------------------------------------------
            0  0  0  0     0.690      1
            0  0  0  0     0.920      2
            0  0  0  0     1.580      3
            1  0  0  0     1.250      4
            0  1  0  0     1.250      5
            0  0  1  0     1.250      6
            2  0  0  0     2.500      7
            1  1  0  0     2.500      8
            1  0  1  0     2.500      9
            0  2  0  0     2.500     10
            0  1  1  0     2.500     11
            0  0  2  0     2.500     12
1
 ***************************************************************************************************



                                              ***********************
                                              *  T E C H N I C A L  *
                                              ***********************
  



 =============================================================
 P A R A L L E L I Z A T I O N  and  V E C T O R I Z A T I O N
 =============================================================
  
 Nr of parallel processes:                                1
 Maximum vector length in NumInt loops:                 128

 IO buffersize (Mb):                                     64.000000



 =====================
 S C F   U P D A T E S
 =====================
  
 Max. nr. of cycles:                               300
 Convergence criterion:                              0.0000000100
   secondary criterion:                              0.0000000100

 Mix parameter (when DIIS does not apply):           0.2000000000
 Special mix parameter for the first cycle:          1.0000000000
 Mixed ADIIS+DIIS will be used
    Max number of expansion vectors:                10
    Pure ADIIS when Max([F,P]) is above              0.1000000000
    Pure DIIS when Max([F,P]) is below               0.0010000000
 Automatic ElectronSmearing (in case of problematic SCF convergence) disabled



 =================
 P R E C I S I O N  ***  (General: NumInt, NeglectFunctionTails, ...)  ***
 =================
  

 NumInt:           Target precision:                12.0000000000
 -------           Initial precision:               10.0000000000
                   Min. precision (optimization):   10.0000000000

 Neglect Functions:          Basis functions:        0.1000000000E-13
 ------------------          Fit functions:          0.1000000000E-13



 ===========================
 L I N E A R   S C A L I N G
 ===========================
  

 Cut-off radii density fit:                        0.1000000000E-97
 Overlap cut-off criterion AO matrix elements:     0.1000000000E-97
 Cut-offs for Coulomb potential and fitted density:0.1000000000E-97
 Cut-off criterion for Coulomb multipole terms:    0.1000000000E-97
 Progressive Convergence parameter:                 0.000000000    
1
 ***************************************************************************************************



                                            ***************************
                                            *  C O M P U T A T I O N  *
                                            ***************************
  

 Number of elements of the density matrix on this node (used, total):        78        78



 ===========================================
 Numerical Integration : Fuzzy Cells (Becke)
 ===========================================
  
 Becke grid quality: VERYGOOD       
  
 Lebedev angular grid order:             min:  13 max:  41
 Nr. of radial points:                   min:  64 max:  64

 Total nr. of points:         64
 Nr. of blocks:                1
 Block length:                64
 Nr. of dummy points:          0


 Test of Precision of the Numerical Integration Grid
 ===================================================

 Integral of the Total Core Density:                   0.00000000000000



 ========================
 Density Fitting (zlmFit)
 ========================
  
 ZlmFit Fit Quality: VERYGOOD       
  
 Max L-expansion:                        min:   0 max:   0
 Nr. of radial interpolation points:     min: 130 max: 130



 =====
 S C F  ***  ScaSCF  ***
 =====
  

 CYCLE    1
 SCF Error: norm([F,P])=      0.000000000000, max([F,P])=      0.000000000000
 orbitals (Q,E):
 ---------------
 S :1...3            ( 1.00    -0.5000)  ( 0.00    -0.0900)  ( 0.00     1.2939)
 P :1...1            ( 0.00     0.1562)
 D :1...1            ( 0.00     2.2917)

 CYCLE    2
 SCF Error: norm([F,P])=      0.030526162244, max([F,P])=      0.029682528591
 orbitals (Q,E):
 ---------------
 S :1...2            ( 1.00    -0.2270)  ( 0.00     0.1038)
 P :1...1            ( 0.00     0.4131)
 D :1...1            ( 0.00     2.5768)

 CYCLE    3
  SDIIS (wt  0.000):  0.1733  0.8267
 A-DIIS (wt  1.000):  0.0000  1.0000
  DIIS coefficients:  0.0000  1.0000
 SCF Error: norm([F,P])=      0.007183061946, max([F,P])=      0.006712148192
 orbitals (Q,E):
 ---------------
 S :1...2            ( 1.00    -0.2462)  ( 0.00     0.0917)
 P :1...1            ( 0.00     0.3973)
 D :1...1            ( 0.00     2.5583)

 CYCLE    4
  SDIIS (wt  0.999):  0.1398  0.8602
 A-DIIS (wt  0.001):  0.0000  1.0000
  DIIS coefficients:  0.1396  0.8604
 SCF Error: norm([F,P])=      0.001175086780, max([F,P])=      0.001143060931
 orbitals (Q,E):
 ---------------
 S :1...2            ( 1.00    -0.2434)  ( 0.00     0.0933)
 P :1...1            ( 0.00     0.3996)
 D :1...1            ( 0.00     2.5611)

 CYCLE    5
  SDIIS (wt  1.000):  0.0219  0.9781
  DIIS coefficients:  0.0219  0.9781
 SCF Error: norm([F,P])=      0.000027525369, max([F,P])=      0.000023543474
 orbitals (Q,E):
 ---------------
 S :1...2            ( 1.00    -0.2435)  ( 0.00     0.0932)
 P :1...1            ( 0.00     0.3996)
 D :1...1            ( 0.00     2.5610)

 CYCLE    6
  SDIIS (wt  1.000): -0.0582  1.0582
  DIIS coefficients: -0.0582  1.0582
 SCF Error: norm([F,P])=      0.000001514450, max([F,P])=      0.000001285214
 orbitals (Q,E):
 ---------------
 S :1...2            ( 1.00    -0.2435)  ( 0.00     0.0932)
 P :1...1            ( 0.00     0.3996)
 D :1...1            ( 0.00     2.5610)

 CYCLE    7
  SDIIS (wt  1.000): -0.0031  1.0031
  DIIS coefficients: -0.0031  1.0031
 SCF Error: norm([F,P])=      0.000000004705, max([F,P])=      0.000000004158
 orbitals (Q,E):
 ---------------
 S :1...2            ( 1.00    -0.2435)  ( 0.00     0.0932)
 P :1...1            ( 0.00     0.3996)
 D :1...1            ( 0.00     2.5610)

 SCF CONVERGED

 CYCLE    8
1
 ***************************************************************************************************



                                                *******************
                                                *  R E S U L T S  *
                                                *******************
  
 *** Setting up for NEW gradients in Focky
 *** Using FIT density in Focky

 Orbital Energies, per Irrep and Spin:
 ======================================
                        Occup              E (au)              E (eV)       Diff (eV) with prev. cycle
                        -----      --------------------        ------       --------------------------
 S
               1        1.000     -0.24350452296405E+00        -6.626               4.48E-09
               2        0.000      0.93233330888585E-01         2.537
               3        0.000      0.15154066862623E+01        41.236
 P
               1        0.000      0.39955072057198E+00        10.872
 D
               1        0.000      0.25610214787646E+01        69.689


 Partially Occupied:
               1 S                -0.24350452296405E+00
  
 LUMO :        2 S                 0.93233330888585E-01
  


 Orbital Energies, all Irreps
 ========================================

 Irrep        no.  (spin)   Occup              E (au)                E (eV)
 ---------------------------------------------------------------------------
 S             1             1.00       -0.24350452296405E+00        -6.6261
 S             2             0.00        0.93233330888585E-01         2.5370
 P             1             0.00        0.39955072057198E+00        10.8723
 S             3             0.00        0.15154066862623E+01        41.2363
 D             1             0.00        0.25610214787646E+01        69.6889


 All Electron Calculation, thus no Orbital Energies of the Core Orbitals are calculated



 =======================================
 M U L L I K E N   P O P U L A T I O N S
 =======================================
  
 The survey below gives for each atom:
 a) the total charge (Z minus electrons)
 b) the net spin polarization (nr of electrons spin-A minus spin-B)
 c) for each spin the atomic electron valence density (integrated) per L-value.

 Atom              Charge    Spin density          S         P         D         F
 ----              ------    ------------       ------    ------    ------    ------
 1 H               0.0000                       1.0000    0.0000    0.0000    0.0000

 Populations of individual BAS functions
 ----------------------------------------
 1 H            0.1853  0.7115  0.1032  0.0000  0.0000  0.0000  0.0000  0.0000  0.0000  0.0000
                0.0000  0.0000

 Gross Charges per Atom (Z minus electrons)
 ==========================================
             0.0000
 Net Total:  0.00000000



 =======================================================================
 Electrostatic potential at the Nuclei due to electrons and other nuclei
 =======================================================================
  
         Atom                  Potential
         ----                  ---------
     1)   H                   0.94550094
 
 
 ========================
 No memory problems found
 ========================
 
 Maximum number of active allocate calls:         363
 
 *******************************************************************************

                             A D F   E X I T
 NORMAL TERMINATION



 =================
 Timing Statistics
 =================
  
 Total Used :                     CPU=        0.30      System=        0.02     Elapsed=        0.33

 Calls  Section                     ( Mean, Percentage )
 ---------------------------------------------------------------------------------------------------
     3  ><      ................      0.00    0.33             0.00    0.00             0.00    0.25
     1  INIT    ................      0.01    3.62             0.01   65.00             0.03    7.84
     1  GEOMET  ................      0.01    2.30             0.00    5.00             0.01    2.53
     1  INPUTA  ................      0.00    0.33             0.00    0.00             0.00    0.44
     1  MAINSY  ................      0.00    0.99             0.00   15.00             0.01    1.72
     1  SYMFIT  ................      0.00    0.00             0.00    0.00             0.00    0.24
     1  CORORT  ................      0.00    0.33             0.00    0.00             0.00    0.08
     1  SYMORB  ................      0.00    0.00             0.00    0.00             0.00    0.16
     1  CLSMAT  ................      0.00    1.32             0.00    0.00             0.00    1.21
     1  ORTHON  ................      0.00    0.33             0.00    0.00             0.00    0.38
     1  GENPT   ................      0.01    3.29             0.00    0.00             0.01    3.03
     1  PTBAS   ................      0.00    1.32             0.00    0.00             0.00    1.03
     8  FOCKY   ................      0.03   68.42             0.00   10.00             0.03   64.24
     8  FOCKTR  ................      0.00    1.97             0.00    0.00             0.00    1.72
     8  SDIIS   ................      0.00    3.62             0.00    0.00             0.00    3.68
     1  COREPS  ................      0.01    4.93             0.00    0.00             0.02    4.82
     1  POPAN   ................      0.00    0.99             0.00    5.00             0.00    1.15
     1  DEBYE   ................      0.00    0.33             0.00    0.00             0.00    0.15
     1  EXIT PROCEDURE .........      0.02    5.59             0.00    0.00             0.02    5.33


 Currently Open Files (EXIT00)
 ====================

 Unit    Access Format  Status   Type       Ident (file)
 -------------------------------------------------------
   3      SEQ    FORM   TRANSP  NORMAL      LOGFILE
                                          ( logfile )


 Buffered I/O statistics
 =======================
 Memory available:                     67108864
 Number of records fitting in memory:     16131
 Input :   0.2% of                        17478  *4k bytes
 Output:  15.2% of                         1046  *4k bytes
 Records from serial files evicted:           0
                    others evicted:           0
 Hash table lookups:      44676 with          0 conflicts (  0.00%)

 ***************************************************************************************************
 (LOGFILE)
 <Apr18-2019> <21:09:10>  ADF development version  RunTime: Apr18-2019 21:09:10  Nodes: 1  Procs: 1
 <Apr18-2019> <21:09:10>  Hydrogen (TZ2P)
 <Apr18-2019> <21:09:10>  RunType   : CREATE
 <Apr18-2019> <21:09:10>  Net Charge: 0 (Nuclei minus Electrons)
 <Apr18-2019> <21:09:10>  Symmetry  : ATOM
  Coordinates
    Atom         X           Y           Z   (Angstrom)
    1.H         0.000000    0.000000    0.000000
 <Apr18-2019> <21:09:10>  >>>> CORORT
 <Apr18-2019> <21:09:10>  >>>> CLSMAT
 <Apr18-2019> <21:09:10>  >>>> ORTHON
 <Apr18-2019> <21:09:10>  >>>> GENPT
 <Apr18-2019> <21:09:10>  Block Length=  64
 <Apr18-2019> <21:09:10>  >>>> PTBAS
 <Apr18-2019> <21:09:10>  >>>> CYCLE
 <Apr18-2019> <21:09:11>              |Error|         MaxErr       Wt(A-DIIS)
 <Apr18-2019> <21:09:11>      1      0.00000000      0.00000000
 <Apr18-2019> <21:09:11>      2      0.03052616      0.02968253
 <Apr18-2019> <21:09:11>      3      0.00718306      0.00671215    100.0
 <Apr18-2019> <21:09:11>      4      0.00117509      0.00114306      0.1
 <Apr18-2019> <21:09:11>      5      0.00002753      0.00002354      0.0
 <Apr18-2019> <21:09:11>      6      0.00000151      0.00000129      0.0
 <Apr18-2019> <21:09:11>      7      0.00000000      0.00000000      0.0
 <Apr18-2019> <21:09:11>  SCF converged
 <Apr18-2019> <21:09:11>      8      0.00000000      0.00000000      0.0
 <Apr18-2019> <21:09:11>  >>>> POPAN
 <Apr18-2019> <21:09:11>  >>>> DEBYE
 <Apr18-2019> <21:09:11>  NORMAL TERMINATION
 <Apr18-2019> <21:09:11>  END

Create B   file=TZ2P-B
XC
  GGA BP86
End
End Input

 *******************************************************************************
 *                                                                             *
 *  -------------------------------------                                      *
 *   Amsterdam Density Functional  (ADF)         development version           *
 *  -------------------------------------                                      *
 *                                               r61132 2017-09-08             *
 *                                                                             *
 *                                                                             *
 *                              =================                              *
 *                              |               |                              *
 *                              |     A D F     |                              *
 *                              |               |                              *
 *                              =================                              *
 *                                                                             *
 *                                                                             *
 *   Online information and documentation:  https://www.scm.com/support/       *
 *   E-mail:  support@scm.com   info@scm.com                                   *
 *                                                                             *
 *   Scientific publications using ADF results must be properly referenced     *
 *   See the User Manuals (or the web site) for recommended citations          *
 *   The terms and conditions of the End User License Agreement apply to       *
 *   the use of ADF, https://www.scm.com/license-terms/                        *
 *                                                                             *
 **********************  x86_64_linux_intel / intelmpi  ************************
 
 Licensed to: VU/FEW (+ SARA) / ALGEMEEN / Amsterdam / THE NETHERLANDS
 SCM User ID: u7668
  
 ADF development version  RunTime: Apr18-2019 21:09:11  Nodes: 1  Procs: 1

 Temporary files are created in /local/datastore0/tcst25/186780/kid_0.UtU3Gn

 Boron (TZ2P)



 ===========================
 A T T A C H E D   F I L E S
 ===========================
  
 CREATE - Data File:    TZ2P-B
                        Boron (TZ2P)



 ===============================
 M O D E L   P A R A M E T E R S
 ===============================
  
 DENSITY FUNCTIONAL POTENTIAL (scf)
    LDA:                               VWN                                      
    Gradient Corrections:              Becke88 Perdew86                        == Not Default ==

 SPIN  (restricted / unrestr.)
    Molecule:                          Restricted                               

 OTHER ASPECTS
    Relativistic Corrections:          ---                                      

    Nuclear Charge Density Model:      Point Charge Nuclei                      
    Core Treatment:                    Frozen Orbital(s)                        

    Hyperfine or Zeeman Interaction:   ---                                      



 =====================================
 S Y M M E T R Y ,   E L E C T R O N S
 =====================================
  
 Symmetry: ATOM

 Irreducible Representations, including subspecies
 -------------------------------------------------
 S
 P:x  P:y  P:z
 D:z2  D:x2-y2  D:xy  D:xz  D:yz
 F:z3  F:z  F:xyz  F:z2x  F:z2y  F:x  F:y


 Configuration of Valence Electrons
 ==================================

          Occupation Numbers
          -------------------------------------------------
 S        2*2
 P        1
 D        0
 F        0
          -------------------------------------------------

 Total:   5

 Net Charge: 0 (Nuclei minus Electrons)

 Preset values for MO occupations will be applied through SCF cycle no. 1000000
 Thereafter, the program will assign electrons to MOs that are spatially
 similar to the occupied MOs in a "reference" cycle ("KeepOrbitals").
 The reference cycle is always the PREVIOUS cycle: it will evolve with
 the SCF procedure.



 ================================
 (Slater-type)  F U N C T I O N S  ***  (Basis and Fit)  ***
 ================================
  

 Atom Type    1  (B)
 ==============

 Valence Basis Sets:  10
 -----------------------
   1 S    6.500000
   1 S    4.080000
   2 S    2.800000
   2 S    1.700000
   2 S    1.040000
   2 P    2.600000
   2 P    1.260000
   2 P    0.680000
   3 D    2.000000
   4 F    3.000000


 BAS: List of all Elementary Cartesian Basis Functions
 =====================================================

 The numbering in the list below (to the right of the function characteristics) is referred
 to in print-outs of MO eigenvectors and Mulliken populations in the BAS representation
 (as contrasted to the SFO representation).

 Notes:
 1. The functions are characterized by a polynomial prefactor (powers of x,y,z and r) and
    an exponential decay factor alpha.
 2. Since the basis sets are specific for an atom TYPE, the individual functions occur on
    all atoms of that type.
 3. The word 'Core' in the left margin signals that it is a Core Function (CF) : not a
    degree of freedom in the valence set, but only used to ensure orthogonalization of
    the other valence basis functions on the frozen Core Orbitals.


 (power of) X  Y  Z  R     Alpha  on Atom
            ==========     =====     ==========

 B                                    1
                                  ---------------------------------------------------------------------------
            0  0  0  0     6.500      1
            0  0  0  0     4.080      2
            0  0  0  1     2.800      3
            0  0  0  1     1.700      4
            0  0  0  1     1.040      5
            1  0  0  0     2.600      6
            0  1  0  0     2.600      7
            0  0  1  0     2.600      8
            1  0  0  0     1.260      9
            0  1  0  0     1.260     10
            0  0  1  0     1.260     11
            1  0  0  0     0.680     12
            0  1  0  0     0.680     13
            0  0  1  0     0.680     14
            2  0  0  0     2.000     15
            1  1  0  0     2.000     16
            1  0  1  0     2.000     17
            0  2  0  0     2.000     18
            0  1  1  0     2.000     19
            0  0  2  0     2.000     20
            3  0  0  0     3.000     21
            2  1  0  0     3.000     22
            2  0  1  0     3.000     23
            1  2  0  0     3.000     24
            1  1  1  0     3.000     25
            1  0  2  0     3.000     26
            0  3  0  0     3.000     27
            0  2  1  0     3.000     28
            0  1  2  0     3.000     29
            0  0  3  0     3.000     30

 Total number of charge fitting functions (nprimf)        84
 Total number of Cartesian basis functions (naos)         30
 Total number of Cartesian core functions  (ncos)          0



 BAS: List of all Elementary Cartesian Basis Functions
 =====================================================

 The numbering in the list below (to the right of the function characteristics) is referred
 to in print-outs of MO eigenvectors and Mulliken populations in the BAS representation
 (as contrasted to the SFO representation).

 Notes:
 1. The functions are characterized by a polynomial prefactor (powers of x,y,z and r) and
    an exponential decay factor alpha.
 2. Since the basis sets are specific for an atom TYPE, the individual functions occur on
    all atoms of that type.
 3. The word 'Core' in the left margin signals that it is a Core Function (CF) : not a
    degree of freedom in the valence set, but only used to ensure orthogonalization of
    the other valence basis functions on the frozen Core Orbitals.


 (power of) X  Y  Z  R     Alpha  on Atom
            ==========     =====     ==========

 B                                    1
                                  ---------------------------------------------------------------------------
            0  0  0  0     6.500      1
            0  0  0  0     4.080      2
            0  0  0  1     2.800      3
            0  0  0  1     1.700      4
            0  0  0  1     1.040      5
            1  0  0  0     2.600      6
            0  1  0  0     2.600      7
            0  0  1  0     2.600      8
            1  0  0  0     1.260      9
            0  1  0  0     1.260     10
            0  0  1  0     1.260     11
            1  0  0  0     0.680     12
            0  1  0  0     0.680     13
            0  0  1  0     0.680     14
            2  0  0  0     2.000     15
            1  1  0  0     2.000     16
            1  0  1  0     2.000     17
            0  2  0  0     2.000     18
            0  1  1  0     2.000     19
            0  0  2  0     2.000     20
            3  0  0  0     3.000     21
            2  1  0  0     3.000     22
            2  0  1  0     3.000     23
            1  2  0  0     3.000     24
            1  1  1  0     3.000     25
            1  0  2  0     3.000     26
            0  3  0  0     3.000     27
            0  2  1  0     3.000     28
            0  1  2  0     3.000     29
            0  0  3  0     3.000     30
1
 ***************************************************************************************************



                                              ***********************
                                              *  T E C H N I C A L  *
                                              ***********************
  



 =============================================================
 P A R A L L E L I Z A T I O N  and  V E C T O R I Z A T I O N
 =============================================================
  
 Nr of parallel processes:                                1
 Maximum vector length in NumInt loops:                 128

 IO buffersize (Mb):                                     64.000000



 =====================
 S C F   U P D A T E S
 =====================
  
 Max. nr. of cycles:                               300
 Convergence criterion:                              0.0000000100
   secondary criterion:                              0.0000000100

 Mix parameter (when DIIS does not apply):           0.2000000000
 Special mix parameter for the first cycle:          1.0000000000
 Mixed ADIIS+DIIS will be used
    Max number of expansion vectors:                10
    Pure ADIIS when Max([F,P]) is above              0.1000000000
    Pure DIIS when Max([F,P]) is below               0.0010000000
 Automatic ElectronSmearing (in case of problematic SCF convergence) disabled



 =================
 P R E C I S I O N  ***  (General: NumInt, NeglectFunctionTails, ...)  ***
 =================
  

 NumInt:           Target precision:                12.0000000000
 -------           Initial precision:               10.0000000000
                   Min. precision (optimization):   10.0000000000

 Neglect Functions:          Basis functions:        0.1000000000E-13
 ------------------          Fit functions:          0.1000000000E-13



 ===========================
 L I N E A R   S C A L I N G
 ===========================
  

 Cut-off radii density fit:                        0.1000000000E-97
 Overlap cut-off criterion AO matrix elements:     0.1000000000E-97
 Cut-offs for Coulomb potential and fitted density:0.1000000000E-97
 Cut-off criterion for Coulomb multipole terms:    0.1000000000E-97
 Progressive Convergence parameter:                 0.000000000    
1
 ***************************************************************************************************



                                            ***************************
                                            *  C O M P U T A T I O N  *
                                            ***************************
  

 Number of elements of the density matrix on this node (used, total):       465       465



 ===========================================
 Numerical Integration : Fuzzy Cells (Becke)
 ===========================================
  
 Becke grid quality: VERYGOOD       
  
 Lebedev angular grid order:             min:  13 max:  41
 Nr. of radial points:                   min:  76 max:  76

 Total nr. of points:         76
 Nr. of blocks:                1
 Block length:                76
 Nr. of dummy points:          0


 Test of Precision of the Numerical Integration Grid
 ===================================================

 Integral of the Total Core Density:                   0.00000000000000



 ========================
 Density Fitting (zlmFit)
 ========================
  
 ZlmFit Fit Quality: VERYGOOD       
  
 Max L-expansion:                        min:   0 max:   0
 Nr. of radial interpolation points:     min: 160 max: 160



 =====
 S C F  ***  ScaSCF  ***
 =====
  

 CYCLE    1
 SCF Error: norm([F,P])=      0.000000000000, max([F,P])=      0.000000000000
 orbitals (Q,E):
 ---------------
 S :1...5            ( 2.00   -12.4973)  ( 2.00    -3.1204)  ( 0.00    -1.3604)  ( 0.00    -0.2943)
                     ( 0.00    21.5464)
 P :1...3            ( 1.00    -3.1235)  ( 0.00    -1.3596)  ( 0.00    -0.7394)
 D :1...1            ( 0.00    -1.3333)
 F :1...1            ( 0.00     0.7500)

 CYCLE    2
  SDIIS (wt  0.000):  1.0000  0.0000
 A-DIIS (wt  1.000):  0.0000  1.0000
  DIIS coefficients:  0.0000  1.0000
 SCF Error: norm([F,P])=      3.206930624403, max([F,P])=      2.044237717286
 orbitals (Q,E):
 ---------------
 S :1...3            ( 2.00    -5.1374)  ( 2.00    -0.0371)  ( 0.00     0.4555)
 P :1...2            ( 1.00     0.0686)  ( 0.00     0.3929)
 D :1...1            ( 0.00     1.4209)
 F :1...1            ( 0.00     3.7855)

 CYCLE    3
  SDIIS (wt  0.000):  0.1983  0.8017
 A-DIIS (wt  1.000):  0.0000  1.0000
  DIIS coefficients:  0.0000  1.0000
 SCF Error: norm([F,P])=      1.040807263909, max([F,P])=      0.886703810621
 orbitals (Q,E):
 ---------------
 S :1...3            ( 2.00    -7.3692)  ( 2.00    -0.6224)  ( 0.00     0.0443)
 P :1...2            ( 1.00    -0.4031)  ( 0.00     0.0084)
 D :1...1            ( 0.00     0.7598)
 F :1...1            ( 0.00     3.0368)

 CYCLE    4
  SDIIS (wt  0.000): -0.0590  0.2096  0.8494
 A-DIIS (wt  1.000):  0.0000  0.0000  1.0000
  DIIS coefficients:  0.0000  0.0000  1.0000
 SCF Error: norm([F,P])=      0.442042017553, max([F,P])=      0.386566792489
 orbitals (Q,E):
 ---------------
 S :1...3            ( 2.00    -6.3214)  ( 2.00    -0.2478)  ( 0.00     0.2723)
 P :1...2            ( 1.00    -0.0468)  ( 0.00     0.1916)
 D :1...1            ( 0.00     1.1452)
 F :1...1            ( 0.00     3.4686)

 CYCLE    5
  SDIIS (wt  0.000): -0.0164 -0.0293  0.3638  0.6819
 A-DIIS (wt  1.000):  0.0000  0.0000  0.0966  0.9034
  DIIS coefficients:  0.0000  0.0000  0.0966  0.9034
 SCF Error: norm([F,P])=      0.215593907540, max([F,P])=      0.197107993768
 orbitals (Q,E):
 ---------------
 S :1...3            ( 2.00    -6.7835)  ( 2.00    -0.4032)  ( 0.00     0.1648)
 P :1...2            ( 1.00    -0.1843)  ( 0.00     0.0973)
 D :1...1            ( 0.00     0.9774)
 F :1...1            ( 0.00     3.2785)

 CYCLE    6
  SDIIS (wt  0.212):  0.0014 -0.0175 -0.0520  0.2997  0.7685
 A-DIIS (wt  0.788):  0.0000  0.0000  0.0000  0.0000  1.0000
  DIIS coefficients:  0.0003 -0.0037 -0.0110  0.0634  0.9510
 SCF Error: norm([F,P])=      0.087896467660, max([F,P])=      0.079060506992
 orbitals (Q,E):
 ---------------
 S :1...3            ( 2.00    -6.5865)  ( 2.00    -0.3297)  ( 0.00     0.2120)
 P :1...2            ( 1.00    -0.1166)  ( 0.00     0.1383)
 D :1...1            ( 0.00     1.0553)
 F :1...1            ( 0.00     3.3662)

 CYCLE    7
  SDIIS (wt  0.645): -0.0002  0.0016 -0.0012 -0.0706  0.2336  0.8367
 A-DIIS (wt  0.355):  0.0000  0.0000  0.0000  0.0000  0.0000  1.0000
  DIIS coefficients: -0.0001  0.0010 -0.0008 -0.0456  0.1508  0.8946
 SCF Error: norm([F,P])=      0.039810040971, max([F,P])=      0.036102929289
 orbitals (Q,E):
 ---------------
 S :1...3            ( 2.00    -6.6597)  ( 2.00    -0.3558)  ( 0.00     0.1943)
 P :1...2            ( 1.00    -0.1403)  ( 0.00     0.1227)
 D :1...1            ( 0.00     1.0274)
 F :1...1            ( 0.00     3.3347)

 CYCLE    8
  SDIIS (wt  0.936):  0.0000 -0.0000  0.0001  0.0045 -0.0468  0.0722  0.9699
 A-DIIS (wt  0.064):  0.0000  0.0000  0.0000  0.0000  0.0000  0.0000  1.0000
  DIIS coefficients:  0.0000 -0.0000  0.0001  0.0042 -0.0438  0.0676  0.9718
 SCF Error: norm([F,P])=      0.008085664981, max([F,P])=      0.007315306127
 orbitals (Q,E):
 ---------------
 S :1...3            ( 2.00    -6.6469)  ( 2.00    -0.3512)  ( 0.00     0.1973)
 P :1...2            ( 1.00    -0.1360)  ( 0.00     0.1254)
 D :1...1            ( 0.00     1.0323)
 F :1...1            ( 0.00     3.3402)

 CYCLE    9
  SDIIS (wt  1.000): -0.0000 -0.0000  0.0000 -0.0000  0.0014 -0.0057 -0.0076  1.0119
  DIIS coefficients: -0.0000 -0.0000  0.0000 -0.0000  0.0014 -0.0057 -0.0076  1.0119
 SCF Error: norm([F,P])=      0.000296891091, max([F,P])=      0.000268546514
 orbitals (Q,E):
 ---------------
 S :1...3            ( 2.00    -6.6473)  ( 2.00    -0.3513)  ( 0.00     0.1972)
 P :1...2            ( 1.00    -0.1362)  ( 0.00     0.1253)
 D :1...1            ( 0.00     1.0321)
 F :1...1            ( 0.00     3.3400)

 CYCLE   10
  SDIIS (wt  1.000): -0.0000 -0.0000  0.0000  0.0000 -0.0003 -0.0005  0.0184  0.9824
  DIIS coefficients: -0.0000 -0.0000  0.0000  0.0000 -0.0003 -0.0005  0.0184  0.9824
 SCF Error: norm([F,P])=      0.000000323230, max([F,P])=      0.000000256951
 orbitals (Q,E):
 ---------------
 S :1...3            ( 2.00    -6.6473)  ( 2.00    -0.3513)  ( 0.00     0.1972)
 P :1...2            ( 1.00    -0.1362)  ( 0.00     0.1253)
 D :1...1            ( 0.00     1.0321)
 F :1...1            ( 0.00     3.3400)

 CYCLE   11
  SDIIS (wt  1.000): -0.0000  0.0000  0.0002  0.0044  0.9954
  DIIS coefficients: -0.0000  0.0000  0.0002  0.0044  0.9954
 SCF Error: norm([F,P])=      0.000000003188, max([F,P])=      0.000000002647
 orbitals (Q,E):
 ---------------
 S :1...3            ( 2.00    -6.6473)  ( 2.00    -0.3513)  ( 0.00     0.1972)
 P :1...2            ( 1.00    -0.1362)  ( 0.00     0.1253)
 D :1...1            ( 0.00     1.0321)
 F :1...1            ( 0.00     3.3400)

 SCF CONVERGED

 CYCLE   12
1
 ***************************************************************************************************



                                                *******************
                                                *  R E S U L T S  *
                                                *******************
  
 *** Setting up for NEW gradients in Focky
 *** Using FIT density in Focky

 Orbital Energies, per Irrep and Spin:
 ======================================
                        Occup              E (au)              E (eV)       Diff (eV) with prev. cycle
                        -----      --------------------        ------       --------------------------
 S
               1        2.000     -0.66473159094863E+01      -180.883              -6.83E-09
               2        2.000     -0.35134921977183E+00        -9.561              -4.00E-09
               3        0.000      0.19724151702901E+00         5.367
               4        0.000      0.25814438752340E+01        70.245
               5        0.000      0.26826620261348E+02       729.989
 P
               1        1.000     -0.13617927732071E+00        -3.706              -3.70E-09
               2        0.000      0.12531170360136E+00         3.410
               3        0.000      0.16747264371451E+01        45.572
 D
               1        0.000      0.10321145268327E+01        28.085
 F
               1        0.000      0.33400309304585E+01        90.887


 Partially Occupied:
               1 P                -0.13617927732071E+00
  
 HOMO :        2 S                -0.35134921977183E+00
 LUMO :        2 P                 0.12531170360136E+00
  


 Orbital Energies, all Irreps
 ========================================

 Irrep        no.  (spin)   Occup              E (au)                E (eV)
 ---------------------------------------------------------------------------
 S             1             2.00       -0.66473159094863E+01      -180.8827
 S             2             2.00       -0.35134921977183E+00        -9.5607
 P             1             1.00       -0.13617927732071E+00        -3.7056
 P             2             0.00        0.12531170360136E+00         3.4099
 S             3             0.00        0.19724151702901E+00         5.3672
 D             1             0.00        0.10321145268327E+01        28.0853
 P             3             0.00        0.16747264371451E+01        45.5716
 S             4             0.00        0.25814438752340E+01        70.2447
 F             1             0.00        0.33400309304585E+01        90.8869
 S             5             0.00        0.26826620261348E+02       729.9895


 All Electron Calculation, thus no Orbital Energies of the Core Orbitals are calculated



 =======================================
 M U L L I K E N   P O P U L A T I O N S
 =======================================
  
 The survey below gives for each atom:
 a) the total charge (Z minus electrons)
 b) the net spin polarization (nr of electrons spin-A minus spin-B)
 c) for each spin the atomic electron valence density (integrated) per L-value.

 Atom              Charge    Spin density          S         P         D         F
 ----              ------    ------------       ------    ------    ------    ------
 1 B              -0.0000                       4.0000    1.0000    0.0000    0.0000

 Populations of individual BAS functions
 ----------------------------------------
 1 B            0.4730  1.5255 -0.1291  1.2093  0.9214  0.0290  0.0290  0.0290  0.1965  0.1965
                0.1965  0.1078  0.1078  0.1078  0.0000  0.0000  0.0000  0.0000  0.0000  0.0000
                0.0000  0.0000  0.0000  0.0000  0.0000  0.0000  0.0000  0.0000  0.0000  0.0000

 Gross Charges per Atom (Z minus electrons)
 ==========================================
            -0.0000
 Net Total: -0.00000000



 =======================================================================
 Electrostatic potential at the Nuclei due to electrons and other nuclei
 =======================================================================
  
         Atom                  Potential
         ----                  ---------
     1)   B                  11.37741465
 
 
 ========================
 No memory problems found
 ========================
 
 Maximum number of active allocate calls:         447
 
 *******************************************************************************

                             A D F   E X I T
 NORMAL TERMINATION



 =================
 Timing Statistics
 =================
  
 Total Used :                     CPU=        0.47      System=        0.03     Elapsed=        0.49

 Calls  Section                     ( Mean, Percentage )
 ---------------------------------------------------------------------------------------------------
     3  ><      ................      0.00    0.21             0.00    0.00             0.00    0.16
     1  INIT    ................      0.01    2.36             0.01   48.15             0.03    5.23
     1  GEOMET  ................      0.00    1.07             0.00   11.11             0.01    1.68
     1  INPUTA  ................      0.00    0.21             0.00    3.70             0.00    0.31
     1  MAINSY  ................      0.00    0.64             0.00    7.41             0.01    1.20
     1  SYMFIT  ................      0.00    0.00             0.00    3.70             0.00    0.16
     1  CORORT  ................      0.00    0.21             0.00    0.00             0.00    0.05
     1  SYMORB  ................      0.00    0.00             0.00    0.00             0.00    0.14
     1  CLSMAT  ................      0.00    1.07             0.00    0.00             0.01    1.06
     1  ORTHON  ................      0.00    0.21             0.00    3.70             0.00    0.30
     1  GENPT   ................      0.01    2.78             0.00    7.41             0.01    2.98
     1  PTBAS   ................      0.00    0.43             0.00    3.70             0.00    0.70
    12  FOCKY   ................      0.03   74.95             0.00    3.70             0.03   70.87
    12  FOCKTR  ................      0.00    2.36             0.00    0.00             0.00    2.04
    12  SDIIS   ................      0.00    4.28             0.00    0.00             0.00    3.94
     1  COREPS  ................      0.02    4.28             0.00    3.70             0.02    4.26
     1  POPAN   ................      0.00    1.07             0.00    0.00             0.01    1.05
     1  DEBYE   ................      0.00    0.00             0.00    0.00             0.00    0.11
     1  EXIT PROCEDURE .........      0.02    3.85             0.00    3.70             0.02    3.73


 Currently Open Files (EXIT00)
 ====================

 Unit    Access Format  Status   Type       Ident (file)
 -------------------------------------------------------
   3      SEQ    FORM   TRANSP  NORMAL      LOGFILE
                                          ( logfile )


 Buffered I/O statistics
 =======================
 Memory available:                     67108864
 Number of records fitting in memory:     16131
 Input :   0.1% of                        26729  *4k bytes
 Output:  13.8% of                         1360  *4k bytes
 Records from serial files evicted:           0
                    others evicted:           0
 Hash table lookups:      69030 with          0 conflicts (  0.00%)

 ***************************************************************************************************
 (LOGFILE)
 <Apr18-2019> <21:09:10>  ADF development version  RunTime: Apr18-2019 21:09:10  Nodes: 1  Procs: 1
 <Apr18-2019> <21:09:10>  Hydrogen (TZ2P)
 <Apr18-2019> <21:09:10>  RunType   : CREATE
 <Apr18-2019> <21:09:10>  Net Charge: 0 (Nuclei minus Electrons)
 <Apr18-2019> <21:09:10>  Symmetry  : ATOM
  Coordinates
    Atom         X           Y           Z   (Angstrom)
    1.H         0.000000    0.000000    0.000000
 <Apr18-2019> <21:09:10>  >>>> CORORT
 <Apr18-2019> <21:09:10>  >>>> CLSMAT
 <Apr18-2019> <21:09:10>  >>>> ORTHON
 <Apr18-2019> <21:09:10>  >>>> GENPT
 <Apr18-2019> <21:09:10>  Block Length=  64
 <Apr18-2019> <21:09:10>  >>>> PTBAS
 <Apr18-2019> <21:09:10>  >>>> CYCLE
 <Apr18-2019> <21:09:11>              |Error|         MaxErr       Wt(A-DIIS)
 <Apr18-2019> <21:09:11>      1      0.00000000      0.00000000
 <Apr18-2019> <21:09:11>      2      0.03052616      0.02968253
 <Apr18-2019> <21:09:11>      3      0.00718306      0.00671215    100.0
 <Apr18-2019> <21:09:11>      4      0.00117509      0.00114306      0.1
 <Apr18-2019> <21:09:11>      5      0.00002753      0.00002354      0.0
 <Apr18-2019> <21:09:11>      6      0.00000151      0.00000129      0.0
 <Apr18-2019> <21:09:11>      7      0.00000000      0.00000000      0.0
 <Apr18-2019> <21:09:11>  SCF converged
 <Apr18-2019> <21:09:11>      8      0.00000000      0.00000000      0.0
 <Apr18-2019> <21:09:11>  >>>> POPAN
 <Apr18-2019> <21:09:11>  >>>> DEBYE
 <Apr18-2019> <21:09:11>  NORMAL TERMINATION
 <Apr18-2019> <21:09:11>  END
 <Apr18-2019> <21:09:11>  ADF development version  RunTime: Apr18-2019 21:09:11  Nodes: 1  Procs: 1
 <Apr18-2019> <21:09:11>  Boron (TZ2P)
 <Apr18-2019> <21:09:11>  RunType   : CREATE
 <Apr18-2019> <21:09:11>  Net Charge: 0 (Nuclei minus Electrons)
 <Apr18-2019> <21:09:11>  Symmetry  : ATOM
  Coordinates
    Atom         X           Y           Z   (Angstrom)
    1.B         0.000000    0.000000    0.000000
 <Apr18-2019> <21:09:11>  >>>> CORORT
 <Apr18-2019> <21:09:11>  >>>> CLSMAT
 <Apr18-2019> <21:09:11>  >>>> ORTHON
 <Apr18-2019> <21:09:11>  >>>> GENPT
 <Apr18-2019> <21:09:11>  Block Length=  76
 <Apr18-2019> <21:09:11>  >>>> PTBAS
 <Apr18-2019> <21:09:11>  >>>> CYCLE
 <Apr18-2019> <21:09:11>              |Error|         MaxErr       Wt(A-DIIS)
 <Apr18-2019> <21:09:11>      1      0.00000000      0.00000000
 <Apr18-2019> <21:09:11>      2      3.20693062      2.04423772    100.0
 <Apr18-2019> <21:09:11>      3      1.04080726      0.88670381    100.0
 <Apr18-2019> <21:09:11>      4      0.44204202      0.38656679    100.0
 <Apr18-2019> <21:09:11>      5      0.21559391      0.19710799    100.0
 <Apr18-2019> <21:09:11>      6      0.08789647      0.07906051     78.8
 <Apr18-2019> <21:09:11>      7      0.03981004      0.03610293     35.5
 <Apr18-2019> <21:09:11>      8      0.00808566      0.00731531      6.4
 <Apr18-2019> <21:09:11>      9      0.00029689      0.00026855      0.0
 <Apr18-2019> <21:09:11>     10      0.00000032      0.00000026      0.0
 <Apr18-2019> <21:09:11>     11      0.00000000      0.00000000      0.0
 <Apr18-2019> <21:09:11>  SCF converged
 <Apr18-2019> <21:09:11>     12      0.00000000      0.00000000      0.0
 <Apr18-2019> <21:09:11>  >>>> POPAN
 <Apr18-2019> <21:09:11>  >>>> DEBYE
 <Apr18-2019> <21:09:11>  NORMAL TERMINATION
 <Apr18-2019> <21:09:11>  END

Create N   file=TZ2P-N
XC
  GGA BP86
End
End Input

 *******************************************************************************
 *                                                                             *
 *  -------------------------------------                                      *
 *   Amsterdam Density Functional  (ADF)         development version           *
 *  -------------------------------------                                      *
 *                                               r61132 2017-09-08             *
 *                                                                             *
 *                                                                             *
 *                              =================                              *
 *                              |               |                              *
 *                              |     A D F     |                              *
 *                              |               |                              *
 *                              =================                              *
 *                                                                             *
 *                                                                             *
 *   Online information and documentation:  https://www.scm.com/support/       *
 *   E-mail:  support@scm.com   info@scm.com                                   *
 *                                                                             *
 *   Scientific publications using ADF results must be properly referenced     *
 *   See the User Manuals (or the web site) for recommended citations          *
 *   The terms and conditions of the End User License Agreement apply to       *
 *   the use of ADF, https://www.scm.com/license-terms/                        *
 *                                                                             *
 **********************  x86_64_linux_intel / intelmpi  ************************
 
 Licensed to: VU/FEW (+ SARA) / ALGEMEEN / Amsterdam / THE NETHERLANDS
 SCM User ID: u7668
  
 ADF development version  RunTime: Apr18-2019 21:09:11  Nodes: 1  Procs: 1

 Temporary files are created in /local/datastore0/tcst25/186780/kid_0.KZNx42

 Nitrogen (TZ2P)



 ===========================
 A T T A C H E D   F I L E S
 ===========================
  
 CREATE - Data File:    TZ2P-N
                        Nitrogen (TZ2P)



 ===============================
 M O D E L   P A R A M E T E R S
 ===============================
  
 DENSITY FUNCTIONAL POTENTIAL (scf)
    LDA:                               VWN                                      
    Gradient Corrections:              Becke88 Perdew86                        == Not Default ==

 SPIN  (restricted / unrestr.)
    Molecule:                          Restricted                               

 OTHER ASPECTS
    Relativistic Corrections:          ---                                      

    Nuclear Charge Density Model:      Point Charge Nuclei                      
    Core Treatment:                    Frozen Orbital(s)                        

    Hyperfine or Zeeman Interaction:   ---                                      



 =====================================
 S Y M M E T R Y ,   E L E C T R O N S
 =====================================
  
 Symmetry: ATOM

 Irreducible Representations, including subspecies
 -------------------------------------------------
 S
 P:x  P:y  P:z
 D:z2  D:x2-y2  D:xy  D:xz  D:yz
 F:z3  F:z  F:xyz  F:z2x  F:z2y  F:x  F:y


 Configuration of Valence Electrons
 ==================================

          Occupation Numbers
          -------------------------------------------------
 S        2*2
 P        3
 D        0
 F        0
          -------------------------------------------------

 Total:   7

 Net Charge: 0 (Nuclei minus Electrons)

 Preset values for MO occupations will be applied through SCF cycle no. 1000000
 Thereafter, the program will assign electrons to MOs that are spatially
 similar to the occupied MOs in a "reference" cycle ("KeepOrbitals").
 The reference cycle is always the PREVIOUS cycle: it will evolve with
 the SCF procedure.



 ================================
 (Slater-type)  F U N C T I O N S  ***  (Basis and Fit)  ***
 ================================
  

 Atom Type    1  (N)
 ==============

 Valence Basis Sets:  10
 -----------------------
   1 S    8.740000
   1 S    5.900000
   2 S    5.150000
   2 S    2.500000
   2 S    1.500000
   2 P    3.680000
   2 P    1.880000
   2 P    1.000000
   3 D    2.200000
   4 F    3.300000


 BAS: List of all Elementary Cartesian Basis Functions
 =====================================================

 The numbering in the list below (to the right of the function characteristics) is referred
 to in print-outs of MO eigenvectors and Mulliken populations in the BAS representation
 (as contrasted to the SFO representation).

 Notes:
 1. The functions are characterized by a polynomial prefactor (powers of x,y,z and r) and
    an exponential decay factor alpha.
 2. Since the basis sets are specific for an atom TYPE, the individual functions occur on
    all atoms of that type.
 3. The word 'Core' in the left margin signals that it is a Core Function (CF) : not a
    degree of freedom in the valence set, but only used to ensure orthogonalization of
    the other valence basis functions on the frozen Core Orbitals.


 (power of) X  Y  Z  R     Alpha  on Atom
            ==========     =====     ==========

 N                                    1
                                  ---------------------------------------------------------------------------
            0  0  0  0     8.740      1
            0  0  0  0     5.900      2
            0  0  0  1     5.150      3
            0  0  0  1     2.500      4
            0  0  0  1     1.500      5
            1  0  0  0     3.680      6
            0  1  0  0     3.680      7
            0  0  1  0     3.680      8
            1  0  0  0     1.880      9
            0  1  0  0     1.880     10
            0  0  1  0     1.880     11
            1  0  0  0     1.000     12
            0  1  0  0     1.000     13
            0  0  1  0     1.000     14
            2  0  0  0     2.200     15
            1  1  0  0     2.200     16
            1  0  1  0     2.200     17
            0  2  0  0     2.200     18
            0  1  1  0     2.200     19
            0  0  2  0     2.200     20
            3  0  0  0     3.300     21
            2  1  0  0     3.300     22
            2  0  1  0     3.300     23
            1  2  0  0     3.300     24
            1  1  1  0     3.300     25
            1  0  2  0     3.300     26
            0  3  0  0     3.300     27
            0  2  1  0     3.300     28
            0  1  2  0     3.300     29
            0  0  3  0     3.300     30

 Total number of charge fitting functions (nprimf)        84
 Total number of Cartesian basis functions (naos)         30
 Total number of Cartesian core functions  (ncos)          0



 BAS: List of all Elementary Cartesian Basis Functions
 =====================================================

 The numbering in the list below (to the right of the function characteristics) is referred
 to in print-outs of MO eigenvectors and Mulliken populations in the BAS representation
 (as contrasted to the SFO representation).

 Notes:
 1. The functions are characterized by a polynomial prefactor (powers of x,y,z and r) and
    an exponential decay factor alpha.
 2. Since the basis sets are specific for an atom TYPE, the individual functions occur on
    all atoms of that type.
 3. The word 'Core' in the left margin signals that it is a Core Function (CF) : not a
    degree of freedom in the valence set, but only used to ensure orthogonalization of
    the other valence basis functions on the frozen Core Orbitals.


 (power of) X  Y  Z  R     Alpha  on Atom
            ==========     =====     ==========

 N                                    1
                                  ---------------------------------------------------------------------------
            0  0  0  0     8.740      1
            0  0  0  0     5.900      2
            0  0  0  1     5.150      3
            0  0  0  1     2.500      4
            0  0  0  1     1.500      5
            1  0  0  0     3.680      6
            0  1  0  0     3.680      7
            0  0  1  0     3.680      8
            1  0  0  0     1.880      9
            0  1  0  0     1.880     10
            0  0  1  0     1.880     11
            1  0  0  0     1.000     12
            0  1  0  0     1.000     13
            0  0  1  0     1.000     14
            2  0  0  0     2.200     15
            1  1  0  0     2.200     16
            1  0  1  0     2.200     17
            0  2  0  0     2.200     18
            0  1  1  0     2.200     19
            0  0  2  0     2.200     20
            3  0  0  0     3.300     21
            2  1  0  0     3.300     22
            2  0  1  0     3.300     23
            1  2  0  0     3.300     24
            1  1  1  0     3.300     25
            1  0  2  0     3.300     26
            0  3  0  0     3.300     27
            0  2  1  0     3.300     28
            0  1  2  0     3.300     29
            0  0  3  0     3.300     30
1
 ***************************************************************************************************



                                              ***********************
                                              *  T E C H N I C A L  *
                                              ***********************
  



 =============================================================
 P A R A L L E L I Z A T I O N  and  V E C T O R I Z A T I O N
 =============================================================
  
 Nr of parallel processes:                                1
 Maximum vector length in NumInt loops:                 128

 IO buffersize (Mb):                                     64.000000



 =====================
 S C F   U P D A T E S
 =====================
  
 Max. nr. of cycles:                               300
 Convergence criterion:                              0.0000000100
   secondary criterion:                              0.0000000100

 Mix parameter (when DIIS does not apply):           0.2000000000
 Special mix parameter for the first cycle:          1.0000000000
 Mixed ADIIS+DIIS will be used
    Max number of expansion vectors:                10
    Pure ADIIS when Max([F,P]) is above              0.1000000000
    Pure DIIS when Max([F,P]) is below               0.0010000000
 Automatic ElectronSmearing (in case of problematic SCF convergence) disabled



 =================
 P R E C I S I O N  ***  (General: NumInt, NeglectFunctionTails, ...)  ***
 =================
  

 NumInt:           Target precision:                12.0000000000
 -------           Initial precision:               10.0000000000
                   Min. precision (optimization):   10.0000000000

 Neglect Functions:          Basis functions:        0.1000000000E-13
 ------------------          Fit functions:          0.1000000000E-13



 ===========================
 L I N E A R   S C A L I N G
 ===========================
  

 Cut-off radii density fit:                        0.1000000000E-97
 Overlap cut-off criterion AO matrix elements:     0.1000000000E-97
 Cut-offs for Coulomb potential and fitted density:0.1000000000E-97
 Cut-off criterion for Coulomb multipole terms:    0.1000000000E-97
 Progressive Convergence parameter:                 0.000000000    
1
 ***************************************************************************************************



                                            ***************************
                                            *  C O M P U T A T I O N  *
                                            ***************************
  

 Number of elements of the density matrix on this node (used, total):       465       465



 ===========================================
 Numerical Integration : Fuzzy Cells (Becke)
 ===========================================
  
 Becke grid quality: VERYGOOD       
  
 Lebedev angular grid order:             min:  13 max:  41
 Nr. of radial points:                   min:  72 max:  72

 Total nr. of points:         72
 Nr. of blocks:                1
 Block length:                72
 Nr. of dummy points:          0


 Test of Precision of the Numerical Integration Grid
 ===================================================

 Integral of the Total Core Density:                   0.00000000000000



 ========================
 Density Fitting (zlmFit)
 ========================
  
 ZlmFit Fit Quality: VERYGOOD       
  
 Max L-expansion:                        min:   0 max:   0
 Nr. of radial interpolation points:     min: 160 max: 160



 =====
 S C F  ***  ScaSCF  ***
 =====
  

 CYCLE    1
 SCF Error: norm([F,P])=      0.000000000000, max([F,P])=      0.000000000000
 orbitals (Q,E):
 ---------------
 S :1...5            ( 2.00   -24.4993)  ( 2.00    -6.1004)  ( 0.00    -2.6599)  ( 0.00     0.7211)
                     ( 0.00    54.4424)
 P :1...3            ( 3.00    -6.1210)  ( 0.00    -2.6439)  ( 0.00    -1.4084)
 D :1...1            ( 0.00    -2.7133)
 F :1...1            ( 0.00    -0.3300)

 CYCLE    2
  SDIIS (wt  0.000):  1.0000 -0.0000
 A-DIIS (wt  1.000):  0.0000  1.0000
  DIIS coefficients:  0.0000  1.0000
 SCF Error: norm([F,P])=      6.451367365890, max([F,P])=      4.219703087224
 orbitals (Q,E):
 ---------------
 S :1...3            ( 2.00   -10.8287)  ( 2.00     0.0014)  ( 0.00     1.1966)
 P :1...2            ( 3.00     0.1843)  ( 0.00     0.9564)
 D :1...1            ( 0.00     1.8417)
 F :1...1            ( 0.00     4.7248)

 CYCLE    3
  SDIIS (wt  0.000):  0.2198  0.7802
 A-DIIS (wt  1.000):  0.2131  0.7869
  DIIS coefficients:  0.2131  0.7869
 SCF Error: norm([F,P])=      2.481517685351, max([F,P])=      1.954795594132
 orbitals (Q,E):
 ---------------
 S :1...3            ( 2.00   -15.1747)  ( 2.00    -1.2497)  ( 0.00     0.2017)
 P :1...2            ( 3.00    -0.8323)  ( 0.00     0.0719)
 D :1...1            ( 0.00     0.7940)
 F :1...1            ( 0.00     3.4887)

 CYCLE    4
  SDIIS (wt  0.000): -0.0612  0.1925  0.8687
 A-DIIS (wt  1.000):  0.0000  0.0259  0.9741
  DIIS coefficients:  0.0000  0.0259  0.9741
 SCF Error: norm([F,P])=      0.970371105527, max([F,P])=      0.641065486122
 orbitals (Q,E):
 ---------------
 S :1...3            ( 2.00   -13.4412)  ( 2.00    -0.4401)  ( 0.00     0.6963)
 P :1...2            ( 3.00    -0.0468)  ( 0.00     0.4437)
 D :1...1            ( 0.00     1.4306)
 F :1...1            ( 0.00     4.2280)

 CYCLE    5
  SDIIS (wt  0.000): -0.0222 -0.0718  0.4807  0.6133
 A-DIIS (wt  1.000):  0.0000  0.0000  0.4633  0.5367
  DIIS coefficients:  0.0000  0.0000  0.4633  0.5367
 SCF Error: norm([F,P])=      0.831034576935, max([F,P])=      0.578511378985
 orbitals (Q,E):
 ---------------
 S :1...3            ( 2.00   -14.1857)  ( 2.00    -0.7190)  ( 0.00     0.4998)
 P :1...2            ( 3.00    -0.2946)  ( 0.00     0.2748)
 D :1...1            ( 0.00     1.2103)
 F :1...1            ( 0.00     3.9682)

 CYCLE    6
  SDIIS (wt  0.696):  0.0027 -0.0052 -0.0171  0.0723  0.9473
 A-DIIS (wt  0.304):  0.0000  0.0000  0.0000  0.0000  1.0000
  DIIS coefficients:  0.0019 -0.0036 -0.0119  0.0503  0.9634
 SCF Error: norm([F,P])=      0.059655214985, max([F,P])=      0.031138717216
 orbitals (Q,E):
 ---------------
 S :1...3            ( 2.00   -14.1243)  ( 2.00    -0.6773)  ( 0.00     0.5219)
 P :1...2            ( 3.00    -0.2558)  ( 0.00     0.2921)
 D :1...1            ( 0.00     1.2456)
 F :1...1            ( 0.00     4.0096)

 CYCLE    7
  SDIIS (wt  0.824): -0.0002  0.0014  0.0138 -0.0266 -0.0370  1.0487
 A-DIIS (wt  0.176):  0.0000  0.0000  0.0000  0.0000  0.0360  0.9640
  DIIS coefficients: -0.0002  0.0011  0.0114 -0.0220 -0.0242  1.0338
 SCF Error: norm([F,P])=      0.027721651816, max([F,P])=      0.018404675135
 orbitals (Q,E):
 ---------------
 S :1...3            ( 2.00   -14.1511)  ( 2.00    -0.6888)  ( 0.00     0.5142)
 P :1...2            ( 3.00    -0.2669)  ( 0.00     0.2857)
 D :1...1            ( 0.00     1.2367)
 F :1...1            ( 0.00     3.9991)

 CYCLE    8
  SDIIS (wt  0.979): -0.0000  0.0002  0.0011 -0.0022 -0.0006  0.2099  0.7916
 A-DIIS (wt  0.021):  0.0000  0.0000  0.0000  0.0000  0.0000  0.0000  1.0000
  DIIS coefficients: -0.0000  0.0002  0.0011 -0.0021 -0.0006  0.2055  0.7960
 SCF Error: norm([F,P])=      0.004499232480, max([F,P])=      0.003081258258
 orbitals (Q,E):
 ---------------
 S :1...3            ( 2.00   -14.1473)  ( 2.00    -0.6873)  ( 0.00     0.5152)
 P :1...2            ( 3.00    -0.2655)  ( 0.00     0.2865)
 D :1...1            ( 0.00     1.2378)
 F :1...1            ( 0.00     4.0005)

 CYCLE    9
  SDIIS (wt  1.000):  0.0000 -0.0000 -0.0001  0.0001 -0.0002 -0.0094 -0.0232  1.0327
  DIIS coefficients:  0.0000 -0.0000 -0.0001  0.0001 -0.0002 -0.0094 -0.0232  1.0327
 SCF Error: norm([F,P])=      0.000019361449, max([F,P])=      0.000012105781
 orbitals (Q,E):
 ---------------
 S :1...3            ( 2.00   -14.1473)  ( 2.00    -0.6873)  ( 0.00     0.5152)
 P :1...2            ( 3.00    -0.2655)  ( 0.00     0.2865)
 D :1...1            ( 0.00     1.2378)
 F :1...1            ( 0.00     4.0005)

 CYCLE   10
  SDIIS (wt  1.000): -0.0000 -0.0000  0.0000  0.0000 -0.0001  0.0001  0.0232  0.9769
  DIIS coefficients: -0.0000 -0.0000  0.0000  0.0000 -0.0001  0.0001  0.0232  0.9769
 SCF Error: norm([F,P])=      0.000001838439, max([F,P])=      0.000001230955
 orbitals (Q,E):
 ---------------
 S :1...3            ( 2.00   -14.1473)  ( 2.00    -0.6873)  ( 0.00     0.5152)
 P :1...2            ( 3.00    -0.2655)  ( 0.00     0.2865)
 D :1...1            ( 0.00     1.2378)
 F :1...1            ( 0.00     4.0005)

 CYCLE   11
  SDIIS (wt  1.000): -0.0000 -0.0000 -0.0000 -0.0006 -0.0321  1.0328
  DIIS coefficients: -0.0000 -0.0000 -0.0000 -0.0006 -0.0321  1.0328
 SCF Error: norm([F,P])=      0.000000052960, max([F,P])=      0.000000032927
 orbitals (Q,E):
 ---------------
 S :1...3            ( 2.00   -14.1473)  ( 2.00    -0.6873)  ( 0.00     0.5152)
 P :1...2            ( 3.00    -0.2655)  ( 0.00     0.2865)
 D :1...1            ( 0.00     1.2378)
 F :1...1            ( 0.00     4.0005)

 CYCLE   12
  SDIIS (wt  1.000): -0.0000  0.0000 -0.0002  0.0076  0.9926
  DIIS coefficients: -0.0000  0.0000 -0.0002  0.0076  0.9926
 SCF Error: norm([F,P])=      0.000000000214, max([F,P])=      0.000000000118
 orbitals (Q,E):
 ---------------
 S :1...3            ( 2.00   -14.1473)  ( 2.00    -0.6873)  ( 0.00     0.5152)
 P :1...2            ( 3.00    -0.2655)  ( 0.00     0.2865)
 D :1...1            ( 0.00     1.2378)
 F :1...1            ( 0.00     4.0005)

 SCF CONVERGED

 CYCLE   13
1
 ***************************************************************************************************



                                                *******************
                                                *  R E S U L T S  *
                                                *******************
  
 *** Setting up for NEW gradients in Focky
 *** Using FIT density in Focky

 Orbital Energies, per Irrep and Spin:
 ======================================
                        Occup              E (au)              E (eV)       Diff (eV) with prev. cycle
                        -----      --------------------        ------       --------------------------
 S
               1        2.000     -0.14147275471391E+02      -384.967               8.94E-10
               2        2.000     -0.68732764310953E+00       -18.703               5.68E-10
               3        0.000      0.51515957710219E+00        14.018
               4        0.000      0.68959769444915E+01       187.649
               5        0.000      0.63979073432212E+02      1740.959
 P
               1        3.000     -0.26548379507191E+00        -7.224               5.44E-10
               2        0.000      0.28654429146964E+00         7.797
               3        0.000      0.32908032270942E+01        89.547
 D
               1        0.000      0.12378131244837E+01        33.683
 F
               1        0.000      0.40004783530592E+01       108.859


 Partially Occupied:
               1 P                -0.26548379507191E+00
  
 HOMO :        2 S                -0.68732764310953E+00
 LUMO :        2 P                 0.28654429146964E+00
  


 Orbital Energies, all Irreps
 ========================================

 Irrep        no.  (spin)   Occup              E (au)                E (eV)
 ---------------------------------------------------------------------------
 S             1             2.00       -0.14147275471391E+02      -384.9670
 S             2             2.00       -0.68732764310953E+00       -18.7031
 P             1             3.00       -0.26548379507191E+00        -7.2242
 P             2             0.00        0.28654429146964E+00         7.7973
 S             3             0.00        0.51515957710219E+00        14.0182
 D             1             0.00        0.12378131244837E+01        33.6826
 P             3             0.00        0.32908032270942E+01        89.5473
 F             1             0.00        0.40004783530592E+01       108.8586
 S             4             0.00        0.68959769444915E+01       187.6491
 S             5             0.00        0.63979073432212E+02      1740.9592


 All Electron Calculation, thus no Orbital Energies of the Core Orbitals are calculated



 =======================================
 M U L L I K E N   P O P U L A T I O N S
 =======================================
  
 The survey below gives for each atom:
 a) the total charge (Z minus electrons)
 b) the net spin polarization (nr of electrons spin-A minus spin-B)
 c) for each spin the atomic electron valence density (integrated) per L-value.

 Atom              Charge    Spin density          S         P         D         F
 ----              ------    ------------       ------    ------    ------    ------
 1 N              -0.0000                       4.0000    3.0000    0.0000    0.0000

 Populations of individual BAS functions
 ----------------------------------------
 1 N            0.5256  1.4646 -0.0480  1.1588  0.8990  0.1407  0.1407  0.1407  0.5661  0.5661
                0.5661  0.2932  0.2932  0.2932  0.0000  0.0000  0.0000  0.0000  0.0000  0.0000
                0.0000  0.0000  0.0000  0.0000  0.0000  0.0000  0.0000  0.0000  0.0000  0.0000

 Gross Charges per Atom (Z minus electrons)
 ==========================================
            -0.0000
 Net Total: -0.00000000



 =======================================================================
 Electrostatic potential at the Nuclei due to electrons and other nuclei
 =======================================================================
  
         Atom                  Potential
         ----                  ---------
     1)   N                  18.29008691
 
 
 ========================
 No memory problems found
 ========================
 
 Maximum number of active allocate calls:         447
 
 *******************************************************************************

                             A D F   E X I T
 NORMAL TERMINATION



 =================
 Timing Statistics
 =================
  
 Total Used :                     CPU=        0.49      System=        0.02     Elapsed=        0.52

 Calls  Section                     ( Mean, Percentage )
 ---------------------------------------------------------------------------------------------------
     3  ><      ................      0.00    0.00             0.00    4.17             0.00    0.15
     1  INIT    ................      0.01    1.83             0.01   62.50             0.03    4.94
     1  GEOMET  ................      0.01    1.22             0.00    8.33             0.01    1.58
     1  INPUTA  ................      0.00    0.00             0.00    4.17             0.00    0.30
     1  MAINSY  ................      0.00    1.02             0.00    4.17             0.01    1.16
     1  SYMFIT  ................      0.00    0.20             0.00    0.00             0.00    0.15
     1  CORORT  ................      0.00    0.20             0.00    0.00             0.00    0.05
     1  SYMORB  ................      0.00    0.00             0.00    0.00             0.00    0.13
     1  CLSMAT  ................      0.00    1.02             0.00    0.00             0.01    1.01
     1  ORTHON  ................      0.00    0.41             0.00    0.00             0.00    0.29
     1  GENPT   ................      0.01    3.05             0.00    0.00             0.01    2.86
     1  PTBAS   ................      0.00    0.61             0.00    0.00             0.00    0.67
    13  FOCKY   ................      0.03   75.00             0.00    8.33             0.03   71.69
    13  FOCKTR  ................      0.00    2.03             0.00    0.00             0.00    2.14
    13  SDIIS   ................      0.00    4.47             0.00    4.17             0.00    4.13
     1  COREPS  ................      0.02    4.27             0.00    0.00             0.02    4.06
     1  POPAN   ................      0.00    1.02             0.00    0.00             0.01    1.01
     1  DEBYE   ................      0.00    0.20             0.00    0.00             0.00    0.11
     1  EXIT PROCEDURE .........      0.02    3.46             0.00    4.17             0.02    3.56


 Currently Open Files (EXIT00)
 ====================

 Unit    Access Format  Status   Type       Ident (file)
 -------------------------------------------------------
   3      SEQ    FORM   TRANSP  NORMAL      LOGFILE
                                          ( logfile )


 Buffered I/O statistics
 =======================
 Memory available:                     67108864
 Number of records fitting in memory:     16131
 Input :   0.1% of                        27821  *4k bytes
 Output:  13.6% of                         1374  *4k bytes
 Records from serial files evicted:           0
                    others evicted:           0
 Hash table lookups:      71921 with          0 conflicts (  0.00%)

 ***************************************************************************************************
 (LOGFILE)
 <Apr18-2019> <21:09:10>  ADF development version  RunTime: Apr18-2019 21:09:10  Nodes: 1  Procs: 1
 <Apr18-2019> <21:09:10>  Hydrogen (TZ2P)
 <Apr18-2019> <21:09:10>  RunType   : CREATE
 <Apr18-2019> <21:09:10>  Net Charge: 0 (Nuclei minus Electrons)
 <Apr18-2019> <21:09:10>  Symmetry  : ATOM
  Coordinates
    Atom         X           Y           Z   (Angstrom)
    1.H         0.000000    0.000000    0.000000
 <Apr18-2019> <21:09:10>  >>>> CORORT
 <Apr18-2019> <21:09:10>  >>>> CLSMAT
 <Apr18-2019> <21:09:10>  >>>> ORTHON
 <Apr18-2019> <21:09:10>  >>>> GENPT
 <Apr18-2019> <21:09:10>  Block Length=  64
 <Apr18-2019> <21:09:10>  >>>> PTBAS
 <Apr18-2019> <21:09:10>  >>>> CYCLE
 <Apr18-2019> <21:09:11>              |Error|         MaxErr       Wt(A-DIIS)
 <Apr18-2019> <21:09:11>      1      0.00000000      0.00000000
 <Apr18-2019> <21:09:11>      2      0.03052616      0.02968253
 <Apr18-2019> <21:09:11>      3      0.00718306      0.00671215    100.0
 <Apr18-2019> <21:09:11>      4      0.00117509      0.00114306      0.1
 <Apr18-2019> <21:09:11>      5      0.00002753      0.00002354      0.0
 <Apr18-2019> <21:09:11>      6      0.00000151      0.00000129      0.0
 <Apr18-2019> <21:09:11>      7      0.00000000      0.00000000      0.0
 <Apr18-2019> <21:09:11>  SCF converged
 <Apr18-2019> <21:09:11>      8      0.00000000      0.00000000      0.0
 <Apr18-2019> <21:09:11>  >>>> POPAN
 <Apr18-2019> <21:09:11>  >>>> DEBYE
 <Apr18-2019> <21:09:11>  NORMAL TERMINATION
 <Apr18-2019> <21:09:11>  END
 <Apr18-2019> <21:09:11>  ADF development version  RunTime: Apr18-2019 21:09:11  Nodes: 1  Procs: 1
 <Apr18-2019> <21:09:11>  Boron (TZ2P)
 <Apr18-2019> <21:09:11>  RunType   : CREATE
 <Apr18-2019> <21:09:11>  Net Charge: 0 (Nuclei minus Electrons)
 <Apr18-2019> <21:09:11>  Symmetry  : ATOM
  Coordinates
    Atom         X           Y           Z   (Angstrom)
    1.B         0.000000    0.000000    0.000000
 <Apr18-2019> <21:09:11>  >>>> CORORT
 <Apr18-2019> <21:09:11>  >>>> CLSMAT
 <Apr18-2019> <21:09:11>  >>>> ORTHON
 <Apr18-2019> <21:09:11>  >>>> GENPT
 <Apr18-2019> <21:09:11>  Block Length=  76
 <Apr18-2019> <21:09:11>  >>>> PTBAS
 <Apr18-2019> <21:09:11>  >>>> CYCLE
 <Apr18-2019> <21:09:11>              |Error|         MaxErr       Wt(A-DIIS)
 <Apr18-2019> <21:09:11>      1      0.00000000      0.00000000
[...]
 <Apr18-2019> <21:11:53>      1      0.03269971      0.00668537
 <Apr18-2019> <21:11:53>      2      0.00411508      0.00064664    100.0
 <Apr18-2019> <21:11:53>      3      0.00200288      0.00027823    100.0
 <Apr18-2019> <21:11:54>      4      0.00325834      0.00051473      0.0
 <Apr18-2019> <21:11:54>      5      0.00039351      0.00005445      0.0
 <Apr18-2019> <21:11:54>      6      0.00007309      0.00001632      0.0
 <Apr18-2019> <21:11:55>      7      0.00002776      0.00000472      0.0
 <Apr18-2019> <21:11:55>      8      0.00000577      0.00000098      0.0
 <Apr18-2019> <21:11:55>  SCF converged
 <Apr18-2019> <21:11:56>      9      0.00000200      0.00000036      0.0
 <Apr18-2019> <21:11:56>  >>>> TOTEN
 <Apr18-2019> <21:11:56>  >>>> POPAN
 <Apr18-2019> <21:11:56>  >>>> DEBYE
 <Apr18-2019> <21:11:56>  >>>> ENGRAD
 <Apr18-2019> <21:11:57>  current energy                               -1.31554520 Hartree
 <Apr18-2019> <21:11:57>  energy change                       0.00000207     0.00010000    T
 <Apr18-2019> <21:11:57>  constrained gradient max            0.00278655     0.00010000    F
 <Apr18-2019> <21:11:57>  constrained gradient rms            0.00101065     0.00006667    F
 <Apr18-2019> <21:11:57>  gradient max                        0.00278655
 <Apr18-2019> <21:11:57>  gradient rms                        0.00101065
 <Apr18-2019> <21:11:57>  cart. step max                      0.01883347     0.01000000    F
 <Apr18-2019> <21:11:57>  cart. step rms                      0.00826786     0.00666667    F
  Coordinates in Geometry Cycle 31
    Atom         X           Y           Z   (Angstrom)
    1.N        -1.033674   -0.542111    0.000395
    2.H        -0.605935    0.369384   -0.198976
    3.H        -1.897697   -0.392014    0.532974
    4.H        -1.266944   -1.000767   -0.887607
    5.B         0.005600   -1.474264    0.852513
    6.Cl        1.455765   -1.706669   -0.261763
    7.Cl        0.383383   -0.494459    2.367171
    8.Cl       -0.919907   -3.031539    1.190824
 <Apr18-2019> <21:11:57>  >>>> CORORT
 <Apr18-2019> <21:11:57>  >>>> CLSMAT
 <Apr18-2019> <21:11:57>  >>>> ORTHON
 <Apr18-2019> <21:11:57>  >>>> GENPT
 <Apr18-2019> <21:11:57>  Block Length= 128
 <Apr18-2019> <21:11:57>  >>>> PTBAS
 <Apr18-2019> <21:11:57>  >>>> CYCLE
 <Apr18-2019> <21:11:57>              |Error|         MaxErr       Wt(A-DIIS)
 <Apr18-2019> <21:11:57>      1      0.02663816      0.00487818
 <Apr18-2019> <21:11:58>      2      0.00377889      0.00067403    100.0
 <Apr18-2019> <21:11:58>      3      0.00715061      0.00123206    100.0
 <Apr18-2019> <21:11:59>      4      0.00128124      0.00022276      0.0
 <Apr18-2019> <21:11:59>      5      0.00036633      0.00006120      0.0
 <Apr18-2019> <21:11:59>      6      0.00005599      0.00001127      0.0
 <Apr18-2019> <21:12:00>      7      0.00001384      0.00000200      0.0
 <Apr18-2019> <21:12:00>      8      0.00000429      0.00000071      0.0
 <Apr18-2019> <21:12:00>  SCF converged
 <Apr18-2019> <21:12:00>      9      0.00000116      0.00000021      0.0
 <Apr18-2019> <21:12:00>  >>>> TOTEN
 <Apr18-2019> <21:12:01>  >>>> POPAN
 <Apr18-2019> <21:12:01>  >>>> DEBYE
 <Apr18-2019> <21:12:01>  >>>> ENGRAD
 <Apr18-2019> <21:12:01>  current energy                               -1.31556695 Hartree
 <Apr18-2019> <21:12:01>  energy change                      -0.00002175     0.00010000    T
 <Apr18-2019> <21:12:01>  constrained gradient max            0.00122406     0.00010000    F
 <Apr18-2019> <21:12:01>  constrained gradient rms            0.00052236     0.00006667    F
 <Apr18-2019> <21:12:01>  gradient max                        0.00122406
 <Apr18-2019> <21:12:01>  gradient rms                        0.00052236
 <Apr18-2019> <21:12:01>  cart. step max                      0.01857438     0.01000000    F
 <Apr18-2019> <21:12:01>  cart. step rms                      0.00994129     0.00666667    F
  Coordinates in Geometry Cycle 32
    Atom         X           Y           Z   (Angstrom)
    1.N        -1.031932   -0.542463   -0.002397
    2.H        -0.595502    0.361359   -0.217550
    3.H        -1.888196   -0.377522    0.538297
    4.H        -1.278966   -1.008505   -0.882355
    5.B         0.003108   -1.473469    0.853849
    6.Cl        1.464872   -1.692078   -0.248716
    7.Cl        0.364888   -0.502836    2.378691
    8.Cl       -0.917681   -3.036925    1.175710
 <Apr18-2019> <21:12:01>  >>>> CORORT
 <Apr18-2019> <21:12:02>  >>>> CLSMAT
 <Apr18-2019> <21:12:02>  >>>> ORTHON
 <Apr18-2019> <21:12:02>  >>>> GENPT
 <Apr18-2019> <21:12:02>  Block Length= 128
 <Apr18-2019> <21:12:02>  >>>> PTBAS
 <Apr18-2019> <21:12:02>  >>>> CYCLE
 <Apr18-2019> <21:12:02>              |Error|         MaxErr       Wt(A-DIIS)
 <Apr18-2019> <21:12:02>      1      0.03301189      0.00715757
 <Apr18-2019> <21:12:03>      2      0.00191240      0.00033064    100.0
 <Apr18-2019> <21:12:03>      3      0.00184870      0.00040821    100.0
 <Apr18-2019> <21:12:03>      4      0.00101792      0.00018313      0.0
 <Apr18-2019> <21:12:04>      5      0.00021379      0.00003307      0.0
 <Apr18-2019> <21:12:04>      6      0.00003915      0.00000654      0.0
 <Apr18-2019> <21:12:04>      7      0.00001211      0.00000156      0.0
 <Apr18-2019> <21:12:05>      8      0.00000377      0.00000059      0.0
 <Apr18-2019> <21:12:05>  SCF converged
 <Apr18-2019> <21:12:05>      9      0.00000101      0.00000013      0.0
 <Apr18-2019> <21:12:05>  >>>> TOTEN
 <Apr18-2019> <21:12:06>  >>>> POPAN
 <Apr18-2019> <21:12:06>  >>>> DEBYE
 <Apr18-2019> <21:12:06>  >>>> ENGRAD
 <Apr18-2019> <21:12:06>  current energy                               -1.31557882 Hartree
 <Apr18-2019> <21:12:06>  energy change                      -0.00001187     0.00010000    T
 <Apr18-2019> <21:12:06>  constrained gradient max            0.00107547     0.00010000    F
 <Apr18-2019> <21:12:06>  constrained gradient rms            0.00041120     0.00006667    F
 <Apr18-2019> <21:12:06>  gradient max                        0.00107547
 <Apr18-2019> <21:12:06>  gradient rms                        0.00041120
 <Apr18-2019> <21:12:06>  cart. step max                      0.00521393     0.01000000    T
 <Apr18-2019> <21:12:06>  cart. step rms                      0.00201180     0.00666667    T
  Coordinates in Geometry Cycle 33
    Atom         X           Y           Z   (Angstrom)
    1.N        -1.032975   -0.542596   -0.002780
    2.H        -0.598479    0.359710   -0.219517
    3.H        -1.886898   -0.376071    0.540638
    4.H        -1.284180   -1.010440   -0.880490
    5.B         0.004923   -1.472516    0.852752
    6.Cl        1.466834   -1.689689   -0.247690
    7.Cl        0.364748   -0.503299    2.377624
    8.Cl       -0.913382   -3.037538    1.174993
 <Apr18-2019> <21:12:06>  >>>> CORORT
 <Apr18-2019> <21:12:06>  >>>> CLSMAT
 <Apr18-2019> <21:12:06>  >>>> ORTHON
 <Apr18-2019> <21:12:06>  >>>> GENPT
 <Apr18-2019> <21:12:06>  Block Length= 128
 <Apr18-2019> <21:12:06>  >>>> PTBAS
 <Apr18-2019> <21:12:07>  >>>> CYCLE
 <Apr18-2019> <21:12:07>              |Error|         MaxErr       Wt(A-DIIS)
 <Apr18-2019> <21:12:07>      1      0.00903748      0.00286194
 <Apr18-2019> <21:12:07>      2      0.00153356      0.00024527    100.0
 <Apr18-2019> <21:12:08>      3      0.00077666      0.00015268    100.0
 <Apr18-2019> <21:12:08>      4      0.00113081      0.00018702      0.0
 <Apr18-2019> <21:12:09>      5      0.00014254      0.00002001      0.0
 <Apr18-2019> <21:12:09>      6      0.00001951      0.00000352      0.0
 <Apr18-2019> <21:12:09>      7      0.00000628      0.00000125      0.0
 <Apr18-2019> <21:12:10>      8      0.00000152      0.00000023      0.0
 <Apr18-2019> <21:12:10>  SCF converged
 <Apr18-2019> <21:12:10>      9      0.00000058      0.00000009      0.0
 <Apr18-2019> <21:12:10>  >>>> TOTEN
 <Apr18-2019> <21:12:11>  >>>> POPAN
 <Apr18-2019> <21:12:11>  >>>> DEBYE
 <Apr18-2019> <21:12:11>  >>>> ENGRAD
 <Apr18-2019> <21:12:11>  current energy                               -1.31557974 Hartree
 <Apr18-2019> <21:12:11>  energy change                      -0.00000093     0.00010000    T
 <Apr18-2019> <21:12:11>  constrained gradient max            0.00122963     0.00010000    F
 <Apr18-2019> <21:12:11>  constrained gradient rms            0.00050671     0.00006667    F
 <Apr18-2019> <21:12:11>  gradient max                        0.00122963
 <Apr18-2019> <21:12:11>  gradient rms                        0.00050671
 <Apr18-2019> <21:12:11>  cart. step max                      0.00564133     0.01000000    T
 <Apr18-2019> <21:12:11>  cart. step rms                      0.00192530     0.00666667    T
  Coordinates in Geometry Cycle 34
    Atom         X           Y           Z   (Angstrom)
    1.N        -1.032202   -0.542250   -0.002278
    2.H        -0.597777    0.361523   -0.216669
    3.H        -1.888332   -0.378590    0.537647
    4.H        -1.278539   -1.008162   -0.881925
    5.B         0.003449   -1.473160    0.853291
    6.Cl        1.466286   -1.689140   -0.247875
    7.Cl        0.363554   -0.504151    2.379821
    8.Cl       -0.915846   -3.038509    1.173518
 <Apr18-2019> <21:12:11>  >>>> CORORT
 <Apr18-2019> <21:12:11>  >>>> CLSMAT
 <Apr18-2019> <21:12:11>  >>>> ORTHON
 <Apr18-2019> <21:12:11>  >>>> GENPT
 <Apr18-2019> <21:12:11>  Block Length= 128
 <Apr18-2019> <21:12:11>  >>>> PTBAS
 <Apr18-2019> <21:12:11>  >>>> CYCLE
 <Apr18-2019> <21:12:12>              |Error|         MaxErr       Wt(A-DIIS)
 <Apr18-2019> <21:12:12>      1      0.00765305      0.00151552
 <Apr18-2019> <21:12:12>      2      0.00123634      0.00020653    100.0
 <Apr18-2019> <21:12:13>      3      0.00210182      0.00035900    100.0
 <Apr18-2019> <21:12:13>      4      0.00038337      0.00005583      0.0
 <Apr18-2019> <21:12:13>      5      0.00011053      0.00001500      0.0
 <Apr18-2019> <21:12:14>      6      0.00002251      0.00000387      0.0
 <Apr18-2019> <21:12:14>      7      0.00000647      0.00000111      0.0
 <Apr18-2019> <21:12:14>      8      0.00000190      0.00000035      0.0
 <Apr18-2019> <21:12:15>  SCF converged
 <Apr18-2019> <21:12:15>      9      0.00000041      0.00000008      0.0
 <Apr18-2019> <21:12:15>  >>>> TOTEN
 <Apr18-2019> <21:12:15>  >>>> POPAN
 <Apr18-2019> <21:12:15>  >>>> DEBYE
 <Apr18-2019> <21:12:15>  >>>> ENGRAD
 <Apr18-2019> <21:12:16>  current energy                               -1.31557996 Hartree
 <Apr18-2019> <21:12:16>  energy change                      -0.00000022     0.00010000    T
 <Apr18-2019> <21:12:16>  constrained gradient max            0.00021127     0.00010000    F
 <Apr18-2019> <21:12:16>  constrained gradient rms            0.00012019     0.00006667    F
 <Apr18-2019> <21:12:16>  gradient max                        0.00021127
 <Apr18-2019> <21:12:16>  gradient rms                        0.00012019
 <Apr18-2019> <21:12:16>  cart. step max                      0.00159895     0.01000000    T
 <Apr18-2019> <21:12:16>  cart. step rms                      0.00067499     0.00666667    T
  Coordinates in Geometry Cycle 35
    Atom         X           Y           Z   (Angstrom)
    1.N        -1.032202   -0.542464   -0.002337
    2.H        -0.596982    0.360836   -0.218268
    3.H        -1.887673   -0.377433    0.538345
    4.H        -1.279945   -1.009218   -0.881262
    5.B         0.003653   -1.473122    0.853489
    6.Cl        1.466351   -1.689467   -0.247413
    7.Cl        0.363456   -0.503755    2.379279
    8.Cl       -0.916067   -3.037815    1.173695
 <Apr18-2019> <21:12:16>  >>>> CORORT
 <Apr18-2019> <21:12:16>  >>>> CLSMAT
 <Apr18-2019> <21:12:16>  >>>> ORTHON
 <Apr18-2019> <21:12:16>  >>>> GENPT
 <Apr18-2019> <21:12:16>  Block Length= 128
 <Apr18-2019> <21:12:16>  >>>> PTBAS
 <Apr18-2019> <21:12:16>  >>>> CYCLE
 <Apr18-2019> <21:12:17>              |Error|         MaxErr       Wt(A-DIIS)
 <Apr18-2019> <21:12:17>      1      0.00248312      0.00049254
 <Apr18-2019> <21:12:17>      2      0.00049359      0.00006995    100.0
 <Apr18-2019> <21:12:18>      3      0.00023152      0.00002978    100.0
 <Apr18-2019> <21:12:18>      4      0.00038279      0.00005645      0.0
 <Apr18-2019> <21:12:18>      5      0.00004004      0.00000527      0.0
 <Apr18-2019> <21:12:19>      6      0.00000939      0.00000156      0.0
 <Apr18-2019> <21:12:19>      7      0.00000169      0.00000025      0.0
 <Apr18-2019> <21:12:19>  SCF converged
 <Apr18-2019> <21:12:19>      8      0.00000048      0.00000007      0.0
 <Apr18-2019> <21:12:19>  >>>> TOTEN
 <Apr18-2019> <21:12:20>  >>>> POPAN
 <Apr18-2019> <21:12:20>  >>>> DEBYE
 <Apr18-2019> <21:12:20>  >>>> ENGRAD
 <Apr18-2019> <21:12:20>  current energy                               -1.31558053 Hartree
 <Apr18-2019> <21:12:20>  energy change                      -0.00000056     0.00010000    T
 <Apr18-2019> <21:12:20>  constrained gradient max            0.00017211     0.00010000    F
 <Apr18-2019> <21:12:20>  constrained gradient rms            0.00007639     0.00006667    F
 <Apr18-2019> <21:12:20>  gradient max                        0.00017211
 <Apr18-2019> <21:12:20>  gradient rms                        0.00007639
 <Apr18-2019> <21:12:20>  cart. step max                      0.00158099     0.01000000    T
 <Apr18-2019> <21:12:20>  cart. step rms                      0.00056791     0.00666667    T
  Coordinates in Geometry Cycle 36
    Atom         X           Y           Z   (Angstrom)
    1.N        -1.032469   -0.542483   -0.002270
    2.H        -0.597536    0.360960   -0.218105
    3.H        -1.887495   -0.378183    0.539926
    4.H        -1.281004   -1.009189   -0.881273
    5.B         0.003903   -1.472775    0.852885
    6.Cl        1.466198   -1.689084   -0.248406
    7.Cl        0.364330   -0.503671    2.379057
    8.Cl       -0.915337   -3.038015    1.173716
 <Apr18-2019> <21:12:20>  >>>> CORORT
 <Apr18-2019> <21:12:20>  >>>> CLSMAT
 <Apr18-2019> <21:12:20>  >>>> ORTHON
 <Apr18-2019> <21:12:20>  >>>> GENPT
 <Apr18-2019> <21:12:21>  Block Length= 128
 <Apr18-2019> <21:12:21>  >>>> PTBAS
 <Apr18-2019> <21:12:21>  >>>> CYCLE
 <Apr18-2019> <21:12:21>              |Error|         MaxErr       Wt(A-DIIS)
 <Apr18-2019> <21:12:21>      1      0.00218258      0.00062376
 <Apr18-2019> <21:12:22>      2      0.00042144      0.00007072    100.0
 <Apr18-2019> <21:12:22>      3      0.00066569      0.00011400    100.0
 <Apr18-2019> <21:12:22>      4      0.00010437      0.00001815      0.0
 <Apr18-2019> <21:12:23>      5      0.00004072      0.00000705      0.0
 <Apr18-2019> <21:12:23>      6      0.00000667      0.00000111      0.0
 <Apr18-2019> <21:12:23>      7      0.00000206      0.00000040      0.0
 <Apr18-2019> <21:12:23>  SCF converged
 <Apr18-2019> <21:12:24>      8      0.00000039      0.00000005      0.0
 <Apr18-2019> <21:12:24>  >>>> TOTEN
 <Apr18-2019> <21:12:24>  >>>> POPAN
 <Apr18-2019> <21:12:24>  >>>> DEBYE
 <Apr18-2019> <21:12:24>  >>>> ENGRAD
 <Apr18-2019> <21:12:25>  current energy                               -1.31558061 Hartree
 <Apr18-2019> <21:12:25>  energy change                      -0.00000008     0.00010000    T
 <Apr18-2019> <21:12:25>  constrained gradient max            0.00030241     0.00010000    F
 <Apr18-2019> <21:12:25>  constrained gradient rms            0.00011950     0.00006667    F
 <Apr18-2019> <21:12:25>  gradient max                        0.00030241
 <Apr18-2019> <21:12:25>  gradient rms                        0.00011950
 <Apr18-2019> <21:12:25>  cart. step max                      0.00099368     0.01000000    T
 <Apr18-2019> <21:12:25>  cart. step rms                      0.00033401     0.00666667    T
  Coordinates in Geometry Cycle 37
    Atom         X           Y           Z   (Angstrom)
    1.N        -1.032323   -0.542416   -0.002292
    2.H        -0.597387    0.360996   -0.217999
    3.H        -1.887648   -0.377853    0.538933
    4.H        -1.280312   -1.009012   -0.881266
    5.B         0.003761   -1.473037    0.853186
    6.Cl        1.466340   -1.689223   -0.247833
    7.Cl        0.363887   -0.503865    2.379232
    8.Cl       -0.915728   -3.038030    1.173570
 <Apr18-2019> <21:12:25>  >>>> CORORT
 <Apr18-2019> <21:12:25>  >>>> CLSMAT
 <Apr18-2019> <21:12:25>  >>>> ORTHON
 <Apr18-2019> <21:12:25>  >>>> GENPT
 <Apr18-2019> <21:12:25>  Block Length= 128
 <Apr18-2019> <21:12:25>  >>>> PTBAS
 <Apr18-2019> <21:12:25>  >>>> CYCLE
 <Apr18-2019> <21:12:26>              |Error|         MaxErr       Wt(A-DIIS)
 <Apr18-2019> <21:12:26>      1      0.00132050      0.00039777
 <Apr18-2019> <21:12:26>      2      0.00027350      0.00004022    100.0
 <Apr18-2019> <21:12:26>      3      0.00015473      0.00002874    100.0
 <Apr18-2019> <21:12:27>      4      0.00018035      0.00002646      0.0
 <Apr18-2019> <21:12:27>      5      0.00002510      0.00000453      0.0
 <Apr18-2019> <21:12:28>      6      0.00000472      0.00000068      0.0
 <Apr18-2019> <21:12:28>  SCF converged
 <Apr18-2019> <21:12:28>      7      0.00000141      0.00000031      0.0
 <Apr18-2019> <21:12:28>  >>>> TOTEN
 <Apr18-2019> <21:12:28>  >>>> POPAN
 <Apr18-2019> <21:12:28>  >>>> DEBYE
 <Apr18-2019> <21:12:29>  >>>> ENGRAD
 <Apr18-2019> <21:12:29>  current energy                               -1.31558064 Hartree
 <Apr18-2019> <21:12:29>  energy change                      -0.00000003     0.00010000    T
 <Apr18-2019> <21:12:29>  constrained gradient max            0.00002300     0.00010000    T
 <Apr18-2019> <21:12:29>  constrained gradient rms            0.00000826     0.00006667    T
 <Apr18-2019> <21:12:29>  gradient max                        0.00002300
 <Apr18-2019> <21:12:29>  gradient rms                        0.00000826
 <Apr18-2019> <21:12:29>  cart. step max                      0.00005267     0.01000000    T
 <Apr18-2019> <21:12:29>  cart. step rms                      0.00002535     0.00666667    T
 <Apr18-2019> <21:12:29>  GEOMETRY CONVERGED
 <Apr18-2019> <21:12:29>  Calculating Energy Terms for Final Geometry
  Coordinates in Geometry Cycle 37
    Atom         X           Y           Z   (Angstrom)
    1.N        -1.032323   -0.542416   -0.002292
    2.H        -0.597387    0.360996   -0.217999
    3.H        -1.887648   -0.377853    0.538933
    4.H        -1.280312   -1.009012   -0.881266
    5.B         0.003761   -1.473037    0.853186
    6.Cl        1.466340   -1.689223   -0.247833
    7.Cl        0.363887   -0.503865    2.379232
    8.Cl       -0.915728   -3.038030    1.173570
 <Apr18-2019> <21:12:29>  >>>> CORORT
 <Apr18-2019> <21:12:29>  >>>> CLSMAT
 <Apr18-2019> <21:12:29>  >>>> ORTHON
 <Apr18-2019> <21:12:29>  >>>> GENPT
 <Apr18-2019> <21:12:29>  Block Length= 128
 <Apr18-2019> <21:12:29>  >>>> PTBAS
 <Apr18-2019> <21:12:29>  >>>> CYCLE
 <Apr18-2019> <21:12:30>              |Error|         MaxErr       Wt(A-DIIS)
 <Apr18-2019> <21:12:30>      1      0.00000037      0.00000008
 <Apr18-2019> <21:12:30>      2      0.00000060      0.00000014    100.0
 <Apr18-2019> <21:12:30>  SCF converged
 <Apr18-2019> <21:12:31>      3      0.00000103      0.00000023    100.0
 <Apr18-2019> <21:12:31>  >>>> TOTEN
 <Apr18-2019> <21:12:32>  >>>> POPAN
 <Apr18-2019> <21:12:32>  >>>> DEBYE
 <Apr18-2019> <21:12:32>  >>>> AMETS
 <Apr18-2019> <21:12:32>  >>>> POPUL
 <Apr18-2019> <21:12:32>   Bond Energy          -1.31558064 a.u.
 <Apr18-2019> <21:12:32>   Bond Energy         -35.79877073 eV
 <Apr18-2019> <21:12:32>   Bond Energy        -825.54       kcal/mol
 <Apr18-2019> <21:12:32>  >>>> ENHESS
 <Apr18-2019> <21:12:32>  === NUCLEUS:     1
 <Apr18-2019> <21:12:40>  === NUCLEUS:     2
 <Apr18-2019> <21:12:48>  === NUCLEUS:     3
 <Apr18-2019> <21:12:55>  === NUCLEUS:     4
 <Apr18-2019> <21:13:02>  === NUCLEUS:     5
 <Apr18-2019> <21:13:11>  === NUCLEUS:     6
 <Apr18-2019> <21:13:18>  === NUCLEUS:     7
 <Apr18-2019> <21:13:26>  === NUCLEUS:     8
 <Apr18-2019> <21:13:33>  >>>> CALC_HESS_PMAT
 <Apr18-2019> <21:13:35>  >>>> CALC_HESS_WMAT
 <Apr18-2019> <21:13:35>  NORMAL TERMINATION
 <Apr18-2019> <21:13:35>  END
