
Create B   file=TZ2P-B
XC
  GGA BP86
End
End Input

 *******************************************************************************
 *                                                                             *
 *  -------------------------------------                                      *
 *   Amsterdam Density Functional  (ADF)         development version           *
 *  -------------------------------------                                      *
 *                                               r61132 2017-09-08             *
 *                                                                             *
 *                                                                             *
 *                              =================                              *
 *                              |               |                              *
 *                              |     A D F     |                              *
 *                              |               |                              *
 *                              =================                              *
 *                                                                             *
 *                                                                             *
 *   Online information and documentation:  https://www.scm.com/support/       *
 *   E-mail:  support@scm.com   info@scm.com                                   *
 *                                                                             *
 *   Scientific publications using ADF results must be properly referenced     *
 *   See the User Manuals (or the web site) for recommended citations          *
 *   The terms and conditions of the End User License Agreement apply to       *
 *   the use of ADF, https://www.scm.com/license-terms/                        *
 *                                                                             *
 **********************  x86_64_linux_intel / intelmpi  ************************
 
 Licensed to: VU/FEW (+ SARA) / ALGEMEEN / Amsterdam / THE NETHERLANDS
 SCM User ID: u7668
  
 ADF development version  RunTime: Apr18-2019 21:56:26  Nodes: 1  Procs: 1

 Temporary files are created in /local/datastore0/tcst25/186808/kid_0.hT731J

 Boron (TZ2P)



 ===========================
 A T T A C H E D   F I L E S
 ===========================
  
 CREATE - Data File:    TZ2P-B
                        Boron (TZ2P)



 ===============================
 M O D E L   P A R A M E T E R S
 ===============================
  
 DENSITY FUNCTIONAL POTENTIAL (scf)
    LDA:                               VWN                                      
    Gradient Corrections:              Becke88 Perdew86                        == Not Default ==

 SPIN  (restricted / unrestr.)
    Molecule:                          Restricted                               

 OTHER ASPECTS
    Relativistic Corrections:          ---                                      

    Nuclear Charge Density Model:      Point Charge Nuclei                      
    Core Treatment:                    Frozen Orbital(s)                        

    Hyperfine or Zeeman Interaction:   ---                                      



 =====================================
 S Y M M E T R Y ,   E L E C T R O N S
 =====================================
  
 Symmetry: ATOM

 Irreducible Representations, including subspecies
 -------------------------------------------------
 S
 P:x  P:y  P:z
 D:z2  D:x2-y2  D:xy  D:xz  D:yz
 F:z3  F:z  F:xyz  F:z2x  F:z2y  F:x  F:y


 Configuration of Valence Electrons
 ==================================

          Occupation Numbers
          -------------------------------------------------
 S        2*2
 P        1
 D        0
 F        0
          -------------------------------------------------

 Total:   5

 Net Charge: 0 (Nuclei minus Electrons)

 Preset values for MO occupations will be applied through SCF cycle no. 1000000
 Thereafter, the program will assign electrons to MOs that are spatially
 similar to the occupied MOs in a "reference" cycle ("KeepOrbitals").
 The reference cycle is always the PREVIOUS cycle: it will evolve with
 the SCF procedure.



 ================================
 (Slater-type)  F U N C T I O N S  ***  (Basis and Fit)  ***
 ================================
  

 Atom Type    1  (B)
 ==============

 Valence Basis Sets:  10
 -----------------------
   1 S    6.500000
   1 S    4.080000
   2 S    2.800000
   2 S    1.700000
   2 S    1.040000
   2 P    2.600000
   2 P    1.260000
   2 P    0.680000
   3 D    2.000000
   4 F    3.000000


 BAS: List of all Elementary Cartesian Basis Functions
 =====================================================

 The numbering in the list below (to the right of the function characteristics) is referred
 to in print-outs of MO eigenvectors and Mulliken populations in the BAS representation
 (as contrasted to the SFO representation).

 Notes:
 1. The functions are characterized by a polynomial prefactor (powers of x,y,z and r) and
    an exponential decay factor alpha.
 2. Since the basis sets are specific for an atom TYPE, the individual functions occur on
    all atoms of that type.
 3. The word 'Core' in the left margin signals that it is a Core Function (CF) : not a
    degree of freedom in the valence set, but only used to ensure orthogonalization of
    the other valence basis functions on the frozen Core Orbitals.


 (power of) X  Y  Z  R     Alpha  on Atom
            ==========     =====     ==========

 B                                    1
                                  ---------------------------------------------------------------------------
            0  0  0  0     6.500      1
            0  0  0  0     4.080      2
            0  0  0  1     2.800      3
            0  0  0  1     1.700      4
            0  0  0  1     1.040      5
            1  0  0  0     2.600      6
            0  1  0  0     2.600      7
            0  0  1  0     2.600      8
            1  0  0  0     1.260      9
            0  1  0  0     1.260     10
            0  0  1  0     1.260     11
            1  0  0  0     0.680     12
            0  1  0  0     0.680     13
            0  0  1  0     0.680     14
            2  0  0  0     2.000     15
            1  1  0  0     2.000     16
            1  0  1  0     2.000     17
            0  2  0  0     2.000     18
            0  1  1  0     2.000     19
            0  0  2  0     2.000     20
            3  0  0  0     3.000     21
            2  1  0  0     3.000     22
            2  0  1  0     3.000     23
            1  2  0  0     3.000     24
            1  1  1  0     3.000     25
            1  0  2  0     3.000     26
            0  3  0  0     3.000     27
            0  2  1  0     3.000     28
            0  1  2  0     3.000     29
            0  0  3  0     3.000     30

 Total number of charge fitting functions (nprimf)        84
 Total number of Cartesian basis functions (naos)         30
 Total number of Cartesian core functions  (ncos)          0



 BAS: List of all Elementary Cartesian Basis Functions
 =====================================================

 The numbering in the list below (to the right of the function characteristics) is referred
 to in print-outs of MO eigenvectors and Mulliken populations in the BAS representation
 (as contrasted to the SFO representation).

 Notes:
 1. The functions are characterized by a polynomial prefactor (powers of x,y,z and r) and
    an exponential decay factor alpha.
 2. Since the basis sets are specific for an atom TYPE, the individual functions occur on
    all atoms of that type.
 3. The word 'Core' in the left margin signals that it is a Core Function (CF) : not a
    degree of freedom in the valence set, but only used to ensure orthogonalization of
    the other valence basis functions on the frozen Core Orbitals.


 (power of) X  Y  Z  R     Alpha  on Atom
            ==========     =====     ==========

 B                                    1
                                  ---------------------------------------------------------------------------
            0  0  0  0     6.500      1
            0  0  0  0     4.080      2
            0  0  0  1     2.800      3
            0  0  0  1     1.700      4
            0  0  0  1     1.040      5
            1  0  0  0     2.600      6
            0  1  0  0     2.600      7
            0  0  1  0     2.600      8
            1  0  0  0     1.260      9
            0  1  0  0     1.260     10
            0  0  1  0     1.260     11
            1  0  0  0     0.680     12
            0  1  0  0     0.680     13
            0  0  1  0     0.680     14
            2  0  0  0     2.000     15
            1  1  0  0     2.000     16
            1  0  1  0     2.000     17
            0  2  0  0     2.000     18
            0  1  1  0     2.000     19
            0  0  2  0     2.000     20
            3  0  0  0     3.000     21
            2  1  0  0     3.000     22
            2  0  1  0     3.000     23
            1  2  0  0     3.000     24
            1  1  1  0     3.000     25
            1  0  2  0     3.000     26
            0  3  0  0     3.000     27
            0  2  1  0     3.000     28
            0  1  2  0     3.000     29
            0  0  3  0     3.000     30
1
 ***************************************************************************************************



                                              ***********************
                                              *  T E C H N I C A L  *
                                              ***********************
  



 =============================================================
 P A R A L L E L I Z A T I O N  and  V E C T O R I Z A T I O N
 =============================================================
  
 Nr of parallel processes:                                1
 Maximum vector length in NumInt loops:                 128

 IO buffersize (Mb):                                     64.000000



 =====================
 S C F   U P D A T E S
 =====================
  
 Max. nr. of cycles:                               300
 Convergence criterion:                              0.0000000100
   secondary criterion:                              0.0000000100

 Mix parameter (when DIIS does not apply):           0.2000000000
 Special mix parameter for the first cycle:          1.0000000000
 Mixed ADIIS+DIIS will be used
    Max number of expansion vectors:                10
    Pure ADIIS when Max([F,P]) is above              0.1000000000
    Pure DIIS when Max([F,P]) is below               0.0010000000
 Automatic ElectronSmearing (in case of problematic SCF convergence) disabled



 =================
 P R E C I S I O N  ***  (General: NumInt, NeglectFunctionTails, ...)  ***
 =================
  

 NumInt:           Target precision:                12.0000000000
 -------           Initial precision:               10.0000000000
                   Min. precision (optimization):   10.0000000000

 Neglect Functions:          Basis functions:        0.1000000000E-13
 ------------------          Fit functions:          0.1000000000E-13



 ===========================
 L I N E A R   S C A L I N G
 ===========================
  

 Cut-off radii density fit:                        0.1000000000E-97
 Overlap cut-off criterion AO matrix elements:     0.1000000000E-97
 Cut-offs for Coulomb potential and fitted density:0.1000000000E-97
 Cut-off criterion for Coulomb multipole terms:    0.1000000000E-97
 Progressive Convergence parameter:                 0.000000000    
1
 ***************************************************************************************************



                                            ***************************
                                            *  C O M P U T A T I O N  *
                                            ***************************
  

 Number of elements of the density matrix on this node (used, total):       465       465



 ===========================================
 Numerical Integration : Fuzzy Cells (Becke)
 ===========================================
  
 Becke grid quality: VERYGOOD       
  
 Lebedev angular grid order:             min:  13 max:  41
 Nr. of radial points:                   min:  76 max:  76

 Total nr. of points:         76
 Nr. of blocks:                1
 Block length:                76
 Nr. of dummy points:          0


 Test of Precision of the Numerical Integration Grid
 ===================================================

 Integral of the Total Core Density:                   0.00000000000000



 ========================
 Density Fitting (zlmFit)
 ========================
  
 ZlmFit Fit Quality: VERYGOOD       
  
 Max L-expansion:                        min:   0 max:   0
 Nr. of radial interpolation points:     min: 160 max: 160



 =====
 S C F  ***  ScaSCF  ***
 =====
  

 CYCLE    1
 SCF Error: norm([F,P])=      0.000000000000, max([F,P])=      0.000000000000
 orbitals (Q,E):
 ---------------
 S :1...5            ( 2.00   -12.4973)  ( 2.00    -3.1204)  ( 0.00    -1.3604)  ( 0.00    -0.2943)
                     ( 0.00    21.5464)
 P :1...3            ( 1.00    -3.1235)  ( 0.00    -1.3596)  ( 0.00    -0.7394)
 D :1...1            ( 0.00    -1.3333)
 F :1...1            ( 0.00     0.7500)

 CYCLE    2
  SDIIS (wt  0.000):  1.0000  0.0000
 A-DIIS (wt  1.000):  0.0000  1.0000
  DIIS coefficients:  0.0000  1.0000
 SCF Error: norm([F,P])=      3.206930624403, max([F,P])=      2.044237717286
 orbitals (Q,E):
 ---------------
 S :1...3            ( 2.00    -5.1374)  ( 2.00    -0.0371)  ( 0.00     0.4555)
 P :1...2            ( 1.00     0.0686)  ( 0.00     0.3929)
 D :1...1            ( 0.00     1.4209)
 F :1...1            ( 0.00     3.7855)

 CYCLE    3
  SDIIS (wt  0.000):  0.1983  0.8017
 A-DIIS (wt  1.000):  0.0000  1.0000
  DIIS coefficients:  0.0000  1.0000
 SCF Error: norm([F,P])=      1.040807263909, max([F,P])=      0.886703810621
 orbitals (Q,E):
 ---------------
 S :1...3            ( 2.00    -7.3692)  ( 2.00    -0.6224)  ( 0.00     0.0443)
 P :1...2            ( 1.00    -0.4031)  ( 0.00     0.0084)
 D :1...1            ( 0.00     0.7598)
 F :1...1            ( 0.00     3.0368)

 CYCLE    4
  SDIIS (wt  0.000): -0.0590  0.2096  0.8494
 A-DIIS (wt  1.000):  0.0000  0.0000  1.0000
  DIIS coefficients:  0.0000  0.0000  1.0000
 SCF Error: norm([F,P])=      0.442042017553, max([F,P])=      0.386566792489
 orbitals (Q,E):
 ---------------
 S :1...3            ( 2.00    -6.3214)  ( 2.00    -0.2478)  ( 0.00     0.2723)
 P :1...2            ( 1.00    -0.0468)  ( 0.00     0.1916)
 D :1...1            ( 0.00     1.1452)
 F :1...1            ( 0.00     3.4686)

 CYCLE    5
  SDIIS (wt  0.000): -0.0164 -0.0293  0.3638  0.6819
 A-DIIS (wt  1.000):  0.0000  0.0000  0.0966  0.9034
  DIIS coefficients:  0.0000  0.0000  0.0966  0.9034
 SCF Error: norm([F,P])=      0.215593907540, max([F,P])=      0.197107993768
 orbitals (Q,E):
 ---------------
 S :1...3            ( 2.00    -6.7835)  ( 2.00    -0.4032)  ( 0.00     0.1648)
 P :1...2            ( 1.00    -0.1843)  ( 0.00     0.0973)
 D :1...1            ( 0.00     0.9774)
 F :1...1            ( 0.00     3.2785)

 CYCLE    6
  SDIIS (wt  0.212):  0.0014 -0.0175 -0.0520  0.2997  0.7685
 A-DIIS (wt  0.788):  0.0000  0.0000  0.0000  0.0000  1.0000
  DIIS coefficients:  0.0003 -0.0037 -0.0110  0.0634  0.9510
 SCF Error: norm([F,P])=      0.087896467660, max([F,P])=      0.079060506992
 orbitals (Q,E):
 ---------------
 S :1...3            ( 2.00    -6.5865)  ( 2.00    -0.3297)  ( 0.00     0.2120)
 P :1...2            ( 1.00    -0.1166)  ( 0.00     0.1383)
 D :1...1            ( 0.00     1.0553)
 F :1...1            ( 0.00     3.3662)

 CYCLE    7
  SDIIS (wt  0.645): -0.0002  0.0016 -0.0012 -0.0706  0.2336  0.8367
 A-DIIS (wt  0.355):  0.0000  0.0000  0.0000  0.0000  0.0000  1.0000
  DIIS coefficients: -0.0001  0.0010 -0.0008 -0.0456  0.1508  0.8946
 SCF Error: norm([F,P])=      0.039810040971, max([F,P])=      0.036102929289
 orbitals (Q,E):
 ---------------
 S :1...3            ( 2.00    -6.6597)  ( 2.00    -0.3558)  ( 0.00     0.1943)
 P :1...2            ( 1.00    -0.1403)  ( 0.00     0.1227)
 D :1...1            ( 0.00     1.0274)
 F :1...1            ( 0.00     3.3347)

 CYCLE    8
  SDIIS (wt  0.936):  0.0000 -0.0000  0.0001  0.0045 -0.0468  0.0722  0.9699
 A-DIIS (wt  0.064):  0.0000  0.0000  0.0000  0.0000  0.0000  0.0000  1.0000
  DIIS coefficients:  0.0000 -0.0000  0.0001  0.0042 -0.0438  0.0676  0.9718
 SCF Error: norm([F,P])=      0.008085664981, max([F,P])=      0.007315306127
 orbitals (Q,E):
 ---------------
 S :1...3            ( 2.00    -6.6469)  ( 2.00    -0.3512)  ( 0.00     0.1973)
 P :1...2            ( 1.00    -0.1360)  ( 0.00     0.1254)
 D :1...1            ( 0.00     1.0323)
 F :1...1            ( 0.00     3.3402)

 CYCLE    9
  SDIIS (wt  1.000): -0.0000 -0.0000  0.0000 -0.0000  0.0014 -0.0057 -0.0076  1.0119
  DIIS coefficients: -0.0000 -0.0000  0.0000 -0.0000  0.0014 -0.0057 -0.0076  1.0119
 SCF Error: norm([F,P])=      0.000296891091, max([F,P])=      0.000268546514
 orbitals (Q,E):
 ---------------
 S :1...3            ( 2.00    -6.6473)  ( 2.00    -0.3513)  ( 0.00     0.1972)
 P :1...2            ( 1.00    -0.1362)  ( 0.00     0.1253)
 D :1...1            ( 0.00     1.0321)
 F :1...1            ( 0.00     3.3400)

 CYCLE   10
  SDIIS (wt  1.000): -0.0000 -0.0000  0.0000  0.0000 -0.0003 -0.0005  0.0184  0.9824
  DIIS coefficients: -0.0000 -0.0000  0.0000  0.0000 -0.0003 -0.0005  0.0184  0.9824
 SCF Error: norm([F,P])=      0.000000323230, max([F,P])=      0.000000256951
 orbitals (Q,E):
 ---------------
 S :1...3            ( 2.00    -6.6473)  ( 2.00    -0.3513)  ( 0.00     0.1972)
 P :1...2            ( 1.00    -0.1362)  ( 0.00     0.1253)
 D :1...1            ( 0.00     1.0321)
 F :1...1            ( 0.00     3.3400)

 CYCLE   11
  SDIIS (wt  1.000): -0.0000  0.0000  0.0002  0.0044  0.9954
  DIIS coefficients: -0.0000  0.0000  0.0002  0.0044  0.9954
 SCF Error: norm([F,P])=      0.000000003188, max([F,P])=      0.000000002647
 orbitals (Q,E):
 ---------------
 S :1...3            ( 2.00    -6.6473)  ( 2.00    -0.3513)  ( 0.00     0.1972)
 P :1...2            ( 1.00    -0.1362)  ( 0.00     0.1253)
 D :1...1            ( 0.00     1.0321)
 F :1...1            ( 0.00     3.3400)

 SCF CONVERGED

 CYCLE   12
1
 ***************************************************************************************************



                                                *******************
                                                *  R E S U L T S  *
                                                *******************
  
 *** Setting up for NEW gradients in Focky
 *** Using FIT density in Focky

 Orbital Energies, per Irrep and Spin:
 ======================================
                        Occup              E (au)              E (eV)       Diff (eV) with prev. cycle
                        -----      --------------------        ------       --------------------------
 S
               1        2.000     -0.66473159094863E+01      -180.883              -6.83E-09
               2        2.000     -0.35134921977183E+00        -9.561              -4.00E-09
               3        0.000      0.19724151702901E+00         5.367
               4        0.000      0.25814438752340E+01        70.245
               5        0.000      0.26826620261348E+02       729.989
 P
               1        1.000     -0.13617927732071E+00        -3.706              -3.70E-09
               2        0.000      0.12531170360136E+00         3.410
               3        0.000      0.16747264371451E+01        45.572
 D
               1        0.000      0.10321145268327E+01        28.085
 F
               1        0.000      0.33400309304585E+01        90.887


 Partially Occupied:
               1 P                -0.13617927732071E+00
  
 HOMO :        2 S                -0.35134921977183E+00
 LUMO :        2 P                 0.12531170360136E+00
  


 Orbital Energies, all Irreps
 ========================================

 Irrep        no.  (spin)   Occup              E (au)                E (eV)
 ---------------------------------------------------------------------------
 S             1             2.00       -0.66473159094863E+01      -180.8827
 S             2             2.00       -0.35134921977183E+00        -9.5607
 P             1             1.00       -0.13617927732071E+00        -3.7056
 P             2             0.00        0.12531170360136E+00         3.4099
 S             3             0.00        0.19724151702901E+00         5.3672
 D             1             0.00        0.10321145268327E+01        28.0853
 P             3             0.00        0.16747264371451E+01        45.5716
 S             4             0.00        0.25814438752340E+01        70.2447
 F             1             0.00        0.33400309304585E+01        90.8869
 S             5             0.00        0.26826620261348E+02       729.9895


 All Electron Calculation, thus no Orbital Energies of the Core Orbitals are calculated



 =======================================
 M U L L I K E N   P O P U L A T I O N S
 =======================================
  
 The survey below gives for each atom:
 a) the total charge (Z minus electrons)
 b) the net spin polarization (nr of electrons spin-A minus spin-B)
 c) for each spin the atomic electron valence density (integrated) per L-value.

 Atom              Charge    Spin density          S         P         D         F
 ----              ------    ------------       ------    ------    ------    ------
 1 B              -0.0000                       4.0000    1.0000    0.0000    0.0000

 Populations of individual BAS functions
 ----------------------------------------
 1 B            0.4730  1.5255 -0.1291  1.2093  0.9214  0.0290  0.0290  0.0290  0.1965  0.1965
                0.1965  0.1078  0.1078  0.1078  0.0000  0.0000  0.0000  0.0000  0.0000  0.0000
                0.0000  0.0000  0.0000  0.0000  0.0000  0.0000  0.0000  0.0000  0.0000  0.0000

 Gross Charges per Atom (Z minus electrons)
 ==========================================
            -0.0000
 Net Total: -0.00000000



 =======================================================================
 Electrostatic potential at the Nuclei due to electrons and other nuclei
 =======================================================================
  
         Atom                  Potential
         ----                  ---------
     1)   B                  11.37741465
 
 
 ========================
 No memory problems found
 ========================
 
 Maximum number of active allocate calls:         447
 
 *******************************************************************************

                             A D F   E X I T
 NORMAL TERMINATION



 =================
 Timing Statistics
 =================
  
 Total Used :                     CPU=        0.47      System=        0.03     Elapsed=        0.50

 Calls  Section                     ( Mean, Percentage )
 ---------------------------------------------------------------------------------------------------
     3  ><      ................      0.00    0.21             0.00    0.00             0.00    0.16
     1  INIT    ................      0.01    1.93             0.02   62.96             0.03    5.48
     1  GEOMET  ................      0.00    1.07             0.00   11.11             0.01    1.72
     1  INPUTA  ................      0.00    0.43             0.00    0.00             0.00    0.31
     1  MAINSY  ................      0.00    0.86             0.00    7.41             0.01    1.23
     1  SYMFIT  ................      0.00    0.21             0.00    0.00             0.00    0.17
     1  CORORT  ................      0.00    0.00             0.00    0.00             0.00    0.05
     1  SYMORB  ................      0.00    0.21             0.00    0.00             0.00    0.14
     1  CLSMAT  ................      0.01    1.07             0.00    0.00             0.01    1.05
     1  ORTHON  ................      0.00    0.21             0.00    0.00             0.00    0.30
     1  GENPT   ................      0.01    3.00             0.00    3.70             0.01    2.98
     1  PTBAS   ................      0.00    0.86             0.00    0.00             0.00    0.70
    12  FOCKY   ................      0.03   74.73             0.00    3.70             0.03   70.69
    12  FOCKTR  ................      0.00    1.93             0.00    0.00             0.00    2.04
    12  SDIIS   ................      0.00    3.85             0.00    7.40             0.00    3.86
     1  COREPS  ................      0.02    4.50             0.00    0.00             0.02    4.23
     1  POPAN   ................      0.01    1.07             0.00    0.00             0.01    1.05
     1  DEBYE   ................      0.00    0.21             0.00    0.00             0.00    0.11
     1  EXIT PROCEDURE .........      0.02    3.64             0.00    3.70             0.02    3.71


 Currently Open Files (EXIT00)
 ====================

 Unit    Access Format  Status   Type       Ident (file)
 -------------------------------------------------------
   3      SEQ    FORM   TRANSP  NORMAL      LOGFILE
                                          ( logfile )


 Buffered I/O statistics
 =======================
 Memory available:                     67108864
 Number of records fitting in memory:     16131
 Input :   0.1% of                        26729  *4k bytes
 Output:  13.8% of                         1360  *4k bytes
 Records from serial files evicted:           0
                    others evicted:           0
 Hash table lookups:      69030 with          0 conflicts (  0.00%)

 ***************************************************************************************************
 (LOGFILE)
 <Apr18-2019> <21:56:26>  ADF development version  RunTime: Apr18-2019 21:56:26  Nodes: 1  Procs: 1
 <Apr18-2019> <21:56:26>  Boron (TZ2P)
 <Apr18-2019> <21:56:26>  RunType   : CREATE
 <Apr18-2019> <21:56:26>  Net Charge: 0 (Nuclei minus Electrons)
 <Apr18-2019> <21:56:26>  Symmetry  : ATOM
  Coordinates
    Atom         X           Y           Z   (Angstrom)
    1.B         0.000000    0.000000    0.000000
 <Apr18-2019> <21:56:26>  >>>> CORORT
 <Apr18-2019> <21:56:27>  >>>> CLSMAT
 <Apr18-2019> <21:56:27>  >>>> ORTHON
 <Apr18-2019> <21:56:27>  >>>> GENPT
 <Apr18-2019> <21:56:27>  Block Length=  76
 <Apr18-2019> <21:56:27>  >>>> PTBAS
 <Apr18-2019> <21:56:27>  >>>> CYCLE
 <Apr18-2019> <21:56:27>              |Error|         MaxErr       Wt(A-DIIS)
 <Apr18-2019> <21:56:27>      1      0.00000000      0.00000000
 <Apr18-2019> <21:56:27>      2      3.20693062      2.04423772    100.0
 <Apr18-2019> <21:56:27>      3      1.04080726      0.88670381    100.0
 <Apr18-2019> <21:56:27>      4      0.44204202      0.38656679    100.0
 <Apr18-2019> <21:56:27>      5      0.21559391      0.19710799    100.0
 <Apr18-2019> <21:56:27>      6      0.08789647      0.07906051     78.8
 <Apr18-2019> <21:56:27>      7      0.03981004      0.03610293     35.5
 <Apr18-2019> <21:56:27>      8      0.00808566      0.00731531      6.4
 <Apr18-2019> <21:56:27>      9      0.00029689      0.00026855      0.0
 <Apr18-2019> <21:56:27>     10      0.00000032      0.00000026      0.0
 <Apr18-2019> <21:56:27>     11      0.00000000      0.00000000      0.0
 <Apr18-2019> <21:56:27>  SCF converged
 <Apr18-2019> <21:56:27>     12      0.00000000      0.00000000      0.0
 <Apr18-2019> <21:56:27>  >>>> POPAN
 <Apr18-2019> <21:56:27>  >>>> DEBYE
 <Apr18-2019> <21:56:27>  NORMAL TERMINATION
 <Apr18-2019> <21:56:27>  END

Create Cl   file=TZ2P-Cl
XC
  GGA BP86
End
End Input

 *******************************************************************************
 *                                                                             *
 *  -------------------------------------                                      *
 *   Amsterdam Density Functional  (ADF)         development version           *
 *  -------------------------------------                                      *
 *                                               r61132 2017-09-08             *
 *                                                                             *
 *                                                                             *
 *                              =================                              *
 *                              |               |                              *
 *                              |     A D F     |                              *
 *                              |               |                              *
 *                              =================                              *
 *                                                                             *
 *                                                                             *
 *   Online information and documentation:  https://www.scm.com/support/       *
 *   E-mail:  support@scm.com   info@scm.com                                   *
 *                                                                             *
 *   Scientific publications using ADF results must be properly referenced     *
 *   See the User Manuals (or the web site) for recommended citations          *
 *   The terms and conditions of the End User License Agreement apply to       *
 *   the use of ADF, https://www.scm.com/license-terms/                        *
 *                                                                             *
 **********************  x86_64_linux_intel / intelmpi  ************************
 
 Licensed to: VU/FEW (+ SARA) / ALGEMEEN / Amsterdam / THE NETHERLANDS
 SCM User ID: u7668
  
 ADF development version  RunTime: Apr18-2019 21:56:27  Nodes: 1  Procs: 1

 Temporary files are created in /local/datastore0/tcst25/186808/kid_0.ED6Bud

 Chlorine (TZ2P)



 ===========================
 A T T A C H E D   F I L E S
 ===========================
  
 CREATE - Data File:    TZ2P-Cl
                        Chlorine (TZ2P)



 ===============================
 M O D E L   P A R A M E T E R S
 ===============================
  
 DENSITY FUNCTIONAL POTENTIAL (scf)
    LDA:                               VWN                                      
    Gradient Corrections:              Becke88 Perdew86                        == Not Default ==

 SPIN  (restricted / unrestr.)
    Molecule:                          Restricted                               

 OTHER ASPECTS
    Relativistic Corrections:          ---                                      

    Nuclear Charge Density Model:      Point Charge Nuclei                      
    Core Treatment:                    Frozen Orbital(s)                        

    Hyperfine or Zeeman Interaction:   ---                                      



 =====================================
 S Y M M E T R Y ,   E L E C T R O N S
 =====================================
  
 Symmetry: ATOM

 Irreducible Representations, including subspecies
 -------------------------------------------------
 S
 P:x  P:y  P:z
 D:z2  D:x2-y2  D:xy  D:xz  D:yz
 F:z3  F:z  F:xyz  F:z2x  F:z2y  F:x  F:y


 Configuration of Valence Electrons
 ==================================

          Occupation Numbers
          -------------------------------------------------
 S        3*2
 P        6 5
 D        0
 F        0
          -------------------------------------------------

 Total:   17

 Net Charge: 0 (Nuclei minus Electrons)

 Preset values for MO occupations will be applied through SCF cycle no. 1000000
 Thereafter, the program will assign electrons to MOs that are spatially
 similar to the occupied MOs in a "reference" cycle ("KeepOrbitals").
 The reference cycle is always the PREVIOUS cycle: it will evolve with
 the SCF procedure.



 ================================
 (Slater-type)  F U N C T I O N S  ***  (Basis and Fit)  ***
 ================================
  

 Atom Type    1  (Cl)
 ==============

 Valence Basis Sets:  14
 -----------------------
   1 S   20.300000
   1 S   15.250000
   2 S    6.250000
   2 S    4.450000
   2 P    8.850000
   2 P    5.050000
   3 S    3.450000
   3 S    2.300000
   3 S    1.600000
   3 P    3.350000
   3 P    2.050000
   3 P    1.200000
   3 D    2.000000
   4 F    2.000000


 BAS: List of all Elementary Cartesian Basis Functions
 =====================================================

 The numbering in the list below (to the right of the function characteristics) is referred
 to in print-outs of MO eigenvectors and Mulliken populations in the BAS representation
 (as contrasted to the SFO representation).

 Notes:
 1. The functions are characterized by a polynomial prefactor (powers of x,y,z and r) and
    an exponential decay factor alpha.
 2. Since the basis sets are specific for an atom TYPE, the individual functions occur on
    all atoms of that type.
 3. The word 'Core' in the left margin signals that it is a Core Function (CF) : not a
    degree of freedom in the valence set, but only used to ensure orthogonalization of
    the other valence basis functions on the frozen Core Orbitals.


 (power of) X  Y  Z  R     Alpha  on Atom
            ==========     =====     ==========

 Cl                                   1
                                  ---------------------------------------------------------------------------
            0  0  0  0    20.300      1
            0  0  0  0    15.250      2
            0  0  0  1     6.250      3
            0  0  0  1     4.450      4
            1  0  0  0     8.850      5
            0  1  0  0     8.850      6
            0  0  1  0     8.850      7
            1  0  0  0     5.050      8
            0  1  0  0     5.050      9
            0  0  1  0     5.050     10
            0  0  0  2     3.450     11
            0  0  0  2     2.300     12
            0  0  0  2     1.600     13
            1  0  0  1     3.350     14
            0  1  0  1     3.350     15
            0  0  1  1     3.350     16
            1  0  0  1     2.050     17
            0  1  0  1     2.050     18
            0  0  1  1     2.050     19
            1  0  0  1     1.200     20
            0  1  0  1     1.200     21
            0  0  1  1     1.200     22
            2  0  0  0     2.000     23
            1  1  0  0     2.000     24
            1  0  1  0     2.000     25
            0  2  0  0     2.000     26
            0  1  1  0     2.000     27
            0  0  2  0     2.000     28
            3  0  0  0     2.000     29
            2  1  0  0     2.000     30
            2  0  1  0     2.000     31
            1  2  0  0     2.000     32
            1  1  1  0     2.000     33
            1  0  2  0     2.000     34
            0  3  0  0     2.000     35
            0  2  1  0     2.000     36
            0  1  2  0     2.000     37
            0  0  3  0     2.000     38

 Total number of charge fitting functions (nprimf)       106
 Total number of Cartesian basis functions (naos)         38
 Total number of Cartesian core functions  (ncos)          0



 BAS: List of all Elementary Cartesian Basis Functions
 =====================================================

 The numbering in the list below (to the right of the function characteristics) is referred
 to in print-outs of MO eigenvectors and Mulliken populations in the BAS representation
 (as contrasted to the SFO representation).

 Notes:
 1. The functions are characterized by a polynomial prefactor (powers of x,y,z and r) and
    an exponential decay factor alpha.
 2. Since the basis sets are specific for an atom TYPE, the individual functions occur on
    all atoms of that type.
 3. The word 'Core' in the left margin signals that it is a Core Function (CF) : not a
    degree of freedom in the valence set, but only used to ensure orthogonalization of
    the other valence basis functions on the frozen Core Orbitals.


 (power of) X  Y  Z  R     Alpha  on Atom
            ==========     =====     ==========

 Cl                                   1
                                  ---------------------------------------------------------------------------
            0  0  0  0    20.300      1
            0  0  0  0    15.250      2
            0  0  0  1     6.250      3
            0  0  0  1     4.450      4
            1  0  0  0     8.850      5
            0  1  0  0     8.850      6
            0  0  1  0     8.850      7
            1  0  0  0     5.050      8
            0  1  0  0     5.050      9
            0  0  1  0     5.050     10
            0  0  0  2     3.450     11
            0  0  0  2     2.300     12
            0  0  0  2     1.600     13
            1  0  0  1     3.350     14
            0  1  0  1     3.350     15
            0  0  1  1     3.350     16
            1  0  0  1     2.050     17
            0  1  0  1     2.050     18
            0  0  1  1     2.050     19
            1  0  0  1     1.200     20
            0  1  0  1     1.200     21
            0  0  1  1     1.200     22
            2  0  0  0     2.000     23
            1  1  0  0     2.000     24
            1  0  1  0     2.000     25
            0  2  0  0     2.000     26
            0  1  1  0     2.000     27
            0  0  2  0     2.000     28
            3  0  0  0     2.000     29
            2  1  0  0     2.000     30
            2  0  1  0     2.000     31
            1  2  0  0     2.000     32
            1  1  1  0     2.000     33
            1  0  2  0     2.000     34
            0  3  0  0     2.000     35
            0  2  1  0     2.000     36
            0  1  2  0     2.000     37
            0  0  3  0     2.000     38
1
 ***************************************************************************************************



                                              ***********************
                                              *  T E C H N I C A L  *
                                              ***********************
  



 =============================================================
 P A R A L L E L I Z A T I O N  and  V E C T O R I Z A T I O N
 =============================================================
  
 Nr of parallel processes:                                1
 Maximum vector length in NumInt loops:                 128

 IO buffersize (Mb):                                     64.000000



 =====================
 S C F   U P D A T E S
 =====================
  
 Max. nr. of cycles:                               300
 Convergence criterion:                              0.0000000100
   secondary criterion:                              0.0000000100

 Mix parameter (when DIIS does not apply):           0.2000000000
 Special mix parameter for the first cycle:          1.0000000000
 Mixed ADIIS+DIIS will be used
    Max number of expansion vectors:                10
    Pure ADIIS when Max([F,P]) is above              0.1000000000
    Pure DIIS when Max([F,P]) is below               0.0010000000
 Automatic ElectronSmearing (in case of problematic SCF convergence) disabled



 =================
 P R E C I S I O N  ***  (General: NumInt, NeglectFunctionTails, ...)  ***
 =================
  

 NumInt:           Target precision:                12.0000000000
 -------           Initial precision:               10.0000000000
                   Min. precision (optimization):   10.0000000000

 Neglect Functions:          Basis functions:        0.1000000000E-13
 ------------------          Fit functions:          0.1000000000E-13



 ===========================
 L I N E A R   S C A L I N G
 ===========================
  

 Cut-off radii density fit:                        0.1000000000E-97
 Overlap cut-off criterion AO matrix elements:     0.1000000000E-97
 Cut-offs for Coulomb potential and fitted density:0.1000000000E-97
 Cut-off criterion for Coulomb multipole terms:    0.1000000000E-97
 Progressive Convergence parameter:                 0.000000000    
1
 ***************************************************************************************************



                                            ***************************
                                            *  C O M P U T A T I O N  *
                                            ***************************
  

 Number of elements of the density matrix on this node (used, total):       741       741



 ===========================================
 Numerical Integration : Fuzzy Cells (Becke)
 ===========================================
  
 Becke grid quality: VERYGOOD       
  
 Lebedev angular grid order:             min:  13 max:  41
 Nr. of radial points:                   min:  93 max:  93

 Total nr. of points:         93
 Nr. of blocks:                1
 Block length:                93
 Nr. of dummy points:          0


 Test of Precision of the Numerical Integration Grid
 ===================================================

 Integral of the Total Core Density:                   0.00000000000000



 ========================
 Density Fitting (zlmFit)
 ========================
  
 ZlmFit Fit Quality: VERYGOOD       
  
 Max L-expansion:                        min:   0 max:   0
 Nr. of radial interpolation points:     min: 200 max: 200



 =====
 S C F  ***  ScaSCF  ***
 =====
  

 CYCLE    1
 SCF Error: norm([F,P])=      0.000000000000, max([F,P])=      0.000000000000
 orbitals (Q,E):
 ---------------
 S :1...7            ( 2.00  -144.4893)  ( 2.00   -36.0966)  ( 2.00   -16.0338)  ( 0.00    -8.9253)
                     ( 0.00    -5.5262)  ( 0.00    -3.6296)  ( 0.00   175.9783)
 P :1...5            ( 6.00   -36.1179)  ( 5.00   -15.7666)  ( 0.00    -8.4199)  ( 0.00    -4.8064)
                     ( 0.00    -2.9092)
 D :1...1            ( 0.00    -9.3333)
 F :1...1            ( 0.00    -6.5000)

 CYCLE    2
  SDIIS (wt  0.000):  1.0000 -0.0000
 A-DIIS (wt  1.000):  0.0000  1.0000
  DIIS coefficients:  0.0000  1.0000
 SCF Error: norm([F,P])=     37.921427988996, max([F,P])=     10.746872582127
 orbitals (Q,E):
 ---------------
 S :1...4            ( 2.00   -86.3575)  ( 2.00    -3.0129)  ( 2.00     0.0980)  ( 0.00     0.9939)
 P :1...3            ( 6.00    -0.5948)  ( 5.00     0.1882)  ( 0.00     1.1638)
 D :1...1            ( 0.00     1.4603)
 F :1...1            ( 0.00     1.7663)

 CYCLE    3
  SDIIS (wt  0.000):  0.2434  0.7566
 A-DIIS (wt  1.000):  0.2156  0.7844
  DIIS coefficients:  0.2156  0.7844
 SCF Error: norm([F,P])=     20.559132819579, max([F,P])=      6.819368570063
 orbitals (Q,E):
 ---------------
 S :1...4            ( 2.00  -105.6335)  ( 2.00   -12.2692)  ( 2.00    -1.9526)  ( 0.00    -0.2308)
 P :1...3            ( 6.00   -10.3189)  ( 5.00    -1.4268)  ( 0.00    -0.1151)
 D :1...1            ( 0.00    -0.4893)
 F :1...1            ( 0.00     0.5858)

 CYCLE    4
  SDIIS (wt  0.000): -0.0803  0.1330  0.9472
 A-DIIS (wt  1.000):  0.0000  0.0000  1.0000
  DIIS coefficients:  0.0000  0.0000  1.0000
 SCF Error: norm([F,P])=      6.054994389684, max([F,P])=      2.076306065580
 orbitals (Q,E):
 ---------------
 S :1...4            ( 2.00   -97.6275)  ( 2.00    -7.3935)  ( 2.00    -0.2357)  ( 0.00     0.4487)
 P :1...3            ( 6.00    -5.0969)  ( 5.00     0.0458)  ( 0.00     0.5050)
 D :1...1            ( 0.00     0.8527)
 F :1...1            ( 0.00     1.4798)

 CYCLE    5
  SDIIS (wt  0.000): -0.0195 -0.0652  0.3829  0.7018
 A-DIIS (wt  1.000):  0.0000  0.0000  0.4464  0.5536
  DIIS coefficients:  0.0000  0.0000  0.4464  0.5536
 SCF Error: norm([F,P])=      4.075975949714, max([F,P])=      1.727957366720
 orbitals (Q,E):
 ---------------
 S :1...4            ( 2.00  -100.8464)  ( 2.00    -9.4045)  ( 2.00    -0.9317)  ( 0.00     0.1214)
 P :1...3            ( 6.00    -7.2122)  ( 5.00    -0.4754)  ( 0.00     0.1574)
 D :1...1            ( 0.00     0.2162)
 F :1...1            ( 0.00     1.0554)

 CYCLE    6
  SDIIS (wt  0.000):  0.0004 -0.0143  0.0276  0.1068  0.8794
 A-DIIS (wt  1.000):  0.0000  0.0000  0.0000  0.0000  1.0000
  DIIS coefficients:  0.0000  0.0000  0.0000  0.0000  1.0000
 SCF Error: norm([F,P])=      0.304289775592, max([F,P])=      0.107343847508
 orbitals (Q,E):
 ---------------
 S :1...4            ( 2.00  -100.5536)  ( 2.00    -9.0441)  ( 2.00    -0.6639)  ( 0.00     0.2391)
 P :1...3            ( 6.00    -6.8563)  ( 5.00    -0.2412)  ( 0.00     0.2733)
 D :1...1            ( 0.00     0.4589)
 F :1...1            ( 0.00     1.2362)

 CYCLE    7
  SDIIS (wt  0.000): -0.0003  0.0002  0.0113 -0.0213  0.3758  0.6343
 A-DIIS (wt  1.000):  0.0000  0.0000  0.0000  0.0000  0.4119  0.5881
  DIIS coefficients:  0.0000  0.0000  0.0000  0.0000  0.4119  0.5881
 SCF Error: norm([F,P])=      0.315791001707, max([F,P])=      0.135194857093
 orbitals (Q,E):
 ---------------
 S :1...4            ( 2.00  -100.8164)  ( 2.00    -9.2613)  ( 2.00    -0.7678)  ( 0.00     0.1936)
 P :1...3            ( 6.00    -7.0781)  ( 5.00    -0.3278)  ( 0.00     0.2284)
 D :1...1            ( 0.00     0.3689)
 F :1...1            ( 0.00     1.1743)

 CYCLE    8
  SDIIS (wt  0.718):  0.0001 -0.0002 -0.0036  0.0050  0.0669  0.1182  0.8135
 A-DIIS (wt  0.282):  0.0000  0.0000  0.0000  0.0000  0.0000  0.0000  1.0000
  DIIS coefficients:  0.0001 -0.0001 -0.0026  0.0036  0.0480  0.0848  0.8662
 SCF Error: norm([F,P])=      0.075891594060, max([F,P])=      0.028963276969
 orbitals (Q,E):
 ---------------
 S :1...4            ( 2.00  -100.7462)  ( 2.00    -9.2216)  ( 2.00    -0.7548)  ( 0.00     0.1976)
 P :1...3            ( 6.00    -7.0356)  ( 5.00    -0.3170)  ( 0.00     0.2325)
 D :1...1            ( 0.00     0.3792)
 F :1...1            ( 0.00     1.1807)

 CYCLE    9
  SDIIS (wt  0.946): -0.0000 -0.0000 -0.0001  0.0007  0.0005 -0.0101  0.1748  0.8341
 A-DIIS (wt  0.054):  0.0000  0.0000  0.0000  0.0000  0.0000  0.0000  0.0000  1.0000
  DIIS coefficients: -0.0000 -0.0000 -0.0001  0.0007  0.0005 -0.0095  0.1655  0.8430
 SCF Error: norm([F,P])=      0.015859999140, max([F,P])=      0.006299113573
 orbitals (Q,E):
 ---------------
 S :1...4            ( 2.00  -100.7591)  ( 2.00    -9.2297)  ( 2.00    -0.7580)  ( 0.00     0.1961)
 P :1...3            ( 6.00    -7.0441)  ( 5.00    -0.3197)  ( 0.00     0.2310)
 D :1...1            ( 0.00     0.3766)
 F :1...1            ( 0.00     1.1790)

 CYCLE   10
  SDIIS (wt  1.000): -0.0000  0.0000  0.0000 -0.0000  0.0003  0.0020 -0.0152 -0.0529  1.0659
  DIIS coefficients: -0.0000  0.0000  0.0000 -0.0000  0.0003  0.0020 -0.0152 -0.0529  1.0659
 SCF Error: norm([F,P])=      0.000667349522, max([F,P])=      0.000279327113
 orbitals (Q,E):
 ---------------
 S :1...4            ( 2.00  -100.7585)  ( 2.00    -9.2293)  ( 2.00    -0.7578)  ( 0.00     0.1961)
 P :1...3            ( 6.00    -7.0437)  ( 5.00    -0.3196)  ( 0.00     0.2310)
 D :1...1            ( 0.00     0.3767)
 F :1...1            ( 0.00     1.1791)

 CYCLE   11
  SDIIS (wt  1.000):  0.0000  0.0000 -0.0000  0.0000  0.0000 -0.0005 -0.0014  0.0266  0.9753
  DIIS coefficients:  0.0000  0.0000 -0.0000  0.0000  0.0000 -0.0005 -0.0014  0.0266  0.9753
 SCF Error: norm([F,P])=      0.000004614978, max([F,P])=      0.000001534154
 orbitals (Q,E):
 ---------------
 S :1...4            ( 2.00  -100.7585)  ( 2.00    -9.2293)  ( 2.00    -0.7578)  ( 0.00     0.1961)
 P :1...3            ( 6.00    -7.0437)  ( 5.00    -0.3196)  ( 0.00     0.2310)
 D :1...1            ( 0.00     0.3767)
 F :1...1            ( 0.00     1.1790)

 CYCLE   12
  SDIIS (wt  1.000): -0.0000 -0.0000  0.0000  0.0000 -0.0004 -0.0160  1.0163
  DIIS coefficients: -0.0000 -0.0000  0.0000  0.0000 -0.0004 -0.0160  1.0163
 SCF Error: norm([F,P])=      0.000000062442, max([F,P])=      0.000000025232
 orbitals (Q,E):
 ---------------
 S :1...4            ( 2.00  -100.7585)  ( 2.00    -9.2293)  ( 2.00    -0.7578)  ( 0.00     0.1961)
 P :1...3            ( 6.00    -7.0437)  ( 5.00    -0.3196)  ( 0.00     0.2310)
 D :1...1            ( 0.00     0.3767)
 F :1...1            ( 0.00     1.1790)

 CYCLE   13
  SDIIS (wt  1.000):  0.0000  0.0000 -0.0001  0.0416  0.9585
  DIIS coefficients:  0.0000  0.0000 -0.0001  0.0416  0.9585
 SCF Error: norm([F,P])=      0.000000000821, max([F,P])=      0.000000000296
 orbitals (Q,E):
 ---------------
 S :1...4            ( 2.00  -100.7585)  ( 2.00    -9.2293)  ( 2.00    -0.7578)  ( 0.00     0.1961)
 P :1...3            ( 6.00    -7.0437)  ( 5.00    -0.3196)  ( 0.00     0.2310)
 D :1...1            ( 0.00     0.3767)
 F :1...1            ( 0.00     1.1790)

 SCF CONVERGED

 CYCLE   14
1
 ***************************************************************************************************



                                                *******************
                                                *  R E S U L T S  *
                                                *******************
  
 *** Setting up for NEW gradients in Focky
 *** Using FIT density in Focky

 Orbital Energies, per Irrep and Spin:
 ======================================
                        Occup              E (au)              E (eV)       Diff (eV) with prev. cycle
                        -----      --------------------        ------       --------------------------
 S
               1        2.000     -0.10075854991300E+03     -2741.780               1.12E-09
               2        2.000     -0.92293344469215E+01      -251.143               1.18E-09
               3        2.000     -0.75783582736264E+00       -20.622               9.10E-10
               4        0.000      0.19610490831428E+00         5.336
               5        0.000      0.20082409800701E+01        54.647
               6        0.000      0.12738888004959E+02       346.643
               7        0.000      0.21468293165177E+03      5841.820
 P
               1        6.000     -0.70437402745608E+01      -191.670               1.16E-09
               2        5.000     -0.31960440198329E+00        -8.697               7.96E-10
               3        0.000      0.23096934986184E+00         6.285
               4        0.000      0.21036566824943E+01        57.243
               5        0.000      0.18841826791351E+02       512.712
 D
               1        0.000      0.37673742981281E+00        10.252
 F
               1        0.000      0.11790498392583E+01        32.084


 Partially Occupied:
               2 P                -0.31960440198329E+00
  
 HOMO :        3 S                -0.75783582736264E+00
 LUMO :        4 S                 0.19610490831428E+00
  


 Orbital Energies, all Irreps
 ========================================

 Irrep        no.  (spin)   Occup              E (au)                E (eV)
 ---------------------------------------------------------------------------
 S             1             2.00       -0.10075854991300E+03     -2741.7796
 S             2             2.00       -0.92293344469215E+01      -251.1430
 P             1             6.00       -0.70437402745608E+01      -191.6699
 S             3             2.00       -0.75783582736264E+00       -20.6218
 P             2             5.00       -0.31960440198329E+00        -8.6969
 S             4             0.00        0.19610490831428E+00         5.3363
 P             3             0.00        0.23096934986184E+00         6.2850
 D             1             0.00        0.37673742981281E+00        10.2515
 F             1             0.00        0.11790498392583E+01        32.0836
 S             5             0.00        0.20082409800701E+01        54.6470
 P             4             0.00        0.21036566824943E+01        57.2434
 S             6             0.00        0.12738888004959E+02       346.6428
 P             5             0.00        0.18841826791351E+02       512.7122
 S             7             0.00        0.21468293165177E+03      5841.8198


 All Electron Calculation, thus no Orbital Energies of the Core Orbitals are calculated



 =======================================
 M U L L I K E N   P O P U L A T I O N S
 =======================================
  
 The survey below gives for each atom:
 a) the total charge (Z minus electrons)
 b) the net spin polarization (nr of electrons spin-A minus spin-B)
 c) for each spin the atomic electron valence density (integrated) per L-value.

 Atom              Charge    Spin density          S         P         D         F
 ----              ------    ------------       ------    ------    ------    ------
 1 Cl             -0.0000                       6.0000   11.0000    0.0000    0.0000

 Populations of individual BAS functions
 ----------------------------------------
 1 Cl           0.5053  1.4530  1.7167  0.2491  0.7263  0.7263  0.7263  1.2729  1.2729  1.2729
                0.6013  1.1239  0.3507  0.2518  0.2518  0.2518  1.0354  1.0354  1.0354  0.3803
                0.3803  0.3803  0.0000  0.0000  0.0000  0.0000  0.0000  0.0000  0.0000  0.0000
                0.0000  0.0000  0.0000  0.0000  0.0000  0.0000  0.0000  0.0000

 Gross Charges per Atom (Z minus electrons)
 ==========================================
            -0.0000
 Net Total: -0.00000000



 =======================================================================
 Electrostatic potential at the Nuclei due to electrons and other nuclei
 =======================================================================
  
         Atom                  Potential
         ----                  ---------
     1)   Cl                 64.38472481
 
 
 ========================
 No memory problems found
 ========================
 
 Maximum number of active allocate calls:         447
 
 *******************************************************************************

                             A D F   E X I T
 NORMAL TERMINATION



 =================
 Timing Statistics
 =================
  
 Total Used :                     CPU=        0.63      System=        0.03     Elapsed=        0.67

 Calls  Section                     ( Mean, Percentage )
 ---------------------------------------------------------------------------------------------------
     3  ><      ................      0.00    0.00             0.00    0.00             0.00    0.12
     1  INIT    ................      0.01    1.73             0.01   44.83             0.04    5.25
     1  GEOMET  ................      0.01    0.95             0.00   10.34             0.01    1.24
     1  INPUTA  ................      0.00    0.16             0.00    3.45             0.00    0.23
     1  MAINSY  ................      0.00    0.47             0.00   10.35             0.01    0.89
     1  SYMFIT  ................      0.00    0.00             0.00    3.45             0.00    0.12
     1  CORORT  ................      0.00    0.00             0.00    0.00             0.00    0.04
     1  SYMORB  ................      0.00    0.16             0.00    0.00             0.00    0.10
     1  CLSMAT  ................      0.00    0.63             0.00    3.45             0.01    0.78
     1  ORTHON  ................      0.00    0.16             0.00    3.45             0.00    0.23
     1  GENPT   ................      0.02    2.84             0.00    0.00             0.02    2.81
     1  PTBAS   ................      0.00    0.63             0.00    0.00             0.00    0.52
    14  FOCKY   ................      0.04   79.18             0.00    6.90             0.04   74.92
    14  FOCKTR  ................      0.00    1.42             0.00    3.45             0.00    1.74
    14  SDIIS   ................      0.00    3.63             0.00    3.45             0.00    3.32
     1  COREPS  ................      0.03    4.42             0.00    0.00             0.03    3.98
     1  POPAN   ................      0.00    0.79             0.00    0.00             0.01    0.78
     1  DEBYE   ................      0.00    0.16             0.00    0.00             0.00    0.09
     1  EXIT PROCEDURE .........      0.02    2.68             0.00    6.89             0.02    2.84


 Currently Open Files (EXIT00)
 ====================

 Unit    Access Format  Status   Type       Ident (file)
 -------------------------------------------------------
   3      SEQ    FORM   TRANSP  NORMAL      LOGFILE
                                          ( logfile )


 Buffered I/O statistics
 =======================
 Memory available:                     67108864
 Number of records fitting in memory:     16131
 Input :   0.1% of                        29204  *4k bytes
 Output:  12.9% of                         1456  *4k bytes
 Records from serial files evicted:           0
                    others evicted:           0
 Hash table lookups:      75578 with          0 conflicts (  0.00%)

 ***************************************************************************************************
 (LOGFILE)
 <Apr18-2019> <21:56:26>  ADF development version  RunTime: Apr18-2019 21:56:26  Nodes: 1  Procs: 1
 <Apr18-2019> <21:56:26>  Boron (TZ2P)
 <Apr18-2019> <21:56:26>  RunType   : CREATE
 <Apr18-2019> <21:56:26>  Net Charge: 0 (Nuclei minus Electrons)
 <Apr18-2019> <21:56:26>  Symmetry  : ATOM
  Coordinates
    Atom         X           Y           Z   (Angstrom)
    1.B         0.000000    0.000000    0.000000
 <Apr18-2019> <21:56:26>  >>>> CORORT
 <Apr18-2019> <21:56:27>  >>>> CLSMAT
 <Apr18-2019> <21:56:27>  >>>> ORTHON
 <Apr18-2019> <21:56:27>  >>>> GENPT
 <Apr18-2019> <21:56:27>  Block Length=  76
 <Apr18-2019> <21:56:27>  >>>> PTBAS
 <Apr18-2019> <21:56:27>  >>>> CYCLE
 <Apr18-2019> <21:56:27>              |Error|         MaxErr       Wt(A-DIIS)
 <Apr18-2019> <21:56:27>      1      0.00000000      0.00000000
 <Apr18-2019> <21:56:27>      2      3.20693062      2.04423772    100.0
 <Apr18-2019> <21:56:27>      3      1.04080726      0.88670381    100.0
 <Apr18-2019> <21:56:27>      4      0.44204202      0.38656679    100.0
 <Apr18-2019> <21:56:27>      5      0.21559391      0.19710799    100.0
 <Apr18-2019> <21:56:27>      6      0.08789647      0.07906051     78.8
 <Apr18-2019> <21:56:27>      7      0.03981004      0.03610293     35.5
 <Apr18-2019> <21:56:27>      8      0.00808566      0.00731531      6.4
 <Apr18-2019> <21:56:27>      9      0.00029689      0.00026855      0.0
 <Apr18-2019> <21:56:27>     10      0.00000032      0.00000026      0.0
 <Apr18-2019> <21:56:27>     11      0.00000000      0.00000000      0.0
 <Apr18-2019> <21:56:27>  SCF converged
 <Apr18-2019> <21:56:27>     12      0.00000000      0.00000000      0.0
 <Apr18-2019> <21:56:27>  >>>> POPAN
 <Apr18-2019> <21:56:27>  >>>> DEBYE
 <Apr18-2019> <21:56:27>  NORMAL TERMINATION
 <Apr18-2019> <21:56:27>  END
 <Apr18-2019> <21:56:27>  ADF development version  RunTime: Apr18-2019 21:56:27  Nodes: 1  Procs: 1
 <Apr18-2019> <21:56:27>  Chlorine (TZ2P)
 <Apr18-2019> <21:56:27>  RunType   : CREATE
 <Apr18-2019> <21:56:27>  Net Charge: 0 (Nuclei minus Electrons)
 <Apr18-2019> <21:56:27>  Symmetry  : ATOM
  Coordinates
    Atom         X           Y           Z   (Angstrom)
    1.Cl        0.000000    0.000000    0.000000
 <Apr18-2019> <21:56:27>  >>>> CORORT
 <Apr18-2019> <21:56:27>  >>>> CLSMAT
 <Apr18-2019> <21:56:27>  >>>> ORTHON
 <Apr18-2019> <21:56:27>  >>>> GENPT
 <Apr18-2019> <21:56:27>  Block Length=  93
 <Apr18-2019> <21:56:27>  >>>> PTBAS
 <Apr18-2019> <21:56:27>  >>>> CYCLE
 <Apr18-2019> <21:56:27>              |Error|         MaxErr       Wt(A-DIIS)
 <Apr18-2019> <21:56:27>      1      0.00000000      0.00000000
 <Apr18-2019> <21:56:27>      2     37.92142799     10.74687258    100.0
 <Apr18-2019> <21:56:27>      3     20.55913282      6.81936857    100.0
 <Apr18-2019> <21:56:27>      4      6.05499439      2.07630607    100.0
 <Apr18-2019> <21:56:27>      5      4.07597595      1.72795737    100.0
 <Apr18-2019> <21:56:27>      6      0.30428978      0.10734385    100.0
 <Apr18-2019> <21:56:27>      7      0.31579100      0.13519486    100.0
 <Apr18-2019> <21:56:27>      8      0.07589159      0.02896328     28.2
 <Apr18-2019> <21:56:27>      9      0.01586000      0.00629911      5.4
 <Apr18-2019> <21:56:28>     10      0.00066735      0.00027933      0.0
 <Apr18-2019> <21:56:28>     11      0.00000461      0.00000153      0.0
 <Apr18-2019> <21:56:28>     12      0.00000006      0.00000003      0.0
 <Apr18-2019> <21:56:28>     13      0.00000000      0.00000000      0.0
 <Apr18-2019> <21:56:28>  SCF converged
 <Apr18-2019> <21:56:28>     14      0.00000000      0.00000000      0.0
 <Apr18-2019> <21:56:28>  >>>> POPAN
 <Apr18-2019> <21:56:28>  >>>> DEBYE
 <Apr18-2019> <21:56:28>  NORMAL TERMINATION
 <Apr18-2019> <21:56:28>  END


 Parallel Execution: Process Information
 ==============================================================================
 Rank   Node Name                              NodeID   MyNodeRank  NodeMaster
    0   BAZIS-cn076                               0          0          0
    1   BAZIS-cn076                               0          1         -1
    2   BAZIS-cn076                               0          2         -1
    3   BAZIS-cn076                               0          3         -1
    4   BAZIS-cn076                               0          4         -1
    5   BAZIS-cn076                               0          5         -1
    6   BAZIS-cn076                               0          6         -1
    7   BAZIS-cn076                               0          7         -1
    8   BAZIS-cn076                               0          8         -1
    9   BAZIS-cn076                               0          9         -1
   10   BAZIS-cn076                               0         10         -1
   11   BAZIS-cn076                               0         11         -1
 ==============================================================================


May use up to 30736MB of RAM as shared memory on node 0


XC
  GGA BP86
END

ANALYTICALFREQ
END

SCF
  iterations 250
END

SYMMETRY nosym
CHARGE 0

ZLMFIT
  Quality normal
END

BECKEGRID
  Quality good
End

ATOMS
5.B         0.003761   -1.473037    0.853186
6.Cl        1.466340   -1.689223   -0.247833
7.Cl        0.363887   -0.503865    2.379232
8.Cl       -0.915728   -3.038030    1.173570
END

Fragments
B t21.B
Cl t21.Cl
End
end input

 *******************************************************************************
 *                                                                             *
 *  -------------------------------------                                      *
 *   Amsterdam Density Functional  (ADF)         development version           *
 *  -------------------------------------                                      *
 *                                               r61132 2017-09-08             *
 *                                                                             *
 *                                                                             *
 *                              =================                              *
 *                              |               |                              *
 *                              |     A D F     |                              *
 *                              |               |                              *
 *                              =================                              *
 *                                                                             *
 *                                                                             *
 *   Online information and documentation:  https://www.scm.com/support/       *
 *   E-mail:  support@scm.com   info@scm.com                                   *
 *                                                                             *
 *   Scientific publications using ADF results must be properly referenced     *
 *   See the User Manuals (or the web site) for recommended citations          *
 *   The terms and conditions of the End User License Agreement apply to       *
 *   the use of ADF, https://www.scm.com/license-terms/                        *
 *                                                                             *
 **********************  x86_64_linux_intel / intelmpi  ************************
 
 Licensed to: VU/FEW (+ SARA) / ALGEMEEN / Amsterdam / THE NETHERLANDS
 SCM User ID: u7668
  
 ADF development version  RunTime: Apr18-2019 21:56:28  Nodes: 1  Procs: 12

 Temporary files are created in /local/datastore0/tcst25/186808/kid_0.isCsxB


Communication costs MPI_COMM_WORLD:      2.596 usec per message,   0.0133 usec per 8-byte item
Communication costs for intra-node:      2.599 usec per message,   0.0133 usec per 8-byte item

 *** (NO TITLE) ***



 ===========================
 A T T A C H E D   F I L E S
 ===========================
  



 ===============================
 M O D E L   P A R A M E T E R S
 ===============================
  
 DENSITY FUNCTIONAL POTENTIAL (scf)
    LDA:                               VWN                                      
    Gradient Corrections:              Becke88 Perdew86                        == Not Default ==

 SPIN  (restricted / unrestr.)
    Molecule:                          Restricted                               
    Fragments:                         Restricted                               

 OTHER ASPECTS
    Relativistic Corrections:          ---                                      

    Nuclear Charge Density Model:      Point Charge Nuclei                      
    Core Treatment:                    Frozen Orbital(s)                        

    Hyperfine or Zeeman Interaction:   ---                                      


 Fragment File(s)
 ----------------
 B:
         file : t21.B
         jobid: ADF development version  RunTime: Apr18-2019 21:56:26  Nodes: 1  Procs: 1
         title: Boron (TZ2P)
 Cl:
         file : t21.Cl
         jobid: ADF development version  RunTime: Apr18-2019 21:56:27  Nodes: 1  Procs: 1
         title: Chlorine (TZ2P)



                                        ************************************
                                        *  R U N   T Y P E : SINGLE POINT  *
                                        ************************************
  



 ===============
 G E O M E T R Y  ***  3D  Molecule  ***
 ===============
  

 ATOMS
 =====                            X Y Z                    CHARGE
                                (Angstrom)             Nucl     +Core       At.Mass
                       --------------------------    ----------------       -------
    1  B               0.0038   -1.4730    0.8532      5.00      5.00       11.0093
    2  Cl              1.4663   -1.6892   -0.2478     17.00     17.00       34.9689
    3  Cl              0.3639   -0.5039    2.3792     17.00     17.00       34.9689
    4  Cl             -0.9157   -3.0380    1.1736     17.00     17.00       34.9689


 FRAGMENTS
 =========                                     Atoms in this Fragment     Cart. coord.s (Angstrom)
                                               -------------------------------------------------------
    1  B                                                 1  B            0.0038   -1.4730    0.8532
    2  Cl                                                2  Cl           1.4663   -1.6892   -0.2478
    3  Cl                                                3  Cl           0.3639   -0.5039    2.3792
    4  Cl                                                4  Cl          -0.9157   -3.0380    1.1736


 Interatomic Distance Matrix (Angstrom)
 --------------------------------------

   1)     0.000
   2)     1.843   0.000
   3)     1.843   3.086   0.000
   4)     1.843   3.084   3.084   0.000

 Min. Distance =    1.8432
 Max. Distance =    3.0858



 =====================================
 S Y M M E T R Y ,   E L E C T R O N S
 =====================================
  
 Symmetry: NOSYM

 Irreducible Representations, including subspecies
 -------------------------------------------------
 A


 Configuration of Valence Electrons
 ==================================
 ( determined in the SCF procedure )

 Total:   56

 Net Charge: 0 (Nuclei minus Electrons)

 Aufbau principle for MO occupations will be applied through SCF cycle no.     125
 Thereafter, the program will assign electrons to MOs that are spatially
 similar to the occupied MOs in a "reference" cycle ("KeepOrbitals").
 The reference cycle is always the PREVIOUS cycle: it will evolve with
 the SCF procedure.
1
 ***************************************************************************************************



                                      ****************************************
                                      *  B U I L D : (Fragments, Functions)  *
                                      ****************************************
  



 =======
 S F O s  ***  (Symmetrized Fragment Orbitals)  ***
 =======
  
 SFOs are linear combinations of (valence) Fragment Orbitals (FOs), such that the SFOs transform as the
 irreducible representations of the (molecular) symmetry group. Each SFO is therefore characterized by
 an irrep of the molecule and by a few (or only one) generating FOs.
 The SFOs constitute a symmetry-adapted basis for the Fock matrix. The MO eigenvector coefficients in
 this basis provide a direct interpretation of the MOs in terms of Frontier Orbital Theory.

 The SFOs are combined with auxiliary Core Functions (CFs) to ensure orthogonalization on the (frozen)
 Core Orbitals (COs). The Core-orthogonalized SFOs (CSFOs) constitute the true Fock basis.

 The FOs, and hence also the (C)SFOs are combinations of the elementary basis functions (BAS). The basis
 functions that participate in the description of the SFOs depend on the irrep. The indices of the
 involved functions are printed below for each irrep.
 (The complete list of primitive basis functions is printed in another section)

 Total nr. of (C)SFOs (summation over all irreps) :   128

 NOTE: a (C)SFO that is defined as a combination of more than one FO is usually NOT normalized.



                                       === A ===
 Nr. of SFOs :  128
 Cartesian basis functions that participate in this irrep (total number =   144) :
      1     2     3     4     5     6     9    12     7    10
     13     8    11    14    15    16    17    18    19    20
     21    22    23    24    25    26    27    28    29    30
     31    32    33    34    41    42    43    35    38    44
     47    50    36    39    45    48    51    37    40    46
     49    52    53    54    55    56    57    58    59    60
     61    62    63    64    65    66    67    68    69    70
     71    72    79    80    81    73    76    82    85    88
     74    77    83    86    89    75    78    84    87    90
     91    92    93    94    95    96    97    98    99   100
    101   102   103   104   105   106   107   108   109   110
    117   118   119   111   114   120   123   126   112   115
    121   124   127   113   116   122   125   128   129   130
    131   132   133   134   135   136   137   138   139   140
    141   142   143   144

    SFO  (index         Fragment          Generating    Expansion in Fragment Orbitals
  indx  incl.CFs)   Occup   Orb.Energy   FragmentType  Coeff.   Orbital     on Fragment
 --------------------------------------------------------------------------------------
     1       1      2.000      -6.647 au  B             1.00      1 S               1
                        (    -180.883 eV)
     2       2      2.000      -0.351 au  B             1.00      2 S               1
                        (      -9.561 eV)
     3       3       --         0.197 au  B             1.00      3 S               1
                        (       5.367 eV)
     4       4       --         2.581 au  B             1.00      4 S               1
                        (      70.245 eV)
     5       5       --        26.827 au  B             1.00      5 S               1
                        (     729.989 eV)
     6       6      0.333      -0.136 au  B             1.00      1 P:x             1
                        (      -3.706 eV)
     7       7       --         0.125 au  B             1.00      2 P:x             1
                        (       3.410 eV)
     8       8       --         1.675 au  B             1.00      3 P:x             1
                        (      45.572 eV)
     9       9      0.333      -0.136 au  B             1.00      1 P:y             1
                        (      -3.706 eV)
    10      10       --         0.125 au  B             1.00      2 P:y             1
                        (       3.410 eV)
    11      11       --         1.675 au  B             1.00      3 P:y             1
                        (      45.572 eV)
    12      12      0.333      -0.136 au  B             1.00      1 P:z             1
                        (      -3.706 eV)
    13      13       --         0.125 au  B             1.00      2 P:z             1
                        (       3.410 eV)
    14      14       --         1.675 au  B             1.00      3 P:z             1
                        (      45.572 eV)
    15      15       --         1.032 au  B             1.00      1 D:z2            1
                        (      28.085 eV)
    16      16       --         1.032 au  B             1.00      1 D:x2-y2         1
                        (      28.085 eV)
    17      17       --         1.032 au  B             1.00      1 D:xy            1
                        (      28.085 eV)
    18      18       --         1.032 au  B             1.00      1 D:xz            1
                        (      28.085 eV)
    19      19       --         1.032 au  B             1.00      1 D:yz            1
                        (      28.085 eV)
    20      20       --         3.340 au  B             1.00      1 F:z3            1
                        (      90.887 eV)
    21      21       --         3.340 au  B             1.00      1 F:z             1
                        (      90.887 eV)
    22      22       --         3.340 au  B             1.00      1 F:xyz           1
                        (      90.887 eV)
    23      23       --         3.340 au  B             1.00      1 F:z2x           1
                        (      90.887 eV)
    24      24       --         3.340 au  B             1.00      1 F:z2y           1
                        (      90.887 eV)
    25      25       --         3.340 au  B             1.00      1 F:x             1
                        (      90.887 eV)
    26      26       --         3.340 au  B             1.00      1 F:y             1
                        (      90.887 eV)
    27      27      2.000    -100.759 au  Cl            1.00      1 S               2
                        (   -2741.780 eV)
    28      28      2.000      -9.229 au  Cl            1.00      2 S               2
                        (    -251.143 eV)
    29      29      2.000      -0.758 au  Cl            1.00      3 S               2
                        (     -20.622 eV)
    30      30       --         0.196 au  Cl            1.00      4 S               2
                        (       5.336 eV)
    31      31       --         2.008 au  Cl            1.00      5 S               2
                        (      54.647 eV)
    32      32       --        12.739 au  Cl            1.00      6 S               2
                        (     346.643 eV)
    33      33       --       214.683 au  Cl            1.00      7 S               2
                        (    5841.820 eV)
    34      34      2.000      -7.044 au  Cl            1.00      1 P:x             2
                        (    -191.670 eV)
    35      35      1.667      -0.320 au  Cl            1.00      2 P:x             2
                        (      -8.697 eV)
    36      36       --         0.231 au  Cl            1.00      3 P:x             2
                        (       6.285 eV)
    37      37       --         2.104 au  Cl            1.00      4 P:x             2
                        (      57.243 eV)
    38      38       --        18.842 au  Cl            1.00      5 P:x             2
                        (     512.712 eV)
    39      39      2.000      -7.044 au  Cl            1.00      1 P:y             2
                        (    -191.670 eV)
    40      40      1.667      -0.320 au  Cl            1.00      2 P:y             2
                        (      -8.697 eV)
    41      41       --         0.231 au  Cl            1.00      3 P:y             2
                        (       6.285 eV)
    42      42       --         2.104 au  Cl            1.00      4 P:y             2
                        (      57.243 eV)
    43      43       --        18.842 au  Cl            1.00      5 P:y             2
                        (     512.712 eV)
    44      44      2.000      -7.044 au  Cl            1.00      1 P:z             2
                        (    -191.670 eV)
    45      45      1.667      -0.320 au  Cl            1.00      2 P:z             2
                        (      -8.697 eV)
    46      46       --         0.231 au  Cl            1.00      3 P:z             2
                        (       6.285 eV)
    47      47       --         2.104 au  Cl            1.00      4 P:z             2
                        (      57.243 eV)
    48      48       --        18.842 au  Cl            1.00      5 P:z             2
                        (     512.712 eV)
    49      49       --         0.377 au  Cl            1.00      1 D:z2            2
                        (      10.252 eV)
    50      50       --         0.377 au  Cl            1.00      1 D:x2-y2         2
                        (      10.252 eV)
    51      51       --         0.377 au  Cl            1.00      1 D:xy            2
                        (      10.252 eV)
    52      52       --         0.377 au  Cl            1.00      1 D:xz            2
                        (      10.252 eV)
    53      53       --         0.377 au  Cl            1.00      1 D:yz            2
                        (      10.252 eV)
    54      54       --         1.179 au  Cl            1.00      1 F:z3            2
                        (      32.084 eV)
    55      55       --         1.179 au  Cl            1.00      1 F:z             2
                        (      32.084 eV)
    56      56       --         1.179 au  Cl            1.00      1 F:xyz           2
                        (      32.084 eV)
    57      57       --         1.179 au  Cl            1.00      1 F:z2x           2
                        (      32.084 eV)
    58      58       --         1.179 au  Cl            1.00      1 F:z2y           2
                        (      32.084 eV)
    59      59       --         1.179 au  Cl            1.00      1 F:x             2
                        (      32.084 eV)
    60      60       --         1.179 au  Cl            1.00      1 F:y             2
                        (      32.084 eV)
    61      61      2.000    -100.759 au  Cl            1.00      1 S               3
                        (   -2741.780 eV)
    62      62      2.000      -9.229 au  Cl            1.00      2 S               3
                        (    -251.143 eV)
    63      63      2.000      -0.758 au  Cl            1.00      3 S               3
                        (     -20.622 eV)
    64      64       --         0.196 au  Cl            1.00      4 S               3
                        (       5.336 eV)
    65      65       --         2.008 au  Cl            1.00      5 S               3
                        (      54.647 eV)
    66      66       --        12.739 au  Cl            1.00      6 S               3
                        (     346.643 eV)
    67      67       --       214.683 au  Cl            1.00      7 S               3
                        (    5841.820 eV)
[...]
----------------------------------------------

====================  end of solving CPKS equations  ====================

 ***************************************************************************************************



                                     ******************************************
                                     *  F R E Q U E N C Y    A N A L Y S I S  *
                                     ******************************************
  


 Atomic Masses:
 ---------------
    1. B              11.00930500
    2. Cl             34.96885200
    3. Cl             34.96885200
    4. Cl             34.96885200



 ======================================
 Normal Modes in Symmetry Displacements  ***  (cartesians, not mass-weighted)  ***
 ======================================
  


                                       === A ===

 Symmetry Displacements


                          1                             2                             3
              ------------------------      ------------------------      ------------------------
    1.B          0.286  -0.001   0.001         0.000   0.285  -0.001         0.000   0.000   0.285
    2.Cl        -0.037   0.006  -0.006        -0.000  -0.030  -0.000         0.008  -0.007  -0.024
    3.Cl        -0.030   0.000  -0.000        -0.007  -0.024  -0.006        -0.007   0.007  -0.036
    4.Cl        -0.023  -0.006   0.006         0.007  -0.037   0.006        -0.000   0.000  -0.030


                          4                             5                             6
              ------------------------      ------------------------      ------------------------
    1.B          0.000   0.000   0.000         0.000   0.000   0.000         0.000   0.000   0.000
    2.Cl         0.099   0.037  -0.080         0.000   0.071   0.078         0.000   0.000   0.000
    3.Cl        -0.027  -0.017   0.014         0.050  -0.033  -0.097         0.050   0.098   0.047
    4.Cl        -0.072  -0.019   0.066        -0.050  -0.038   0.020        -0.050  -0.098  -0.047


 Frequencies and Normal Modes
 ============================

             1           2           3           4           5           6

          244.6100    244.7015    358.6520    507.6400    702.3246    702.4652
        ----------  ----------  ----------  ----------  ----------  ----------
   1   -0.14465124 -0.03557089  0.19539411 -0.60691418  0.69725057 -0.29176823
   2   -0.05701030 -0.14797678 -0.17494336  0.54069320  0.17000159 -0.78930212
   3    0.11426500 -0.11854618  0.15994086 -0.49491527 -0.66912010 -0.50462501
   4   -0.47027271  0.58411766  0.61375053  0.19816547 -0.10880305 -0.09926112
   5    0.55717014  0.75612511 -0.27529306 -0.08930728  0.08501017 -0.16385193
   6    0.65663869 -0.22330643  0.67317078  0.21707044  0.13473889  0.02295266


 Intensities
 ===========

               Frequency       Dipole Strength        Absorption Intensity (degeneracy not counted)
                 cm-1           1e-40 esu2 cm2          km/mole
              ----------          ----------          ----------
              244.609966            0.110118            0.006752
              244.701460            0.119538            0.007332
              358.652044            2.416999            0.217284
              507.639959           62.993993            8.015544
              702.324599         1850.384302          325.745096
              702.465180         1849.448254          325.645481



 Zero-Point Energy :      0.006289 a.u.
 ===================      0.171123 eV
                                                   hartree              eV         kcal/mol           kJ/mol
                                      --------------------     -----------       ----------      -----------
              Bond Energy:              -0.537465906219981        -14.6252          -337.26         -1411.12
              Zero-Point Energy:         0.006288638616307          0.1711             3.95            16.51
              Enthalpy (T=0K):          -0.531177267603675        -14.4541          -333.32         -1394.61



 ===========================
 Vibrations and Normal Modes  ***  (cartesian coordinates, NOT mass-weighted)  ***
 ===========================
  
 The headers on the normal mode eigenvectors below give the Frequency in cm-1
 (a negative value means an imaginary frequency, no output for (almost-)zero frequencies)


                       244.610                       244.701                       358.652
              ------------------------      ------------------------      ------------------------
    1.B          0.236   0.092  -0.185         0.058   0.241   0.192        -0.303   0.273  -0.250
    2.Cl         0.230  -0.129  -0.451        -0.332  -0.459  -0.087        -0.297  -0.044   0.408
    3.Cl        -0.440  -0.320   0.192        -0.082   0.311   0.405         0.015  -0.380  -0.335
    4.Cl         0.136   0.420   0.317         0.395   0.072  -0.379         0.378   0.338   0.006


                       507.640                       702.325                       702.465
              ------------------------      ------------------------      ------------------------
    1.B          0.614  -0.550   0.505         0.695   0.166  -0.664         0.291   0.785   0.501
    2.Cl        -0.134   0.055   0.028        -0.145   0.020   0.095         0.010  -0.034  -0.031
    3.Cl        -0.068  -0.016  -0.129        -0.013   0.015   0.068        -0.047  -0.086  -0.134
    4.Cl         0.008   0.135  -0.057        -0.062  -0.087   0.047        -0.054  -0.127   0.007




 List of All Frequencies:


 Intensities
 ===========

               Frequency       Dipole Strength        Absorption Intensity (degeneracy not counted)
                 cm-1           1e-40 esu2 cm2          km/mole
              ----------          ----------          ----------
              244.609966            0.110118            0.006752
              244.701460            0.119538            0.007332
              358.652044            2.416999            0.217284
              507.639959           62.993993            8.015544
              702.324599         1850.384302          325.745096
              702.465180         1849.448254          325.645481



 ============================
 Statistical Thermal Analysis  ***  ideal gas assumed  ***
 ============================
  
 Pressure:                  1.000000 atm.
 Temperature:             298.150000 K



 Moments of Inertia (and direction vectors)
 ==========================================

         601.8531        602.5615       1188.3574
 ------------------------------------------------
          -0.3879          0.6687          0.6344
           0.3509          0.7436         -0.5692
           0.8523         -0.0019          0.5230


 The rotational contribution to the molecular entropy includes
 a term, dependent on the symmetry number sigma. The results 
 reported below were computed using sigma = 3, determined from
 the point group symmetry of the input geometry (C(3V)). 
 If this is not the correct symmetry, please contact SCM to report a bug.
 Contributions from frequencies below 20 1/cm are not included in
 the vibrational sums. Their contributions, if any, are reported separately.


     Temp                                                       Transl     Rotat    Vibrat     Total
     ----                                                       ------     -----    ------     -----

     298.15   Entropy (cal/mole-K):                             40.158    25.374     5.911    71.444
              Internal Energy (Kcal/mole):                       0.889     0.889     5.064     6.842
              Constant Volume Heat Capacity (cal/mole-K):        2.981     2.981     7.983    13.945

              Summary of energy terms
                                                   hartree              eV         kcal/mol           kJ/mol
                                      --------------------     -----------       ----------      -----------
              Bond Energy:              -0.537465906219981        -14.6252          -337.26         -1411.12
              Internal Energy:           0.010902980378499          0.2967             6.84            28.63
              pV/n = RT:                 0.000944186013486          0.0257             0.59             2.48
              Enthalpy H:               -0.525618739827997        -14.3028          -329.83         -1380.01
              -T*S:                     -0.033945213200315         -0.9237           -21.30           -89.12
              Gibbs free energy:        -0.559563953028312        -15.2265          -351.13         -1469.13
 

 ***************************************************************************************************
 


====================================================================
*** DONE CALCULATING ANALYTICAL SECOND DERIVATIVES OF THE ENERGY ***
====================================================================

 
 
 ========================
 No memory problems found
 ========================
 
 Maximum number of active allocate calls:        1224
 
 *******************************************************************************

                             A D F   E X I T
 NORMAL TERMINATION



 =================
 Timing Statistics
 =================
  
 Total Used :                     CPU=       15.29      System=        0.52     Elapsed=       15.89

 Calls  Section                     ( Mean, Percentage )
 ---------------------------------------------------------------------------------------------------
     3  ><      ................      0.00    0.01             0.00    0.00             0.00    0.00
     1  INIT    ................      0.45    2.95             0.03    6.11             0.48    3.04
     1  GEOMET  ................      0.03    0.19             0.00    0.57             0.03    0.21
     1  FRAGM   ................      0.01    0.07             0.01    2.10             0.02    0.14
     1  INPUTA  ................      0.00    0.00             0.00    0.00             0.00    0.00
     1  ATDEN   ................      0.01    0.05             0.00    0.19             0.01    0.05
     1  MAINSY  ................      0.01    0.04             0.01    1.34             0.02    0.10
     1  SYMFIT  ................      0.00    0.01             0.00    0.00             0.00    0.01
     1  CORORT  ................      0.00    0.01             0.00    0.00             0.00    0.00
     1  SYMORB  ................      0.00    0.02             0.00    0.00             0.00    0.02
     1  CLSMAT  ................      0.01    0.05             0.00    0.19             0.01    0.05
     1  ORTHON  ................      0.01    0.04             0.01    1.15             0.01    0.08
     1  GENPT   ................      0.07    0.47             0.00    0.76             0.08    0.48
     1  PTBAS   ................      0.04    0.25             0.00    0.57             0.04    0.26
    13  FOCKY   ................      0.13   11.02             0.00    6.68             0.13   10.83
    13  FOCKTR  ................      0.00    0.18             0.00    1.72             0.00    0.26
    13  SDIIS   ................      0.00    0.19             0.00    0.57             0.00    0.24
     1  COREPS  ................      0.11    0.71             0.00    0.57             0.11    0.70
     1  TOTEN   ................      0.31    2.02             0.01    1.15             0.31    1.98
     1  POPAN   ................      0.00    0.01             0.00    0.38             0.00    0.03
     1  DEBYE   ................      0.00    0.03             0.00    0.38             0.01    0.03
     1  INPUTE  ................      0.00    0.00             0.00    0.00             0.00    0.00
     1  SYMORE  ................      0.00    0.01             0.00    0.00             0.00    0.01
     1  METS    ................      0.00    0.01             0.00    0.00             0.00    0.00
     1  CETS    ................      0.00    0.02             0.00    0.38             0.01    0.03
     2  ELNRGY  ................      0.08    0.99             0.00    0.38             0.08    0.96
     1  POPUL   ................      0.01    0.09             0.00    0.19             0.01    0.09
     1  ENGRAD  ................      0.00    0.01             0.00    0.00             0.00    0.01
     1  ENHESS  ................     12.30   80.47             0.38   73.09            12.75   80.20
     1  EXIT PROCEDURE .........      0.02    0.12             0.01    1.53             0.03    0.16


 Currently Open Files (EXIT00)
 ====================

 Unit    Access Format  Status   Type       Ident (file)
 -------------------------------------------------------
   3      SEQ    FORM   TRANSP  NORMAL      LOGFILE
                                          ( logfile )


 Buffered I/O statistics
 =======================
 Memory available:                     67108864
 Number of records fitting in memory:     16131
 Input :   0.4% of                       238987  *4k bytes
 Output:   7.3% of                        10077  *4k bytes
 Records from serial files evicted:           0
                    others evicted:           0
 Hash table lookups:     634747 with          0 conflicts (  0.00%)

 ***************************************************************************************************
 (LOGFILE)
 <Apr18-2019> <21:56:26>  ADF development version  RunTime: Apr18-2019 21:56:26  Nodes: 1  Procs: 1
 <Apr18-2019> <21:56:26>  Boron (TZ2P)
 <Apr18-2019> <21:56:26>  RunType   : CREATE
 <Apr18-2019> <21:56:26>  Net Charge: 0 (Nuclei minus Electrons)
 <Apr18-2019> <21:56:26>  Symmetry  : ATOM
  Coordinates
    Atom         X           Y           Z   (Angstrom)
    1.B         0.000000    0.000000    0.000000
 <Apr18-2019> <21:56:26>  >>>> CORORT
 <Apr18-2019> <21:56:27>  >>>> CLSMAT
 <Apr18-2019> <21:56:27>  >>>> ORTHON
 <Apr18-2019> <21:56:27>  >>>> GENPT
 <Apr18-2019> <21:56:27>  Block Length=  76
 <Apr18-2019> <21:56:27>  >>>> PTBAS
 <Apr18-2019> <21:56:27>  >>>> CYCLE
 <Apr18-2019> <21:56:27>              |Error|         MaxErr       Wt(A-DIIS)
 <Apr18-2019> <21:56:27>      1      0.00000000      0.00000000
 <Apr18-2019> <21:56:27>      2      3.20693062      2.04423772    100.0
 <Apr18-2019> <21:56:27>      3      1.04080726      0.88670381    100.0
 <Apr18-2019> <21:56:27>      4      0.44204202      0.38656679    100.0
 <Apr18-2019> <21:56:27>      5      0.21559391      0.19710799    100.0
 <Apr18-2019> <21:56:27>      6      0.08789647      0.07906051     78.8
 <Apr18-2019> <21:56:27>      7      0.03981004      0.03610293     35.5
 <Apr18-2019> <21:56:27>      8      0.00808566      0.00731531      6.4
 <Apr18-2019> <21:56:27>      9      0.00029689      0.00026855      0.0
 <Apr18-2019> <21:56:27>     10      0.00000032      0.00000026      0.0
 <Apr18-2019> <21:56:27>     11      0.00000000      0.00000000      0.0
 <Apr18-2019> <21:56:27>  SCF converged
 <Apr18-2019> <21:56:27>     12      0.00000000      0.00000000      0.0
 <Apr18-2019> <21:56:27>  >>>> POPAN
 <Apr18-2019> <21:56:27>  >>>> DEBYE
 <Apr18-2019> <21:56:27>  NORMAL TERMINATION
 <Apr18-2019> <21:56:27>  END
 <Apr18-2019> <21:56:27>  ADF development version  RunTime: Apr18-2019 21:56:27  Nodes: 1  Procs: 1
 <Apr18-2019> <21:56:27>  Chlorine (TZ2P)
 <Apr18-2019> <21:56:27>  RunType   : CREATE
 <Apr18-2019> <21:56:27>  Net Charge: 0 (Nuclei minus Electrons)
 <Apr18-2019> <21:56:27>  Symmetry  : ATOM
  Coordinates
    Atom         X           Y           Z   (Angstrom)
    1.Cl        0.000000    0.000000    0.000000
 <Apr18-2019> <21:56:27>  >>>> CORORT
 <Apr18-2019> <21:56:27>  >>>> CLSMAT
 <Apr18-2019> <21:56:27>  >>>> ORTHON
 <Apr18-2019> <21:56:27>  >>>> GENPT
 <Apr18-2019> <21:56:27>  Block Length=  93
 <Apr18-2019> <21:56:27>  >>>> PTBAS
 <Apr18-2019> <21:56:27>  >>>> CYCLE
 <Apr18-2019> <21:56:27>              |Error|         MaxErr       Wt(A-DIIS)
 <Apr18-2019> <21:56:27>      1      0.00000000      0.00000000
 <Apr18-2019> <21:56:27>      2     37.92142799     10.74687258    100.0
 <Apr18-2019> <21:56:27>      3     20.55913282      6.81936857    100.0
 <Apr18-2019> <21:56:27>      4      6.05499439      2.07630607    100.0
 <Apr18-2019> <21:56:27>      5      4.07597595      1.72795737    100.0
 <Apr18-2019> <21:56:27>      6      0.30428978      0.10734385    100.0
 <Apr18-2019> <21:56:27>      7      0.31579100      0.13519486    100.0
 <Apr18-2019> <21:56:27>      8      0.07589159      0.02896328     28.2
 <Apr18-2019> <21:56:27>      9      0.01586000      0.00629911      5.4
 <Apr18-2019> <21:56:28>     10      0.00066735      0.00027933      0.0
 <Apr18-2019> <21:56:28>     11      0.00000461      0.00000153      0.0
 <Apr18-2019> <21:56:28>     12      0.00000006      0.00000003      0.0
 <Apr18-2019> <21:56:28>     13      0.00000000      0.00000000      0.0
 <Apr18-2019> <21:56:28>  SCF converged
 <Apr18-2019> <21:56:28>     14      0.00000000      0.00000000      0.0
 <Apr18-2019> <21:56:28>  >>>> POPAN
 <Apr18-2019> <21:56:28>  >>>> DEBYE
 <Apr18-2019> <21:56:28>  NORMAL TERMINATION
 <Apr18-2019> <21:56:28>  END
 <Apr18-2019> <21:56:28>  ADF development version  RunTime: Apr18-2019 21:56:28  Nodes: 1  Procs: 12
 <Apr18-2019> <21:56:28>  *** (NO TITLE) ***
 <Apr18-2019> <21:56:28>  RunType   : SINGLE POINT
 <Apr18-2019> <21:56:28>  Net Charge: 0 (Nuclei minus Electrons)
 <Apr18-2019> <21:56:28>  Symmetry  : NOSYM
 <Apr18-2019> <21:56:28>  >>>> FRAGM
  Coordinates
    Atom         X           Y           Z   (Angstrom)
    1.B         0.003761   -1.473037    0.853186
    2.Cl        1.466340   -1.689223   -0.247833
    3.Cl        0.363887   -0.503865    2.379232
    4.Cl       -0.915728   -3.038030    1.173570
 <Apr18-2019> <21:56:28>  >>>> CORORT
 <Apr18-2019> <21:56:28>  >>>> CLSMAT
 <Apr18-2019> <21:56:28>  >>>> ORTHON
 <Apr18-2019> <21:56:28>  >>>> GENPT
 <Apr18-2019> <21:56:28>  Block Length= 128
 <Apr18-2019> <21:56:28>  >>>> PTBAS
 <Apr18-2019> <21:56:29>  >>>> CYCLE
 <Apr18-2019> <21:56:29>              |Error|         MaxErr       Wt(A-DIIS)
 <Apr18-2019> <21:56:29>      1      2.98285602      0.99229437
 <Apr18-2019> <21:56:29>      2      0.20772176      0.03374083    100.0
 <Apr18-2019> <21:56:29>      3      0.11656129      0.01692193    100.0
 <Apr18-2019> <21:56:29>      4      0.15279143      0.02659491    100.0
 <Apr18-2019> <21:56:29>      5      0.03744879      0.00699650      6.1
 <Apr18-2019> <21:56:29>      6      0.02144301      0.00450766      3.5
 <Apr18-2019> <21:56:30>      7      0.00224406      0.00042039      0.0
 <Apr18-2019> <21:56:30>      8      0.00082734      0.00016516      0.0
 <Apr18-2019> <21:56:30>      9      0.00002490      0.00000530      0.0
 <Apr18-2019> <21:56:30>     10      0.00000764      0.00000151      0.0
 <Apr18-2019> <21:56:30>     11      0.00000484      0.00000101      0.0
 <Apr18-2019> <21:56:30>     12      0.00000048      0.00000010      0.0
 <Apr18-2019> <21:56:30>  SCF converged
 <Apr18-2019> <21:56:30>     13      0.00000003      0.00000001      0.0
 <Apr18-2019> <21:56:30>  >>>> TOTEN
 <Apr18-2019> <21:56:31>  >>>> POPAN
 <Apr18-2019> <21:56:31>  >>>> DEBYE
 <Apr18-2019> <21:56:31>  >>>> AMETS
 <Apr18-2019> <21:56:31>   Bond Energy          -0.53746591 a.u.
 <Apr18-2019> <21:56:31>   Bond Energy         -14.62519144 eV
 <Apr18-2019> <21:56:31>   Bond Energy        -337.26       kcal/mol
 <Apr18-2019> <21:56:31>  >>>> POPUL
 <Apr18-2019> <21:56:31>  >>>> ENGRAD
 <Apr18-2019> <21:56:31>  >>>> ENHESS
 <Apr18-2019> <21:56:31>  === NUCLEUS:     1
 <Apr18-2019> <21:56:34>  === NUCLEUS:     2
 <Apr18-2019> <21:56:37>  === NUCLEUS:     3
 <Apr18-2019> <21:56:40>  === NUCLEUS:     4
 <Apr18-2019> <21:56:43>  >>>> CALC_HESS_PMAT
 <Apr18-2019> <21:56:44>  >>>> CALC_HESS_WMAT
 <Apr18-2019> <21:56:44>  NORMAL TERMINATION
 <Apr18-2019> <21:56:44>  END
