

 Parallel Execution: Process Information
 ==============================================================================
 Rank   Node Name                              NodeID   MyNodeRank  NodeMaster
    0   Lenovo-PC                                 0          0          0
    1   Lenovo-PC                                 0          1         -1
 ==============================================================================


May use up to 1914MB of RAM as shared memory on node 0
 
ATOMS
1 Ni      -0.121766639226      -0.988209877452      -1.437094908275
2 C      -0.506311281827       1.386498539202      -1.118648003447
3 O      -0.422796228668       3.586505310360      -1.017783697686
4 C       2.528537911042      -2.242455734941      -1.388773293947
5 O       3.834853605625      -3.071517126858      -1.249494600951
6 C      -1.020494032834      -1.642421097992      -0.497456728920
7 O      -1.822669353736      -1.879819812829       1.007121670760
8 C      -0.825849591100      -1.471357854299      -3.118628986027
9 O      -1.402393971198      -2.386752837336      -4.389172551355
END

GUIBONDS
1 3 2 1.0
2 5 4 1.0
3 7 6 1.0
4 9 8 1.0
END

XC
GGA BLYP
DISPERSION Grimme3
END

GEOMETRY
END

NOPRINT LOGFILE

Fragments
O t21.O
C t21.C
Ni t21.Ni
End

 *******************************************************************************
 *                                                                             *
 *  -------------------------------------                                      *
 *   Amsterdam Density Functional  (ADF)         2018                          *
 *  -------------------------------------                                      *
 *                                               r70630 2018-11-24             *
 *                                                                             *
 *                                                                             *
 *                              =================                              *
 *                              |               |                              *
 *                              |     A D F     |                              *
 *                              |               |                              *
 *                              =================                              *
 *                                                                             *
 *                                                                             *
 *   Online information and documentation:  https://www.scm.com/support/       *
 *   E-mail:  support@scm.com   info@scm.com                                   *
 *                                                                             *
 *   Scientific publications using ADF results must be properly referenced     *
 *   See the User Manuals (or the web site) for recommended citations          *
 *   The terms and conditions of the End User License Agreement apply to       *
 *   the use of ADF, https://www.scm.com/license-terms/                        *
 *                                                                             *
 *********************  x86_64_windows_intel / intelmpi  ***********************
 
 Licensed to: Dr. Celia Fonseca Guerra / Advanced Computational Chemistry / Amsterdam / NL
 SCM User ID: u17532
  
 ADF 2018  RunTime: Apr24-2019 13:58:20  Nodes: 1  Procs: 2

 Temporary files are created in C:\SCMTMP\/kid_0.978655058


Communication costs MPI_COMM_WORLD:      0.843 usec per message,   0.0034 usec per 8-byte item
Communication costs for intra-node:      0.768 usec per message,   0.0042 usec per 8-byte item

 *** (NO TITLE) ***



 ===========================
 A T T A C H E D   F I L E S
 ===========================
  



 ===============================
 M O D E L   P A R A M E T E R S
 ===============================
  
 DENSITY FUNCTIONAL POTENTIAL (scf)
    LDA:                               Exchange only                           == Not Default ==
    Gradient Corrections:              Becke88 LYP                             == Not Default ==

 SPIN  (restricted / unrestr.)
    Molecule:                          Restricted                               
    Fragments:                         Restricted                               

 OTHER ASPECTS
    Relativistic Corrections:          ---                                      

    Nuclear Charge Density Model:      Point Charge Nuclei                      
    Core Treatment:                    Frozen Orbital(s)                        

    Hyperfine or Zeeman Interaction:   ---                                      

 Settings for Grimme 3 dispersion correction

      damping                      Zero
      s6                          1.000
      sr,6                        1.094
      s8                          1.682

 Other (technical) parameters

      rs8                         1.000
      alpha                      14.000
      version                         3
 


 Fragment File(s)
 ----------------
 Ni:
         file : t21.Ni
         jobid: ADF 2018  RunTime: Apr24-2019 13:58:16  Nodes: 1  Procs: 1
         title: Nickel (TZP)
 C:
         file : t21.C
         jobid: ADF 2018  RunTime: Apr24-2019 13:58:12  Nodes: 1  Procs: 1
         title: Carbon (TZP)
 O:
         file : t21.O
         jobid: ADF 2018  RunTime: Apr24-2019 13:58:05  Nodes: 1  Procs: 1
         title: Oxygen (TZP)



                                   *********************************************
                                   *  R U N   T Y P E : GEOMETRY OPTIMIZATION  *
                                   *********************************************
  



 ===============
 G E O M E T R Y  ***  3D  Molecule  ***
 ===============
  

 ATOMS
 =====                            X Y Z                    CHARGE
                                (Angstrom)             Nucl     +Core       At.Mass
                       --------------------------    ----------------       -------
    1  Ni             -0.1218   -0.9882   -1.4371     28.00     28.00       57.9353
    2  C              -0.5063    1.3865   -1.1186      6.00      6.00       12.0000
    3  O              -0.4228    3.5865   -1.0178      8.00      8.00       15.9949
    4  C               2.5285   -2.2425   -1.3888      6.00      6.00       12.0000
    5  O               3.8349   -3.0715   -1.2495      8.00      8.00       15.9949
    6  C              -1.0205   -1.6424   -0.4975      6.00      6.00       12.0000
    7  O              -1.8227   -1.8798    1.0071      8.00      8.00       15.9949
    8  C              -0.8258   -1.4714   -3.1186      6.00      6.00       12.0000
    9  O              -1.4024   -2.3868   -4.3892      8.00      8.00       15.9949


 FRAGMENTS
 =========                                     Atoms in this Fragment     Cart. coord.s (Angstrom)
                                               -------------------------------------------------------
    1  Ni                                                1  Ni          -0.1218   -0.9882   -1.4371
    2  C                                                 2  C           -0.5063    1.3865   -1.1186
    3  C                                                 4  C            2.5285   -2.2425   -1.3888
    4  C                                                 6  C           -1.0205   -1.6424   -0.4975
    5  C                                                 8  C           -0.8258   -1.4714   -3.1186
    6  O                                                 3  O           -0.4228    3.5865   -1.0178
    7  O                                                 5  O            3.8349   -3.0715   -1.2495
    8  O                                                 7  O           -1.8227   -1.8798    1.0071
    9  O                                                 9  O           -1.4024   -2.3868   -4.3892


 Interatomic Distance Matrix (Angstrom)
 --------------------------------------

   1)     0.000
   2)     2.427   0.000
   3)     4.604   2.204   0.000
   4)     2.933   4.738   6.544   0.000
   5)     4.476   6.224   7.906   1.553   0.000
   6)     1.456   3.134   5.289   3.708   5.117   0.000
   7)     3.108   4.113   5.995   4.980   6.206   1.722   0.000
   8)     1.886   3.503   5.492   3.852   5.270   2.634   4.264   0.000
   9)     3.509   5.073   6.929   4.947   6.145   3.981   5.436   1.669   0.000

 Min. Distance =    1.4555
 Max. Distance =    7.9064



 =====================================
 S Y M M E T R Y ,   E L E C T R O N S
 =====================================
  
 Symmetry: NOSYM

 Irreducible Representations, including subspecies
 -------------------------------------------------
 A


 Configuration of Valence Electrons
 ==================================
 ( determined in the SCF procedure )

 Total:   84

 Net Charge: 0 (Nuclei minus Electrons)

 Aufbau principle for MO occupations will be applied through SCF cycle no.     150
 Thereafter, the program will assign electrons to MOs that are spatially
 similar to the occupied MOs in a "reference" cycle ("KeepOrbitals").
 The reference cycle is always the PREVIOUS cycle: it will evolve with
 the SCF procedure.
1
 ***************************************************************************************************



                                      ****************************************
                                      *  B U I L D : (Fragments, Functions)  *
                                      ****************************************
  

 Total nr. of (C)SFOs (summation over all irreps) :   194

 Specify PRINT SFO in the input file to get a full list

 Nr. of SFOs for ir.rep.           A :   194



 ================================
 (Slater-type)  F U N C T I O N S  ***  (Basis and Fit)  ***
 ================================
  

 Atom Type    1  (Ni)
 ==============

 Valence Basis Sets:  18
 -----------------------
   1 S   33.000000
   1 S   25.900000
   2 S   10.950000
   2 S    7.150000
   2 P   15.450000
   2 P   10.000000
   3 S    6.600000
   3 S    4.000000
   3 P    6.800000
   3 P    4.500000
   3 P    3.050000
   3 D    7.000000
   3 D    3.350000
   3 D    1.540000
   4 S    2.450000
   4 S    1.480000
   4 S    0.940000
   4 P    1.470000

 Atom Type    2  (C)
 ==============

 Valence Basis Sets:   9
 -----------------------
   1 S    7.680000
   1 S    5.000000
   2 S    1.280000
   2 S    2.100000
   2 S    4.600000
   2 P    0.820000
   2 P    1.480000
   2 P    2.940000
   3 D    2.200000

 Atom Type    3  (O)
 ==============

 Valence Basis Sets:   9
 -----------------------
   1 S    9.800000
   1 S    6.800000
   2 S    7.580000
   2 S    2.880000
   2 S    1.720000
   2 P    4.080000
   2 P    2.080000
   2 P    1.120000
   3 D    2.000000


 BAS: List of all Elementary Cartesian Basis Functions
 =====================================================

 The numbering in the list below (to the right of the function characteristics) is referred
 to in print-outs of MO eigenvectors and Mulliken populations in the BAS representation
 (as contrasted to the SFO representation).

 Notes:
 1. The functions are characterized by a polynomial prefactor (powers of x,y,z and r) and
    an exponential decay factor alpha.
 2. Since the basis sets are specific for an atom TYPE, the individual functions occur on
    all atoms of that type.
 3. The word 'Core' in the left margin signals that it is a Core Function (CF) : not a
    degree of freedom in the valence set, but only used to ensure orthogonalization of
    the other valence basis functions on the frozen Core Orbitals.


 (power of) X  Y  Z  R     Alpha  on Atom
            ==========     =====     ==========

 Ni                                   1
                                  ---------------------------------------------------------------------------
            0  0  0  0    33.000      1
            0  0  0  0    25.900      2
            0  0  0  1    10.950      3
            0  0  0  1     7.150      4
            1  0  0  0    15.450      5
            0  1  0  0    15.450      6
            0  0  1  0    15.450      7
            1  0  0  0    10.000      8
            0  1  0  0    10.000      9
            0  0  1  0    10.000     10
            0  0  0  2     6.600     11
            0  0  0  2     4.000     12
            1  0  0  1     6.800     13
            0  1  0  1     6.800     14
            0  0  1  1     6.800     15
            1  0  0  1     4.500     16
            0  1  0  1     4.500     17
            0  0  1  1     4.500     18
            1  0  0  1     3.050     19
            0  1  0  1     3.050     20
            0  0  1  1     3.050     21
            2  0  0  0     7.000     22
            1  1  0  0     7.000     23
            1  0  1  0     7.000     24
            0  2  0  0     7.000     25
            0  1  1  0     7.000     26
            0  0  2  0     7.000     27
            2  0  0  0     3.350     28
            1  1  0  0     3.350     29
            1  0  1  0     3.350     30
            0  2  0  0     3.350     31
            0  1  1  0     3.350     32
            0  0  2  0     3.350     33
            2  0  0  0     1.540     34
            1  1  0  0     1.540     35
            1  0  1  0     1.540     36
            0  2  0  0     1.540     37
            0  1  1  0     1.540     38
            0  0  2  0     1.540     39
            0  0  0  3     2.450     40
            0  0  0  3     1.480     41
            0  0  0  3     0.940     42
            1  0  0  2     1.470     43
            0  1  0  2     1.470     44
            0  0  1  2     1.470     45

 C                                    2    3    4    5
                                  ---------------------------------------------------------------------------
            0  0  0  0     7.680     46   66   86  106
            0  0  0  0     5.000     47   67   87  107
            0  0  0  1     1.280     48   68   88  108
            0  0  0  1     2.100     49   69   89  109
            0  0  0  1     4.600     50   70   90  110
            1  0  0  0     0.820     51   71   91  111
            0  1  0  0     0.820     52   72   92  112
            0  0  1  0     0.820     53   73   93  113
            1  0  0  0     1.480     54   74   94  114
            0  1  0  0     1.480     55   75   95  115
            0  0  1  0     1.480     56   76   96  116
            1  0  0  0     2.940     57   77   97  117
            0  1  0  0     2.940     58   78   98  118
            0  0  1  0     2.940     59   79   99  119
            2  0  0  0     2.200     60   80  100  120
            1  1  0  0     2.200     61   81  101  121
            1  0  1  0     2.200     62   82  102  122
            0  2  0  0     2.200     63   83  103  123
            0  1  1  0     2.200     64   84  104  124
            0  0  2  0     2.200     65   85  105  125

 O                                    6    7    8    9
                                  ---------------------------------------------------------------------------
            0  0  0  0     9.800    126  146  166  186
            0  0  0  0     6.800    127  147  167  187
            0  0  0  1     7.580    128  148  168  188
            0  0  0  1     2.880    129  149  169  189
            0  0  0  1     1.720    130  150  170  190
            1  0  0  0     4.080    131  151  171  191
            0  1  0  0     4.080    132  152  172  192
            0  0  1  0     4.080    133  153  173  193
            1  0  0  0     2.080    134  154  174  194
            0  1  0  0     2.080    135  155  175  195
            0  0  1  0     2.080    136  156  176  196
            1  0  0  0     1.120    137  157  177  197
            0  1  0  0     1.120    138  158  178  198
            0  0  1  0     1.120    139  159  179  199
            2  0  0  0     2.000    140  160  180  200
            1  1  0  0     2.000    141  161  181  201
            1  0  1  0     2.000    142  162  182  202
            0  2  0  0     2.000    143  163  183  203
            0  1  1  0     2.000    144  164  184  204
            0  0  2  0     2.000    145  165  185  205

 Total number of charge fitting functions (nprimf)       842
 Total number of Cartesian basis functions (naos)        205
 Total number of Cartesian core functions  (ncos)          0

Bad geometry: could not add a dihedral for atom    7


 Coordinates (Cartesian)
 =======================

     Atom                    bohr                                 angstrom                 Geometric Variables
                   X           Y           Z              X           Y           Z       (0:frozen, *:LT par.)
 --------------------------------------------------------------------------------------------------------------
     1 Ni     -0.230106   -1.867446   -2.715716      -0.121767   -0.988210   -1.437095      1       2       3
     2 C      -0.956790    2.620103   -2.113938      -0.506311    1.386499   -1.118648      4       5       6
     3 O      -0.798969    6.777513   -1.923332      -0.422796    3.586505   -1.017784      7       8       9
     4 C       4.778244   -4.237627   -2.624401       2.528538   -2.242456   -1.388773     10      11      12
     5 O       7.246823   -5.804326   -2.361203       3.834854   -3.071517   -1.249495     13      14      15
     6 C      -1.928454   -3.103726   -0.940057      -1.020494   -1.642421   -0.497457     16      17      18
     7 O      -3.444346   -3.552345    1.903184      -1.822669   -1.879820    1.007122     19      20      21
     8 C      -1.560630   -2.780463   -5.893355      -0.825850   -1.471358   -3.118629     22      23      24
     9 O      -2.650141   -4.510309   -8.294334      -1.402394   -2.386753   -4.389173     25      26      27
 --------------------------------------------------------------------------------------------------------------
1
 ***************************************************************************************************



                                              ***********************
                                              *  T E C H N I C A L  *
                                              ***********************
  



 =============================================================
 P A R A L L E L I Z A T I O N  and  V E C T O R I Z A T I O N
 =============================================================
  
 Nr of parallel processes:                                2
 Maximum vector length in NumInt loops:                 128

 IO buffersize (Mb):                                     64.000000



 ===============================
 G E O M E T R Y   U P D A T E S
 ===============================
  
 Optimization coordinates:                       Delocalized
 Optimization code branch:                       NEW
 Hessian update method:                          BFGS (Broyden-Fletcher-Goldfarb-Shanno)

 Iterative Geometry Improvements:
    Max. nr. of iterations:                         54
    Convergence criteria:
         Change in energy (hartree):                 0.0010000000
         Gradients (au/Angstrom):                    0.0010000000
         Cart/bondlength changes (Angstrom):         0.0100000000
    Max. step to take:
         Trust Radius:                               0.2000000000

 GDIIS (Geometry Direct Inversion in Iteration Space):
    First geometry cycle:                            0
    Max. number expansion vectors:                   5



 =====================
 S C F   U P D A T E S
 =====================
  
 Max. nr. of cycles:                               300
 Convergence criterion:                              0.0000010000
   secondary criterion:                              0.0010000000

 Mix parameter (when DIIS does not apply):           0.2000000000
 Mixed ADIIS+DIIS will be used
    Max number of expansion vectors:                10
    Pure ADIIS when Max([F,P]) is above              0.1000000000
    Pure DIIS when Max([F,P]) is below               0.0010000000



 =================
 P R E C I S I O N  ***  (General: NumInt, NeglectFunctionTails, ...)  ***
 =================
  

 NumInt:           Target precision:                 4.0000000000
 -------           Initial precision:                4.0000000000
                   Min. precision (optimization):    4.0000000000

 Neglect Functions:          Basis functions:        0.1000000000E-05
 ------------------          Fit functions:          0.1000000000E-05



 ===========================
 L I N E A R   S C A L I N G
 ===========================
  

 Cut-off radii density fit:                        0.1000000000E-07
 Overlap cut-off criterion AO matrix elements:     0.1000000000E-05
 Cut-offs for Coulomb potential and fitted density:0.1000000000E-07
 Cut-off criterion for Coulomb multipole terms:    0.1000000000E-07
 Progressive Convergence parameter:                 0.000000000    
1
 ***************************************************************************************************



                                            ***************************
                                            *  C O M P U T A T I O N  *
                                            ***************************
  

 Number of elements of the density matrix on this node (used, total):     10465     21115



 ===========================================
 Numerical Integration : Fuzzy Cells (Becke)
 ===========================================
  
 Becke grid quality: NORMAL         
  
 Lebedev angular grid order:             min:  11 max:  23
 Nr. of radial points:                   min:  49 max:  73

 Total nr. of points:      61441
 Nr. of blocks:              481
 Block length:               128
 Nr. of dummy points:        127


 Test of Precision of the Numerical Integration Grid
 ===================================================

 Integral of the Total Core Density:                   0.00000000000000



 ========================
 Density Fitting (zlmFit)
 ========================
  
 ZlmFit Fit Quality: NORMAL         
  
 Max L-expansion:                        min:   6 max:   6
 Nr. of radial interpolation points:     min:  48 max:  72



 =====
 S C F  ***  ScaSCF  ***
 =====
  
 Initial density matrix is calculated as sum of fragments

 CYCLE    1
 SCF Error: norm([F,P])=      4.950385720026, max([F,P])=      1.579188316862
 orbitals (Q,E):
 ---------------
 A :33...52          ( 2.00    -0.3689)  ( 2.00    -0.3673)  ( 2.00    -0.3519)  ( 2.00    -0.3394)
                     ( 2.00    -0.3394)  ( 2.00    -0.3237)  ( 2.00    -0.3173)  ( 2.00    -0.2547)
                     ( 2.00    -0.2364)  ( 2.00    -0.2261)  ( 0.00    -0.2099)  ( 0.00    -0.1967)
                     ( 0.00    -0.1908)  ( 0.00    -0.1800)  ( 0.00    -0.1779)  ( 0.00    -0.1691)
                     ( 0.00    -0.1661)  ( 0.00    -0.1396)  ( 0.00    -0.1137)  ( 0.00    -0.0875)

 CYCLE    2
  SDIIS (wt  0.000):  0.6925  0.3075
 A-DIIS (wt  1.000):  0.9753  0.0247
  DIIS coefficients:  0.9753  0.0247
 SCF Error: norm([F,P])=      7.543319532717, max([F,P])=      1.284695417975
 orbitals (Q,E):
 ---------------
 A :33...43          ( 2.00    -0.3607)  ( 2.00    -0.3575)  ( 2.00    -0.3439)  ( 2.00    -0.3330)
                     ( 2.00    -0.3307)  ( 2.00    -0.3204)  ( 2.00    -0.3202)  ( 2.00    -0.2969)
                     ( 2.00    -0.2770)  ( 2.00    -0.2669)  ( 0.00    -0.2243)

 CYCLE    3
  SDIIS (wt  0.000):  0.1876 -0.5085  1.3209
 A-DIIS (wt  1.000):  0.9440  0.0000  0.0560
  DIIS coefficients:  0.9440  0.0000  0.0560
 SCF Error: norm([F,P])=      3.660257280791, max([F,P])=      0.675121781999
 orbitals (Q,E):
 ---------------
 A :33...43          ( 2.00    -0.3584)  ( 2.00    -0.3533)  ( 2.00    -0.3403)  ( 2.00    -0.3238)
                     ( 2.00    -0.3215)  ( 2.00    -0.3077)  ( 2.00    -0.3068)  ( 2.00    -0.3005)
                     ( 2.00    -0.2797)  ( 2.00    -0.2695)  ( 0.00    -0.2335)

 CYCLE    4
  SDIIS (wt  0.000): -0.5786 -1.4214  3.0000
 A-DIIS (wt  1.000):  0.0000  0.0000  1.0000
  DIIS coefficients:  0.0000  0.0000  1.0000
 SCF Error: norm([F,P])=      3.402383956163, max([F,P])=      0.603903050643
 orbitals (Q,E):
 ---------------
 A :33...43          ( 2.00    -0.5464)  ( 2.00    -0.5366)  ( 2.00    -0.5252)  ( 2.00    -0.5206)
                     ( 2.00    -0.4744)  ( 2.00    -0.4635)  ( 2.00    -0.4440)  ( 2.00    -0.4326)
                     ( 2.00    -0.3827)  ( 2.00    -0.3767)  ( 0.00    -0.2869)

 CYCLE    5
  SDIIS (wt  0.000): -0.4846 -1.5794  3.0000  0.0640
 A-DIIS (wt  1.000):  0.0000  0.0000  0.8760  0.1240
  DIIS coefficients:  0.0000  0.0000  0.8760  0.1240
 SCF Error: norm([F,P])=     12.824188577422, max([F,P])=      2.526168945426
 orbitals (Q,E):
 ---------------
 A :33...43          ( 2.00    -0.3845)  ( 2.00    -0.3843)  ( 2.00    -0.3478)  ( 2.00    -0.3324)
                     ( 2.00    -0.3158)  ( 2.00    -0.3033)  ( 2.00    -0.2997)  ( 2.00    -0.2981)
                     ( 2.00    -0.2791)  ( 2.00    -0.2728)  ( 0.00    -0.2321)

 CYCLE    6
  SDIIS (wt  0.000): -0.3479 -1.3624  2.5252 -0.0179  0.2031
 A-DIIS (wt  1.000):  0.0000  0.0000  0.7374  0.0000  0.2626
  DIIS coefficients:  0.0000  0.0000  0.7374  0.0000  0.2626
 SCF Error: norm([F,P])=      6.701056283156, max([F,P])=      1.375880032564
 orbitals (Q,E):
 ---------------
 A :33...43          ( 2.00    -0.4639)  ( 2.00    -0.3943)  ( 2.00    -0.3935)  ( 2.00    -0.3928)
                     ( 2.00    -0.3552)  ( 2.00    -0.3355)  ( 2.00    -0.3320)  ( 2.00    -0.2880)
                     ( 2.00    -0.2527)  ( 2.00    -0.2435)  ( 0.00    -0.2290)

 CYCLE    7
  SDIIS (wt  0.000): -0.3088 -1.2787  2.3567 -0.0477  0.1869  0.0916
 A-DIIS (wt  1.000):  0.0000  0.0000  0.7024  0.0000  0.2200  0.0777
  DIIS coefficients:  0.0000  0.0000  0.7024  0.0000  0.2200  0.0777
 SCF Error: norm([F,P])=      7.375238244371, max([F,P])=      1.279618474769
 orbitals (Q,E):
 ---------------
 A :33...43          ( 2.00    -0.3595)  ( 2.00    -0.3595)  ( 2.00    -0.3303)  ( 2.00    -0.3222)
                     ( 2.00    -0.3066)  ( 2.00    -0.2975)  ( 2.00    -0.2924)  ( 2.00    -0.2893)
                     ( 2.00    -0.2887)  ( 2.00    -0.2848)  ( 0.00    -0.2388)

 CYCLE    8
  SDIIS (wt  0.000): -0.2371 -1.2299  2.1534 -0.0436  0.1523  0.0201  0.1848
 A-DIIS (wt  1.000):  0.0000  0.0000  0.5770  0.0000  0.1744  0.0000  0.2485
  DIIS coefficients:  0.0000  0.0000  0.5770  0.0000  0.1744  0.0000  0.2485
 SCF Error: norm([F,P])=      3.724045677298, max([F,P])=      0.762327766645
 orbitals (Q,E):
 ---------------
 A :33...43          ( 2.00    -0.3705)  ( 2.00    -0.3662)  ( 2.00    -0.3417)  ( 2.00    -0.3339)
                     ( 2.00    -0.3213)  ( 2.00    -0.3166)  ( 2.00    -0.3070)  ( 2.00    -0.2607)
                     ( 2.00    -0.2553)  ( 2.00    -0.2521)  ( 0.00    -0.2448)

 CYCLE    9
  SDIIS (wt  0.000): -0.2014 -0.8770  1.6654 -0.0356  0.1179 -0.0174  0.2423  0.1057
 A-DIIS (wt  1.000):  0.0000  0.0000  0.5514  0.0000  0.1523  0.0000  0.2452  0.0512
  DIIS coefficients:  0.0000  0.0000  0.5514  0.0000  0.1523  0.0000  0.2452  0.0512
 SCF Error: norm([F,P])=      3.461979986159, max([F,P])=      1.039206322036
 orbitals (Q,E):
 ---------------
 A :33...43          ( 2.00    -0.3845)  ( 2.00    -0.3607)  ( 2.00    -0.3414)  ( 2.00    -0.3377)
                     ( 2.00    -0.3156)  ( 2.00    -0.2998)  ( 2.00    -0.2887)  ( 2.00    -0.2824)
                     ( 2.00    -0.2656)  ( 2.00    -0.2590)  ( 0.00    -0.2364)

 CYCLE   10
  SDIIS (wt  0.000): -0.1793 -0.4917  1.1782 -0.0192  0.0019 -0.0106  0.2655  0.0434  0.2119
 A-DIIS (wt  1.000):  0.0000  0.0000  0.4446  0.0000  0.0000  0.0000  0.2935  0.0533  0.2086
  DIIS coefficients:  0.0000  0.0000  0.4446  0.0000  0.0000  0.0000  0.2935  0.0533  0.2086
 SCF Error: norm([F,P])=      3.486485372963, max([F,P])=      1.560444066952
 orbitals (Q,E):
 ---------------
 A :33...43          ( 2.00    -0.4056)  ( 2.00    -0.3749)  ( 2.00    -0.3457)  ( 2.00    -0.3436)
                     ( 2.00    -0.3317)  ( 2.00    -0.2944)  ( 2.00    -0.2926)  ( 2.00    -0.2899)
                     ( 2.00    -0.2701)  ( 2.00    -0.2681)  ( 0.00    -0.2354)

 CYCLE   11
  SDIIS (wt  0.000): -0.1157 -0.7095  1.2430  0.0012 -0.0939 -0.0317  0.2688  0.0094  0.2685  0.1600
 A-DIIS (wt  1.000):  0.0000  0.0000  0.4158  0.0000  0.0000  0.0000  0.2439  0.0205  0.2110  0.1089
  DIIS coefficients:  0.0000  0.0000  0.4158  0.0000  0.0000  0.0000  0.2439  0.0205  0.2110  0.1089
 SCF Error: norm([F,P])=      3.373166432248, max([F,P])=      0.679959714045
 orbitals (Q,E):
 ---------------
 A :33...43          ( 2.00    -0.3656)  ( 2.00    -0.3539)  ( 2.00    -0.3206)  ( 2.00    -0.3134)
                     ( 2.00    -0.3063)  ( 2.00    -0.3043)  ( 2.00    -0.3035)  ( 2.00    -0.2857)
                     ( 2.00    -0.2821)  ( 2.00    -0.2729)  ( 0.00    -0.2650)

 CYCLE   12
  SDIIS (wt  0.000): -0.4506  0.6469  0.0092 -0.0864 -0.0404  0.1606 -0.0288  0.2055  0.1503  0.4337
 A-DIIS (wt  1.000):  0.0000  0.2256  0.0000  0.0000  0.0000  0.0732  0.0000  0.1315  0.0703  0.4993
  DIIS coefficients:  0.0000  0.2256  0.0000  0.0000  0.0000  0.0732  0.0000  0.1315  0.0703  0.4993
 SCF Error: norm([F,P])=      0.724567228943, max([F,P])=      0.119726860556
 orbitals (Q,E):
 ---------------
 A :33...43          ( 2.00    -0.3740)  ( 2.00    -0.3720)  ( 2.00    -0.3697)  ( 2.00    -0.3675)
                     ( 2.00    -0.3360)  ( 2.00    -0.3307)  ( 2.00    -0.3241)  ( 2.00    -0.2758)
                     ( 2.00    -0.2627)  ( 2.00    -0.2411)  ( 0.00    -0.2369)

 CYCLE   13
  SDIIS (wt  0.000):  0.1423  0.0083 -0.0674 -0.0389  0.1124 -0.0094  0.1570  0.1081  0.5416  0.0460
 A-DIIS (wt  1.000):  0.1309  0.0000  0.0000  0.0000  0.0000  0.0000  0.0338  0.0383  0.7221  0.0748
  DIIS coefficients:  0.1309  0.0000  0.0000  0.0000  0.0000  0.0000  0.0338  0.0383  0.7221  0.0748
 SCF Error: norm([F,P])=      3.782680679341, max([F,P])=      1.005836660552
 orbitals (Q,E):
 ---------------
 A :33...43          ( 2.00    -0.3742)  ( 2.00    -0.3568)  ( 2.00    -0.3494)  ( 2.00    -0.3456)
                     ( 2.00    -0.3339)  ( 2.00    -0.3276)  ( 2.00    -0.3114)  ( 2.00    -0.2918)
                     ( 2.00    -0.2526)  ( 2.00    -0.2454)  ( 0.00    -0.2445)

 CYCLE   14
  SDIIS (wt  0.000):  0.0071 -0.0334 -0.0183 -0.0272  0.0040  0.0124  0.0252  0.7647  0.0238  0.2417
 A-DIIS (wt  1.000):  0.0000  0.0000  0.0000  0.0000  0.0000  0.0000  0.0000  0.6928  0.0000  0.3072
  DIIS coefficients:  0.0000  0.0000  0.0000  0.0000  0.0000  0.0000  0.0000  0.6928  0.0000  0.3072
 SCF Error: norm([F,P])=      1.569275585228, max([F,P])=      0.283343136487
 orbitals (Q,E):
 ---------------
 A :33...43          ( 2.00    -0.3684)  ( 2.00    -0.3611)  ( 2.00    -0.3115)  ( 2.00    -0.3023)
                     ( 2.00    -0.2983)  ( 2.00    -0.2840)  ( 2.00    -0.2749)  ( 2.00    -0.2620)
                     ( 2.00    -0.2532)  ( 2.00    -0.2465)  ( 0.00    -0.2321)

 CYCLE   15
  SDIIS (wt  0.000): -0.0245 -0.0216  0.0384  0.0013  0.0449  0.0416  0.6383  0.0084  0.2278  0.0455
 A-DIIS (wt  1.000):  0.0000  0.0000  0.0000  0.0000  0.0000  0.0000  0.6648  0.0000  0.3048  0.0304
  DIIS coefficients:  0.0000  0.0000  0.0000  0.0000  0.0000  0.0000  0.6648  0.0000  0.3048  0.0304
 SCF Error: norm([F,P])=      6.576341859593, max([F,P])=      1.345771251280
 orbitals (Q,E):
 ---------------
 A :33...43          ( 2.00    -0.3832)  ( 2.00    -0.3675)  ( 2.00    -0.3312)  ( 2.00    -0.3220)
                     ( 2.00    -0.3048)  ( 2.00    -0.2936)  ( 2.00    -0.2879)  ( 2.00    -0.2845)
                     ( 2.00    -0.2624)  ( 2.00    -0.2552)  ( 0.00    -0.2543)

 CYCLE   16
  SDIIS (wt  0.000): -0.0172  0.0237  0.0024  0.0082  0.0173  0.6315 -0.0056  0.2270  0.0278  0.0849
 A-DIIS (wt  1.000):  0.0000  0.0000  0.0000  0.0000  0.0000  0.6664  0.0000  0.2251  0.0000  0.1085
  DIIS coefficients:  0.0000  0.0000  0.0000  0.0000  0.0000  0.6664  0.0000  0.2251  0.0000  0.1085
 SCF Error: norm([F,P])=      2.008934769267, max([F,P])=      0.595798434109
 orbitals (Q,E):
 ---------------
 A :33...43          ( 2.00    -0.3558)  ( 2.00    -0.3475)  ( 2.00    -0.3316)  ( 2.00    -0.3105)
                     ( 2.00    -0.3069)  ( 2.00    -0.3001)  ( 2.00    -0.2898)  ( 2.00    -0.2854)
                     ( 2.00    -0.2841)  ( 2.00    -0.2778)  ( 0.00    -0.2325)

 CYCLE   17
  SDIIS (wt  0.000):  0.0246 -0.0081  0.0524  0.0165  0.5117 -0.0049  0.1634 -0.0165  0.0868  0.1741
 A-DIIS (wt  1.000):  0.0000  0.0000  0.0024  0.0000  0.6193  0.0000  0.2246  0.0000  0.0752  0.0786
  DIIS coefficients:  0.0000  0.0000  0.0024  0.0000  0.6193  0.0000  0.2246  0.0000  0.0752  0.0786
 SCF Error: norm([F,P])=      2.274472618275, max([F,P])=      0.498162635282
 orbitals (Q,E):
 ---------------
 A :33...43          ( 2.00    -0.3726)  ( 2.00    -0.3496)  ( 2.00    -0.3445)  ( 2.00    -0.3351)
                     ( 2.00    -0.3135)  ( 2.00    -0.2996)  ( 2.00    -0.2912)  ( 2.00    -0.2895)
                     ( 2.00    -0.2682)  ( 2.00    -0.2622)  ( 0.00    -0.2417)

 CYCLE   18
  SDIIS (wt  0.000): -0.0013 -0.0404  0.0251  0.4794  0.0220  0.0855 -0.0260  0.0210  0.1886  0.2461
 A-DIIS (wt  1.000):  0.0000  0.0000  0.0046  0.4765  0.0000  0.1067  0.0000  0.0000  0.1727  0.2394
  DIIS coefficients:  0.0000  0.0000  0.0046  0.4765  0.0000  0.1067  0.0000  0.0000  0.1727  0.2394
 SCF Error: norm([F,P])=      1.466118090971, max([F,P])=      0.683291719054
 orbitals (Q,E):
 ---------------
 A :33...43          ( 2.00    -0.3715)  ( 2.00    -0.3702)  ( 2.00    -0.3514)  ( 2.00    -0.3484)
                     ( 2.00    -0.3234)  ( 2.00    -0.3092)  ( 2.00    -0.2980)  ( 2.00    -0.2965)
                     ( 2.00    -0.2885)  ( 2.00    -0.2834)  ( 0.00    -0.2484)

 CYCLE   19
  SDIIS (wt  0.000): -0.0247 -0.0106  0.3663  0.0069  0.0618 -0.0197  0.0243  0.1866  0.2816  0.1276
 A-DIIS (wt  1.000):  0.0000  0.0000  0.3082  0.0000  0.0000  0.0000  0.0000  0.1720  0.3638  0.1561
  DIIS coefficients:  0.0000  0.0000  0.3082  0.0000  0.0000  0.0000  0.0000  0.1720  0.3638  0.1561
 SCF Error: norm([F,P])=      1.821851120818, max([F,P])=      0.524018059003
 orbitals (Q,E):
 ---------------
 A :33...43          ( 2.00    -0.3615)  ( 2.00    -0.3471)  ( 2.00    -0.3319)  ( 2.00    -0.3263)
                     ( 2.00    -0.3200)  ( 2.00    -0.3134)  ( 2.00    -0.3070)  ( 2.00    -0.2922)
                     ( 2.00    -0.2865)  ( 2.00    -0.2818)  ( 0.00    -0.2459)

 CYCLE   20
  SDIIS (wt  0.000):  0.0188  0.3049  0.0013  0.0001 -0.0055  0.0316  0.1154  0.2511  0.0725  0.2098
 A-DIIS (wt  1.000):  0.0000  0.2804  0.0000  0.0000  0.0000  0.0000  0.0996  0.3136  0.0966  0.2097
  DIIS coefficients:  0.0000  0.2804  0.0000  0.0000  0.0000  0.0000  0.0996  0.3136  0.0966  0.2097
 SCF Error: norm([F,P])=      0.825543547990, max([F,P])=      0.182119973168
 orbitals (Q,E):
 ---------------
 A :33...43          ( 2.00    -0.3590)  ( 2.00    -0.3470)  ( 2.00    -0.3327)  ( 2.00    -0.3202)
                     ( 2.00    -0.3113)  ( 2.00    -0.2945)  ( 2.00    -0.2930)  ( 2.00    -0.2844)
                     ( 2.00    -0.2765)  ( 2.00    -0.2716)  ( 0.00    -0.2470)

 CYCLE   21
  SDIIS (wt  0.000):  0.1497  0.0026 -0.0378  0.0098  0.0109 -0.0682  0.2293 -0.0668  0.4754  0.2950
 A-DIIS (wt  1.000):  0.1804  0.0000  0.0000  0.0000  0.0000  0.0000  0.2620  0.0000  0.3434  0.2142
  DIIS coefficients:  0.1804  0.0000  0.0000  0.0000  0.0000  0.0000  0.2620  0.0000  0.3434  0.2142
 SCF Error: norm([F,P])=      1.100720936078, max([F,P])=      0.315526696648
 orbitals (Q,E):
 ---------------
 A :33...43          ( 2.00    -0.3529)  ( 2.00    -0.3454)  ( 2.00    -0.3288)  ( 2.00    -0.3122)
                     ( 2.00    -0.3047)  ( 2.00    -0.2959)  ( 2.00    -0.2934)  ( 2.00    -0.2904)
                     ( 2.00    -0.2888)  ( 2.00    -0.2756)  ( 0.00    -0.2530)

 CYCLE   22
  SDIIS (wt  0.000): -0.0038 -0.0234  0.0079 -0.0027 -0.1413  0.1952 -0.0446  0.4759  0.3175  0.2193
 A-DIIS (wt  1.000):  0.0000  0.0000  0.0000  0.0000  0.0000  0.2442  0.0000  0.3125  0.2431  0.2003
  DIIS coefficients:  0.0000  0.0000  0.0000  0.0000  0.0000  0.2442  0.0000  0.3125  0.2431  0.2003
 SCF Error: norm([F,P])=      0.862684749965, max([F,P])=      0.175376735524
 orbitals (Q,E):
 ---------------
 A :33...43          ( 2.00    -0.3672)  ( 2.00    -0.3668)  ( 2.00    -0.3390)  ( 2.00    -0.3203)
                     ( 2.00    -0.3169)  ( 2.00    -0.3130)  ( 2.00    -0.3112)  ( 2.00    -0.2892)
                     ( 2.00    -0.2858)  ( 2.00    -0.2770)  ( 0.00    -0.2759)

 CYCLE   23
  SDIIS (wt  0.000): -0.0250  0.0069 -0.0031 -0.1330  0.1940 -0.0454  0.4717  0.3117  0.2174  0.0048
 A-DIIS (wt  1.000):  0.0000  0.0000  0.0000  0.0000  0.2357  0.0000  0.3326  0.2113  0.2006  0.0199
  DIIS coefficients:  0.0000  0.0000  0.0000  0.0000  0.2357  0.0000  0.3326  0.2113  0.2006  0.0199
 SCF Error: norm([F,P])=      3.205336069205, max([F,P])=      0.765891400268
 orbitals (Q,E):
 ---------------
 A :33...43          ( 2.00    -0.3713)  ( 2.00    -0.3653)  ( 2.00    -0.3343)  ( 2.00    -0.3212)
                     ( 2.00    -0.3156)  ( 2.00    -0.3040)  ( 2.00    -0.3030)  ( 2.00    -0.2904)
                     ( 2.00    -0.2842)  ( 2.00    -0.2790)  ( 0.00    -0.2683)

 CYCLE   24
  SDIIS (wt  0.000):  0.0019  0.0066 -0.0565  0.1293 -0.0809  0.4028  0.2577  0.1934 -0.0063  0.1519
 A-DIIS (wt  1.000):  0.0000  0.0000  0.0000  0.1663  0.0000  0.2850  0.1618  0.2409  0.0000  0.1459
  DIIS coefficients:  0.0000  0.0000  0.0000  0.1663  0.0000  0.2850  0.1618  0.2409  0.0000  0.1459
 SCF Error: norm([F,P])=      1.252293907318, max([F,P])=      0.230941406337
 orbitals (Q,E):
 ---------------
 A :33...43          ( 2.00    -0.3616)  ( 2.00    -0.3524)  ( 2.00    -0.3390)  ( 2.00    -0.3294)
                     ( 2.00    -0.3159)  ( 2.00    -0.2957)  ( 2.00    -0.2939)  ( 2.00    -0.2855)
                     ( 2.00    -0.2802)  ( 2.00    -0.2748)  ( 0.00    -0.2589)

 CYCLE   25
  SDIIS (wt  0.017):  0.0027 -0.0816  0.0735  0.0047  0.2608  0.1482  0.3188 -0.0113  0.0647  0.2195
 A-DIIS (wt  0.983):  0.0000  0.0000  0.0833  0.0000  0.2111  0.0872  0.2720  0.0000  0.1175  0.2289
  DIIS coefficients:  0.0000 -0.0014  0.0832  0.0001  0.2119  0.0883  0.2728 -0.0002  0.1166  0.2288
 SCF Error: norm([F,P])=      0.519167015648, max([F,P])=      0.098324271440
 orbitals (Q,E):
 ---------------
 A :33...43          ( 2.00    -0.3751)  ( 2.00    -0.3552)  ( 2.00    -0.3322)  ( 2.00    -0.3285)
                     ( 2.00    -0.3187)  ( 2.00    -0.3015)  ( 2.00    -0.2959)  ( 2.00    -0.2904)
                     ( 2.00    -0.2832)  ( 2.00    -0.2792)  ( 0.00    -0.2465)

 CYCLE   26
  SDIIS (wt  0.000): -0.0335  0.0271 -0.0224  0.1658  0.0594  0.2659 -0.0023 -0.0117  0.3156  0.2360
 A-DIIS (wt  1.000):  0.0000  0.0000  0.0000  0.0708  0.0000  0.2735  0.0000  0.0000  0.3755  0.2802
  DIIS coefficients:  0.0000  0.0000  0.0000  0.0708  0.0000  0.2735  0.0000  0.0000  0.3755  0.2802
 SCF Error: norm([F,P])=      0.753407399259, max([F,P])=      0.160652468195
 orbitals (Q,E):
 ---------------
 A :33...43          ( 2.00    -0.3614)  ( 2.00    -0.3471)  ( 2.00    -0.3344)  ( 2.00    -0.3253)
                     ( 2.00    -0.3144)  ( 2.00    -0.3004)  ( 2.00    -0.2962)  ( 2.00    -0.2887)
                     ( 2.00    -0.2847)  ( 2.00    -0.2786)  ( 0.00    -0.2506)

 CYCLE   27
  SDIIS (wt  0.000): -0.0219 -0.0224  0.0689  0.0336  0.2018 -0.0008 -0.0153  0.3127  0.2902  0.1533
 A-DIIS (wt  1.000):  0.0000  0.0000  0.0340  0.0401  0.2035  0.0000  0.0000  0.2726  0.2275  0.2223
  DIIS coefficients:  0.0000  0.0000  0.0340  0.0401  0.2035  0.0000  0.0000  0.2726  0.2275  0.2223
 SCF Error: norm([F,P])=      0.423472769624, max([F,P])=      0.141732825301
 orbitals (Q,E):
 ---------------
 A :33...43          ( 2.00    -0.3599)  ( 2.00    -0.3514)  ( 2.00    -0.3302)  ( 2.00    -0.3221)
                     ( 2.00    -0.3156)  ( 2.00    -0.3026)  ( 2.00    -0.3008)  ( 2.00    -0.2929)
                     ( 2.00    -0.2894)  ( 2.00    -0.2791)  ( 0.00    -0.2552)

 CYCLE   28
  SDIIS (wt  0.000): -0.0483 -0.0121  0.0209  0.1028 -0.0005  0.0030  0.2141  0.2488  0.2874  0.1837
 A-DIIS (wt  1.000):  0.0000  0.0000  0.0000  0.1407  0.0000  0.0000  0.2455  0.1981  0.2903  0.1253
  DIIS coefficients:  0.0000  0.0000  0.0000  0.1407  0.0000  0.0000  0.2455  0.1981  0.2903  0.1253
 SCF Error: norm([F,P])=      0.789902553940, max([F,P])=      0.329398103203
 orbitals (Q,E):
 ---------------
 A :33...43          ( 2.00    -0.3611)  ( 2.00    -0.3506)  ( 2.00    -0.3292)  ( 2.00    -0.3206)
                     ( 2.00    -0.3132)  ( 2.00    -0.2947)  ( 2.00    -0.2936)  ( 2.00    -0.2877)
                     ( 2.00    -0.2845)  ( 2.00    -0.2764)  ( 0.00    -0.2568)

 CYCLE   29
  SDIIS (wt  0.411):  0.0475 -0.0416  0.0295 -0.0009 -0.0319  0.1448  0.1168  0.2582  0.1008  0.3769
 A-DIIS (wt  0.589):  0.0000  0.0000  0.0000  0.0000  0.0000  0.0293  0.0062  0.4284  0.1313  0.4048
  DIIS coefficients:  0.0195 -0.0171  0.0121 -0.0004 -0.0131  0.0768  0.0516  0.3584  0.1188  0.3933
 SCF Error: norm([F,P])=      0.321301141480, max([F,P])=      0.059300328933
 orbitals (Q,E):
 ---------------
 A :33...43          ( 2.00    -0.3668)  ( 2.00    -0.3518)  ( 2.00    -0.3362)  ( 2.00    -0.3291)
                     ( 2.00    -0.3184)  ( 2.00    -0.2955)  ( 2.00    -0.2917)  ( 2.00    -0.2882)
                     ( 2.00    -0.2881)  ( 2.00    -0.2805)  ( 0.00    -0.2543)

 CYCLE   30
  SDIIS (wt  0.411): -0.0180  0.0228  0.0005 -0.0224 -0.0012 -0.0108  0.2925  0.0909  0.3376  0.3081
 A-DIIS (wt  0.589):  0.0000  0.0000  0.0000  0.0000  0.0000  0.0000  0.3399  0.0891  0.3233  0.2477
  DIIS coefficients: -0.0074  0.0094  0.0002 -0.0092 -0.0005 -0.0044  0.3204  0.0898  0.3292  0.2725
 SCF Error: norm([F,P])=      0.296601688508, max([F,P])=      0.066041912974
 orbitals (Q,E):
 ---------------
 A :33...43          ( 2.00    -0.3578)  ( 2.00    -0.3490)  ( 2.00    -0.3308)  ( 2.00    -0.3207)
                     ( 2.00    -0.3120)  ( 2.00    -0.2956)  ( 2.00    -0.2936)  ( 2.00    -0.2907)
                     ( 2.00    -0.2904)  ( 2.00    -0.2783)  ( 0.00    -0.2563)

 CYCLE   31
  SDIIS (wt  0.434): -0.0571 -0.0003 -0.0029 -0.0729 -0.0090  0.1677 -0.0204  0.2512  0.3326  0.4111
 A-DIIS (wt  0.566):  0.0000  0.0000  0.0000  0.0000  0.0000  0.1401  0.0000  0.1715  0.3511  0.3373
  DIIS coefficients: -0.0248 -0.0001 -0.0013 -0.0316 -0.0039  0.1521 -0.0089  0.2061  0.3431  0.3693
 SCF Error: norm([F,P])=      0.276263116844, max([F,P])=      0.057008119897
 orbitals (Q,E):
 ---------------
 A :33...43          ( 2.00    -0.3632)  ( 2.00    -0.3500)  ( 2.00    -0.3307)  ( 2.00    -0.3232)
                     ( 2.00    -0.3149)  ( 2.00    -0.2962)  ( 2.00    -0.2914)  ( 2.00    -0.2908)
                     ( 2.00    -0.2884)  ( 2.00    -0.2798)  ( 0.00    -0.2545)

 CYCLE   32
  SDIIS (wt  0.484):  0.0002 -0.0180  0.0272 -0.0016  0.0345  0.0177  0.0695  0.2585  0.2795  0.3326
 A-DIIS (wt  0.516):  0.0000  0.0000  0.0000  0.0000  0.0000  0.0000  0.0000  0.2817  0.3684  0.3498
  DIIS coefficients:  0.0001 -0.0087  0.0131 -0.0008  0.0167  0.0085  0.0336  0.2705  0.3254  0.3415
 SCF Error: norm([F,P])=      0.178382487288, max([F,P])=      0.052128526271
 orbitals (Q,E):
 ---------------
 A :33...43          ( 2.00    -0.3616)  ( 2.00    -0.3497)  ( 2.00    -0.3332)  ( 2.00    -0.3243)
                     ( 2.00    -0.3146)  ( 2.00    -0.2944)  ( 2.00    -0.2917)  ( 2.00    -0.2879)
                     ( 2.00    -0.2872)  ( 2.00    -0.2783)  ( 0.00    -0.2549)

 CYCLE   33
  SDIIS (wt  0.696): -0.0089 -0.0090 -0.0256 -0.0195  0.0068 -0.0017  0.2626  0.2817  0.3691  0.1445
 A-DIIS (wt  0.304):  0.0000  0.0000  0.0000  0.0000  0.0000  0.0000  0.1880  0.3037  0.2907  0.2176
  DIIS coefficients: -0.0062 -0.0062 -0.0178 -0.0135  0.0047 -0.0012  0.2399  0.2884  0.3452  0.1667
 SCF Error: norm([F,P])=      0.113269015860, max([F,P])=      0.031131512261
 orbitals (Q,E):
 ---------------
 A :33...43          ( 2.00    -0.3622)  ( 2.00    -0.3499)  ( 2.00    -0.3322)  ( 2.00    -0.3241)
                     ( 2.00    -0.3152)  ( 2.00    -0.2958)  ( 2.00    -0.2920)  ( 2.00    -0.2905)
                     ( 2.00    -0.2891)  ( 2.00    -0.2798)  ( 0.00    -0.2548)

 CYCLE   34
  SDIIS (wt  0.910): -0.0184 -0.0315 -0.0217  0.0012 -0.0144  0.1672  0.1942  0.2742  0.1934  0.2559
 A-DIIS (wt  0.090):  0.0000  0.0000  0.0000  0.0000  0.0000  0.0000  0.0339  0.0725  0.1936  0.7001
  DIIS coefficients: -0.0168 -0.0287 -0.0198  0.0011 -0.0131  0.1521  0.1798  0.2560  0.1935  0.2960
 SCF Error: norm([F,P])=      0.043050794753, max([F,P])=      0.009939635089
 orbitals (Q,E):
 ---------------
 A :33...43          ( 2.00    -0.3617)  ( 2.00    -0.3499)  ( 2.00    -0.3324)  ( 2.00    -0.3238)
                     ( 2.00    -0.3147)  ( 2.00    -0.2953)  ( 2.00    -0.2921)  ( 2.00    -0.2895)
                     ( 2.00    -0.2890)  ( 2.00    -0.2792)  ( 0.00    -0.2553)

 CYCLE   35
  SDIIS (wt  0.910):  0.0088 -0.0155  0.0030 -0.0088 -0.0164  0.0100 -0.0025  0.0673  0.3155  0.6384
 A-DIIS (wt  0.090):  0.0000  0.0000  0.0000  0.0000  0.0000  0.0000  0.0000  0.0290  0.3695  0.6015
  DIIS coefficients:  0.0080 -0.0141  0.0028 -0.0080 -0.0149  0.0091 -0.0022  0.0639  0.3204  0.6351
 SCF Error: norm([F,P])=      0.025989226389, max([F,P])=      0.009978025327
 orbitals (Q,E):
 ---------------
 A :33...43          ( 2.00    -0.3618)  ( 2.00    -0.3499)  ( 2.00    -0.3323)  ( 2.00    -0.3238)
                     ( 2.00    -0.3148)  ( 2.00    -0.2953)  ( 2.00    -0.2922)  ( 2.00    -0.2895)
                     ( 2.00    -0.2891)  ( 2.00    -0.2793)  ( 0.00    -0.2551)

 CYCLE   36
  SDIIS (wt  0.949): -0.0053 -0.0002 -0.0018  0.0071  0.0141  0.0225  0.0426  0.2490  0.3925  0.2795
 A-DIIS (wt  0.051):  0.0000  0.0000  0.0000  0.0000  0.0000  0.0000  0.0000  0.1331  0.3811  0.4858
  DIIS coefficients: -0.0050 -0.0002 -0.0017  0.0067  0.0134  0.0214  0.0405  0.2432  0.3919  0.2900
 SCF Error: norm([F,P])=      0.015938238637, max([F,P])=      0.006013897815
 orbitals (Q,E):
 ---------------
 A :33...43          ( 2.00    -0.3619)  ( 2.00    -0.3499)  ( 2.00    -0.3323)  ( 2.00    -0.3238)
                     ( 2.00    -0.3149)  ( 2.00    -0.2954)  ( 2.00    -0.2922)  ( 2.00    -0.2897)
                     ( 2.00    -0.2890)  ( 2.00    -0.2794)  ( 0.00    -0.2552)

 CYCLE   37
  SDIIS (wt  0.997):  0.0000 -0.0001  0.0009 -0.0019  0.0026  0.0106  0.1209  0.2088  0.2708  0.3874
 A-DIIS (wt  0.003):  0.0000  0.0000  0.0000  0.0000  0.0000  0.0000  0.0000  0.0000  0.1313  0.8687
  DIIS coefficients:  0.0000 -0.0001  0.0009 -0.0019  0.0025  0.0106  0.1205  0.2082  0.2704  0.3888
 SCF Error: norm([F,P])=      0.003052813745, max([F,P])=      0.001285072960
 orbitals (Q,E):
 ---------------
 A :33...43          ( 2.00    -0.3619)  ( 2.00    -0.3499)  ( 2.00    -0.3323)  ( 2.00    -0.3238)
                     ( 2.00    -0.3149)  ( 2.00    -0.2954)  ( 2.00    -0.2921)  ( 2.00    -0.2897)
                     ( 2.00    -0.2890)  ( 2.00    -0.2793)  ( 0.00    -0.2552)

 CYCLE   38
  SDIIS (wt  1.000): -0.0001 -0.0003 -0.0027  0.0006  0.0080  0.0956  0.1634  0.2100  0.2935  0.2319
  DIIS coefficients: -0.0001 -0.0003 -0.0027  0.0006  0.0080  0.0956  0.1634  0.2100  0.2935  0.2319
 SCF Error: norm([F,P])=      0.000472861483, max([F,P])=      0.000081670286
 orbitals (Q,E):
 ---------------
 A :33...43          ( 2.00    -0.3619)  ( 2.00    -0.3499)  ( 2.00    -0.3323)  ( 2.00    -0.3238)
                     ( 2.00    -0.3149)  ( 2.00    -0.2954)  ( 2.00    -0.2921)  ( 2.00    -0.2897)
                     ( 2.00    -0.2890)  ( 2.00    -0.2794)  ( 0.00    -0.2551)

 CYCLE   39
  SDIIS (wt  1.000):  0.0005 -0.0003  0.0010  0.0048  0.0480  0.0801  0.1021  0.1208  0.1814  0.4615
  DIIS coefficients:  0.0005 -0.0003  0.0010  0.0048  0.0480  0.0801  0.1021  0.1208  0.1814  0.4615
 SCF Error: norm([F,P])=      0.000224601610, max([F,P])=      0.000083579066
 orbitals (Q,E):
 ---------------
 A :33...43          ( 2.00    -0.3619)  ( 2.00    -0.3499)  ( 2.00    -0.3323)  ( 2.00    -0.3238)
                     ( 2.00    -0.3149)  ( 2.00    -0.2954)  ( 2.00    -0.2921)  ( 2.00    -0.2897)
                     ( 2.00    -0.2890)  ( 2.00    -0.2794)  ( 0.00    -0.2551)

 CYCLE   40
  SDIIS (wt  1.000): -0.0006 -0.0004  0.0008  0.0142  0.0228  0.0362  0.0349  0.0995  0.3368  0.4558
  DIIS coefficients: -0.0006 -0.0004  0.0008  0.0142  0.0228  0.0362  0.0349  0.0995  0.3368  0.4558
 SCF Error: norm([F,P])=      0.000229814581, max([F,P])=      0.000095379259
 orbitals (Q,E):
 ---------------
 A :33...43          ( 2.00    -0.3619)  ( 2.00    -0.3499)  ( 2.00    -0.3323)  ( 2.00    -0.3238)
                     ( 2.00    -0.3149)  ( 2.00    -0.2954)  ( 2.00    -0.2921)  ( 2.00    -0.2897)
                     ( 2.00    -0.2890)  ( 2.00    -0.2794)  ( 0.00    -0.2551)

 CYCLE   41
  SDIIS (wt  1.000): -0.0001  0.0000  0.0020  0.0015  0.0054 -0.0060  0.0274  0.1261  0.2413  0.6024
  DIIS coefficients: -0.0001  0.0000  0.0020  0.0015  0.0054 -0.0060  0.0274  0.1261  0.2413  0.6024
 SCF Error: norm([F,P])=      0.000071869197, max([F,P])=      0.000025383310
 orbitals (Q,E):
 ---------------
 A :33...43          ( 2.00    -0.3619)  ( 2.00    -0.3499)  ( 2.00    -0.3323)  ( 2.00    -0.3238)
                     ( 2.00    -0.3149)  ( 2.00    -0.2954)  ( 2.00    -0.2921)  ( 2.00    -0.2897)
                     ( 2.00    -0.2890)  ( 2.00    -0.2794)  ( 0.00    -0.2551)

 CYCLE   42
  SDIIS (wt  1.000):  0.0000  0.0011  0.0011  0.0029 -0.0008  0.0111  0.0411  0.0719  0.2280  0.6437
  DIIS coefficients:  0.0000  0.0011  0.0011  0.0029 -0.0008  0.0111  0.0411  0.0719  0.2280  0.6437
 SCF Error: norm([F,P])=      0.000009320176, max([F,P])=      0.000002529009
 orbitals (Q,E):
 ---------------
 A :33...43          ( 2.00    -0.3619)  ( 2.00    -0.3499)  ( 2.00    -0.3323)  ( 2.00    -0.3238)
                     ( 2.00    -0.3149)  ( 2.00    -0.2954)  ( 2.00    -0.2921)  ( 2.00    -0.2897)
                     ( 2.00    -0.2890)  ( 2.00    -0.2794)  ( 0.00    -0.2551)

 CYCLE   43
  SDIIS (wt  1.000):  0.0003  0.0002  0.0008 -0.0008  0.0033  0.0117  0.0222  0.0532  0.2718  0.6375
  DIIS coefficients:  0.0003  0.0002  0.0008 -0.0008  0.0033  0.0117  0.0222  0.0532  0.2718  0.6375
 SCF Error: norm([F,P])=      0.000004798127, max([F,P])=      0.000002163684
 orbitals (Q,E):
 ---------------
 A :33...43          ( 2.00    -0.3619)  ( 2.00    -0.3499)  ( 2.00    -0.3323)  ( 2.00    -0.3238)
                     ( 2.00    -0.3149)  ( 2.00    -0.2954)  ( 2.00    -0.2921)  ( 2.00    -0.2897)
                     ( 2.00    -0.2890)  ( 2.00    -0.2794)  ( 0.00    -0.2551)

 CYCLE   44
  SDIIS (wt  1.000):  0.0000  0.0000 -0.0002 -0.0001 -0.0001  0.0003 -0.0065  0.0191  0.1587  0.8288
  DIIS coefficients:  0.0000  0.0000 -0.0002 -0.0001 -0.0001  0.0003 -0.0065  0.0191  0.1587  0.8288
 SCF Error: norm([F,P])=      0.000000923988, max([F,P])=      0.000000400164
 orbitals (Q,E):
 ---------------
 A :33...43          ( 2.00    -0.3619)  ( 2.00    -0.3499)  ( 2.00    -0.3323)  ( 2.00    -0.3238)
                     ( 2.00    -0.3149)  ( 2.00    -0.2954)  ( 2.00    -0.2921)  ( 2.00    -0.2897)
                     ( 2.00    -0.2890)  ( 2.00    -0.2794)  ( 0.00    -0.2551)

 SCF CONVERGED

 CYCLE   45
 *** Setting up for NEW gradients in Focky
 *** Using FIT density in Focky
 orbitals (Q,E):
 ---------------
 A :33...52          ( 2.00    -0.3619)  ( 2.00    -0.3499)  ( 2.00    -0.3323)  ( 2.00    -0.3238)
                     ( 2.00    -0.3149)  ( 2.00    -0.2954)  ( 2.00    -0.2921)  ( 2.00    -0.2897)
                     ( 2.00    -0.2890)  ( 2.00    -0.2794)  ( 0.00    -0.2551)  ( 0.00    -0.2464)
                     ( 0.00    -0.2323)  ( 0.00    -0.2232)  ( 0.00    -0.2213)  ( 0.00    -0.2181)
                     ( 0.00    -0.1974)  ( 0.00    -0.1848)  ( 0.00    -0.1605)  ( 0.00    -0.1030)


 Fit test: (difference of exact and fit density, squared integrated, result summed over spins)
         SCF:                                          0.00015462315480

 Gross Charges per Atom (Z minus electrons)
 ==========================================
             0.3337    0.1872   -0.2618    0.3043   -0.2672    0.1321   -0.3452    0.2181   -0.3013
 Net Total:  0.00000000



 =================================================================
 M U L T I P O L E   D E R I V E D   C H A R G E   A N A L Y S I S
 =================================================================

 See: M. Swart, P.Th. van Duijnen, J.G. Snijders, J.Comput.Chem., (2001), p. 79-88.

 --------------------------------------- 
 Multipole derived atomic charges (a.u.)
 --------------------------------------- 

        Atom    Level:     MDC-m        MDC-d        MDC-q
 ---------------------------------------------------------
     1     Ni           0.885417     0.576196    -0.018665
     2     C            0.157425     0.122247     0.263922
     3     O           -0.292674    -0.229989    -0.243164
     4     C            0.249088     0.096932     0.335433
     5     O           -0.237982    -0.100241    -0.190686
     6     C           -0.167014    -0.000619     0.244854
     7     O           -0.349940    -0.282971    -0.322272
     8     C            0.051484    -0.000878     0.126847
     9     O           -0.295804    -0.180677    -0.196269
 *** Using NEW gradient routines ***


 Geometry CYCLE 1
 ==============

 Energy gradients wrt nuclear displacements
 ==========================================

     Atom      Cartesian (a.u./angstrom)
                 X         Y         Z
 ----------------------------------------
     1 Ni   -0.216194 -0.208746  0.305659
     2 C    -0.021235 -0.154736 -0.000741
     3 O     0.008649  0.200502  0.008290
     4 C    -0.362130  0.228202 -0.038824
     5 O     0.374435 -0.235958  0.038953
     6 C     0.379105  0.230667 -0.591227
     7 O    -0.133980 -0.038634  0.275903
     8 C     0.091776  0.178246  0.296589
     9 O    -0.120425 -0.199544 -0.294601
 ----------------------------------------
 
----------------------------------------------------------------------
Geometry Convergence after Step   1       (Hartree/Angstrom,Angstrom)
----------------------------------------------------------------------
current energy                               -1.38551970 Hartree
energy change                      -1.38551970     0.00100000    F
constrained gradient max            0.59122654     0.00100000    F
constrained gradient rms            0.23897228     0.00066667    F
gradient max                        0.59122654
gradient rms                        0.23897228
cart. step max                      0.14774573     0.01000000    F
cart. step rms                      0.05977808     0.00666667    F
 


 Coordinates (Cartesian)
 =======================

     Atom                    bohr                                 angstrom                 Geometric Variables
                   X           Y           Z              X           Y           Z       (0:frozen, *:LT par.)
 --------------------------------------------------------------------------------------------------------------
     1 Ni     -0.215993   -1.860040   -2.757280      -0.114299   -0.984291   -1.459090      1       2       3
     2 C      -0.898266    2.599327   -2.192244      -0.475342    1.375505   -1.160085      4       5       6
     3 O      -0.739373    6.577102   -2.031677      -0.391259    3.480453   -1.075117      7       8       9
     4 C       4.778210   -4.229119   -2.668832       2.528520   -2.237954   -1.412285     10      11      12
     5 O       6.967624   -5.629596   -2.418572       3.687108   -2.979054   -1.279853     13      14      15
     6 C      -2.033912   -3.188956   -0.735982      -1.076300   -1.687523   -0.389465     16      17      18
     7 O      -3.420643   -3.634136    1.902795      -1.810127   -1.923102    1.006916     19      20      21
     8 C      -1.508234   -2.738345   -5.949040      -0.798123   -1.449070   -3.148096     22      23      24
     9 O      -2.473779   -4.354865   -8.112320      -1.309068   -2.304495   -4.292855     25      26      27
 --------------------------------------------------------------------------------------------------------------

 Number of elements of the density matrix on this node (used, total):     10465     21115



 ===========================================
 Numerical Integration : Fuzzy Cells (Becke)
 ===========================================
  
 Becke grid quality: NORMAL         
  
 Lebedev angular grid order:             min:  11 max:  23
 Nr. of radial points:                   min:  49 max:  73

 Total nr. of points:      61469
 Nr. of blocks:              481
 Block length:               128
 Nr. of dummy points:         99


 Test of Precision of the Numerical Integration Grid
 ===================================================

 Integral of the Total Core Density:                   0.00000000000000



 ========================
 Density Fitting (zlmFit)
 ========================
  
 ZlmFit Fit Quality: NORMAL         
  
 Max L-expansion:                        min:   6 max:   6
 Nr. of radial interpolation points:     min:  48 max:  72



 =====
 S C F  ***  ScaSCF  ***
 =====
  
 Initial density matrix is taken from previous geometry

 CYCLE    1
 SCF Error: norm([F,P])=      1.301013389514, max([F,P])=      0.381881363171
 orbitals (Q,E):
 ---------------
 A :33...52          ( 2.00    -0.2973)  ( 2.00    -0.2863)  ( 2.00    -0.2632)  ( 2.00    -0.2542)
                     ( 2.00    -0.2475)  ( 2.00    -0.2426)  ( 2.00    -0.2409)  ( 2.00    -0.2327)
                     ( 2.00    -0.2300)  ( 2.00    -0.2169)  ( 0.00    -0.1915)  ( 0.00    -0.1818)
                     ( 0.00    -0.1501)  ( 0.00    -0.1276)  ( 0.00    -0.1039)  ( 0.00    -0.0983)
                     ( 0.00    -0.0938)  ( 0.00    -0.0915)  ( 0.00    -0.0854)  ( 0.00     0.0027)

 CYCLE    2
   MIX coefficients:  0.8000  0.2000
 SCF Error: norm([F,P])=      0.881125113509, max([F,P])=      0.163168225652
 orbitals (Q,E):
 ---------------
 A :33...43          ( 2.00    -0.3060)  ( 2.00    -0.2936)  ( 2.00    -0.2861)  ( 2.00    -0.2557)
                     ( 2.00    -0.2525)  ( 2.00    -0.2451)  ( 2.00    -0.2322)  ( 2.00    -0.2264)
                     ( 2.00    -0.2161)  ( 2.00    -0.2085)  ( 0.00    -0.1864)

 CYCLE    3
  SDIIS (wt  0.000):  0.7508  0.2492
 A-DIIS (wt  1.000):  0.7652  0.2348
  DIIS coefficients:  0.7652  0.2348
 SCF Error: norm([F,P])=      2.357682908730, max([F,P])=      0.940228128130
 orbitals (Q,E):
 ---------------
 A :33...43          ( 2.00    -0.3731)  ( 2.00    -0.3714)  ( 2.00    -0.3146)  ( 2.00    -0.2984)
                     ( 2.00    -0.2908)  ( 2.00    -0.2884)  ( 2.00    -0.2811)  ( 2.00    -0.2676)
                     ( 2.00    -0.2417)  ( 2.00    -0.2205)  ( 0.00    -0.2123)

 CYCLE    4
  SDIIS (wt  0.000):  0.7631  0.2061  0.0308
 A-DIIS (wt  1.000):  0.7605  0.2173  0.0222
  DIIS coefficients:  0.7605  0.2173  0.0222
 SCF Error: norm([F,P])=      8.961316936767, max([F,P])=      1.824632058250
 orbitals (Q,E):
 ---------------
 A :33...43          ( 2.00    -0.3776)  ( 2.00    -0.3766)  ( 2.00    -0.3243)  ( 2.00    -0.3157)
                     ( 2.00    -0.3121)  ( 2.00    -0.2969)  ( 2.00    -0.2737)  ( 2.00    -0.2731)
                     ( 2.00    -0.2680)  ( 2.00    -0.2659)  ( 0.00    -0.2222)

 CYCLE    5
  SDIIS (wt  0.000):  0.6715  0.1886 -0.0222  0.1622
 A-DIIS (wt  1.000):  0.6888  0.2061  0.0000  0.1051
  DIIS coefficients:  0.6888  0.2061  0.0000  0.1051
 SCF Error: norm([F,P])=      2.974622728696, max([F,P])=      0.554633017751
 orbitals (Q,E):
 ---------------
 A :33...43          ( 2.00    -0.3801)  ( 2.00    -0.3693)  ( 2.00    -0.3345)  ( 2.00    -0.3250)
                     ( 2.00    -0.3239)  ( 2.00    -0.3158)  ( 2.00    -0.2926)  ( 2.00    -0.2884)
                     ( 2.00    -0.2653)  ( 2.00    -0.2620)  ( 0.00    -0.2264)

 CYCLE    6
  SDIIS (wt  0.288):  0.4547  0.0994 -0.0087  0.0821  0.3725
 A-DIIS (wt  0.712):  0.3976  0.0633  0.0000  0.0112  0.5278
  DIIS coefficients:  0.4141  0.0737 -0.0025  0.0316  0.4831
 SCF Error: norm([F,P])=      0.415808970726, max([F,P])=      0.071525145118
 orbitals (Q,E):
 ---------------
 A :33...43          ( 2.00    -0.3489)  ( 2.00    -0.3420)  ( 2.00    -0.3336)  ( 2.00    -0.3147)
                     ( 2.00    -0.3121)  ( 2.00    -0.2891)  ( 2.00    -0.2852)  ( 2.00    -0.2803)
                     ( 2.00    -0.2652)  ( 2.00    -0.2649)  ( 0.00    -0.2532)

 CYCLE    7
  SDIIS (wt  0.000):  0.4230  0.0754 -0.0094  0.0538  0.4340  0.0232
 A-DIIS (wt  1.000):  0.3620  0.0342  0.0000  0.0000  0.5754  0.0284
  DIIS coefficients:  0.3620  0.0342  0.0000  0.0000  0.5754  0.0284
 SCF Error: norm([F,P])=      4.937750103144, max([F,P])=      1.529151596039
 orbitals (Q,E):
 ---------------
 A :33...43          ( 2.00    -0.3528)  ( 2.00    -0.3527)  ( 2.00    -0.3393)  ( 2.00    -0.3061)
                     ( 2.00    -0.3010)  ( 2.00    -0.2994)  ( 2.00    -0.2941)  ( 2.00    -0.2918)
                     ( 2.00    -0.2794)  ( 2.00    -0.2668)  ( 0.00    -0.2527)

 CYCLE    8
  SDIIS (wt  0.000):  0.3282  0.0245 -0.0031  0.0056  0.4722 -0.0157  0.1884
 A-DIIS (wt  1.000):  0.2967  0.0000  0.0000  0.0000  0.5479  0.0000  0.1554
  DIIS coefficients:  0.2967  0.0000  0.0000  0.0000  0.5479  0.0000  0.1554
 SCF Error: norm([F,P])=      1.429634380672, max([F,P])=      0.310104668192
 orbitals (Q,E):
 ---------------
 A :33...43          ( 2.00    -0.3591)  ( 2.00    -0.3498)  ( 2.00    -0.3424)  ( 2.00    -0.3203)
                     ( 2.00    -0.3097)  ( 2.00    -0.3011)  ( 2.00    -0.2941)  ( 2.00    -0.2897)
                     ( 2.00    -0.2856)  ( 2.00    -0.2741)  ( 0.00    -0.2472)

 CYCLE    9
  SDIIS (wt  0.000):  0.3212  0.0152 -0.0037  0.0125  0.4616 -0.0155  0.1890  0.0197
 A-DIIS (wt  1.000):  0.2945  0.0000  0.0000  0.0000  0.5068  0.0000  0.1528  0.0459
  DIIS coefficients:  0.2945  0.0000  0.0000  0.0000  0.5068  0.0000  0.1528  0.0459
 SCF Error: norm([F,P])=      1.290515654562, max([F,P])=      0.585957648489
 orbitals (Q,E):
 ---------------
 A :33...43          ( 2.00    -0.3579)  ( 2.00    -0.3473)  ( 2.00    -0.3431)  ( 2.00    -0.3131)
                     ( 2.00    -0.3061)  ( 2.00    -0.2995)  ( 2.00    -0.2931)  ( 2.00    -0.2910)
                     ( 2.00    -0.2885)  ( 2.00    -0.2735)  ( 0.00    -0.2429)

 CYCLE   10
  SDIIS (wt  0.000):  0.0996  0.0306  0.0020 -0.0254  0.2914 -0.0067  0.0607  0.0505  0.4973
 A-DIIS (wt  1.000):  0.0000  0.0000  0.0000  0.0000  0.0962  0.0000  0.0000  0.1704  0.7334
  DIIS coefficients:  0.0000  0.0000  0.0000  0.0000  0.0962  0.0000  0.0000  0.1704  0.7334
 SCF Error: norm([F,P])=      0.328677570461, max([F,P])=      0.127997713657
 orbitals (Q,E):
 ---------------
 A :33...43          ( 2.00    -0.3639)  ( 2.00    -0.3485)  ( 2.00    -0.3353)  ( 2.00    -0.3104)
                     ( 2.00    -0.3055)  ( 2.00    -0.2989)  ( 2.00    -0.2851)  ( 2.00    -0.2796)
                     ( 2.00    -0.2733)  ( 2.00    -0.2666)  ( 0.00    -0.2327)

 CYCLE   11
  SDIIS (wt  0.000):  0.0661 -0.0074  0.0009 -0.0176  0.1809 -0.0063  0.0450  0.0451  0.5244  0.1690
 A-DIIS (wt  1.000):  0.0000  0.0000  0.0000  0.0000  0.0000  0.0000  0.0000  0.0682  0.6989  0.2329
  DIIS coefficients:  0.0000  0.0000  0.0000  0.0000  0.0000  0.0000  0.0000  0.0682  0.6989  0.2329
 SCF Error: norm([F,P])=      0.654954526635, max([F,P])=      0.274995990027
 orbitals (Q,E):
 ---------------
 A :33...43          ( 2.00    -0.3679)  ( 2.00    -0.3510)  ( 2.00    -0.3448)  ( 2.00    -0.3290)
                     ( 2.00    -0.3160)  ( 2.00    -0.3071)  ( 2.00    -0.2974)  ( 2.00    -0.2889)
                     ( 2.00    -0.2786)  ( 2.00    -0.2740)  ( 0.00    -0.2354)

 CYCLE   12
  SDIIS (wt  0.000):  0.0045  0.0002 -0.0071  0.0366 -0.0071  0.0426 -0.0298  0.5660  0.2366  0.1574
 A-DIIS (wt  1.000):  0.0000  0.0000  0.0000  0.0000  0.0000  0.0000  0.0000  0.6239  0.2676  0.1085
  DIIS coefficients:  0.0000  0.0000  0.0000  0.0000  0.0000  0.0000  0.0000  0.6239  0.2676  0.1085
 SCF Error: norm([F,P])=      0.817506098247, max([F,P])=      0.186830184502
 orbitals (Q,E):
 ---------------
 A :33...43          ( 2.00    -0.3616)  ( 2.00    -0.3470)  ( 2.00    -0.3439)  ( 2.00    -0.3171)
                     ( 2.00    -0.3095)  ( 2.00    -0.3028)  ( 2.00    -0.2927)  ( 2.00    -0.2867)
                     ( 2.00    -0.2832)  ( 2.00    -0.2736)  ( 0.00    -0.2414)

 CYCLE   13
  SDIIS (wt  0.000):  0.0004 -0.0056 -0.0172 -0.0007  0.0025 -0.0928  0.5097  0.2520  0.1008  0.2509
 A-DIIS (wt  1.000):  0.0000  0.0000  0.0000  0.0000  0.0000  0.0000  0.5534  0.1010  0.0000  0.3456
  DIIS coefficients:  0.0000  0.0000  0.0000  0.0000  0.0000  0.0000  0.5534  0.1010  0.0000  0.3456
 SCF Error: norm([F,P])=      0.391351414001, max([F,P])=      0.159931835506
 orbitals (Q,E):
 ---------------
 A :33...43          ( 2.00    -0.3631)  ( 2.00    -0.3473)  ( 2.00    -0.3402)  ( 2.00    -0.3149)
                     ( 2.00    -0.3061)  ( 2.00    -0.2984)  ( 2.00    -0.2896)  ( 2.00    -0.2837)
                     ( 2.00    -0.2808)  ( 2.00    -0.2726)  ( 0.00    -0.2358)

 CYCLE   14
  SDIIS (wt  0.465):  0.0030 -0.0147  0.0004  0.0033 -0.0834  0.2873  0.0131 -0.0657  0.6047  0.2520
 A-DIIS (wt  0.535):  0.0000  0.0000  0.0000  0.0000  0.0000  0.4678  0.0546  0.0000  0.3421  0.1355
  DIIS coefficients:  0.0014 -0.0069  0.0002  0.0015 -0.0388  0.3838  0.0353 -0.0306  0.4643  0.1897
 SCF Error: norm([F,P])=      0.255005233748, max([F,P])=      0.053932203488
 orbitals (Q,E):
 ---------------
 A :33...43          ( 2.00    -0.3606)  ( 2.00    -0.3459)  ( 2.00    -0.3414)  ( 2.00    -0.3113)
                     ( 2.00    -0.3062)  ( 2.00    -0.3000)  ( 2.00    -0.2889)  ( 2.00    -0.2853)
                     ( 2.00    -0.2821)  ( 2.00    -0.2711)  ( 0.00    -0.2392)

 CYCLE   15
  SDIIS (wt  0.576): -0.0133 -0.0001  0.0017 -0.0544  0.2253 -0.0518 -0.0450  0.4943  0.2329  0.2104
 A-DIIS (wt  0.424):  0.0000  0.0000  0.0000  0.0000  0.3236  0.0000  0.0000  0.2647  0.1299  0.2818
  DIIS coefficients: -0.0077 -0.0001  0.0010 -0.0313  0.2670 -0.0298 -0.0259  0.3968  0.1892  0.2407
 SCF Error: norm([F,P])=      0.197757848795, max([F,P])=      0.043023816943
 orbitals (Q,E):
 ---------------
 A :33...43          ( 2.00    -0.3615)  ( 2.00    -0.3466)  ( 2.00    -0.3433)  ( 2.00    -0.3159)
                     ( 2.00    -0.3077)  ( 2.00    -0.3006)  ( 2.00    -0.2919)  ( 2.00    -0.2868)
                     ( 2.00    -0.2843)  ( 2.00    -0.2740)  ( 0.00    -0.2401)

 CYCLE   16
  SDIIS (wt  0.737): -0.0003  0.0023 -0.0038  0.1057 -0.0724 -0.0281  0.1893  0.0992  0.3506  0.3574
 A-DIIS (wt  0.263):  0.0000  0.0000  0.0000  0.0673  0.0000  0.0000  0.0000  0.0000  0.3343  0.5985
  DIIS coefficients: -0.0002  0.0017 -0.0028  0.0956 -0.0533 -0.0207  0.1395  0.0731  0.3463  0.4208
 SCF Error: norm([F,P])=      0.116813448926, max([F,P])=      0.027041117507
 orbitals (Q,E):
 ---------------
 A :33...43          ( 2.00    -0.3598)  ( 2.00    -0.3456)  ( 2.00    -0.3435)  ( 2.00    -0.3136)
                     ( 2.00    -0.3067)  ( 2.00    -0.3002)  ( 2.00    -0.2912)  ( 2.00    -0.2877)
                     ( 2.00    -0.2851)  ( 2.00    -0.2729)  ( 0.00    -0.2415)

 CYCLE   17
  SDIIS (wt  0.952): -0.0017 -0.0045  0.0460 -0.0191 -0.0121  0.0665  0.0319  0.1926  0.3337  0.3667
 A-DIIS (wt  0.048):  0.0000  0.0000  0.0000  0.0000  0.0000  0.0000  0.0000  0.0113  0.2087  0.7800
  DIIS coefficients: -0.0016 -0.0043  0.0438 -0.0181 -0.0116  0.0633  0.0304  0.1840  0.3277  0.3865
 SCF Error: norm([F,P])=      0.028112129459, max([F,P])=      0.005735010928
 orbitals (Q,E):
 ---------------
 A :33...43          ( 2.00    -0.3606)  ( 2.00    -0.3460)  ( 2.00    -0.3432)  ( 2.00    -0.3142)
                     ( 2.00    -0.3070)  ( 2.00    -0.3003)  ( 2.00    -0.2911)  ( 2.00    -0.2869)
                     ( 2.00    -0.2842)  ( 2.00    -0.2731)  ( 0.00    -0.2405)

 CYCLE   18
  SDIIS (wt  0.952): -0.0052  0.0474 -0.0213 -0.0106  0.0686  0.0347  0.1658  0.2640  0.2575  0.1991
 A-DIIS (wt  0.048):  0.0000  0.0000  0.0000  0.0000  0.0000  0.0000  0.0000  0.0304  0.3265  0.6431
  DIIS coefficients: -0.0049  0.0451 -0.0202 -0.0101  0.0653  0.0330  0.1579  0.2528  0.2608  0.2203
 SCF Error: norm([F,P])=      0.015306224895, max([F,P])=      0.006324751862
 orbitals (Q,E):
 ---------------
 A :33...43          ( 2.00    -0.3605)  ( 2.00    -0.3459)  ( 2.00    -0.3432)  ( 2.00    -0.3141)
                     ( 2.00    -0.3070)  ( 2.00    -0.3004)  ( 2.00    -0.2912)  ( 2.00    -0.2870)
                     ( 2.00    -0.2844)  ( 2.00    -0.2731)  ( 0.00    -0.2406)

 CYCLE   19
  SDIIS (wt  1.000):  0.0167 -0.0102 -0.0046  0.0089  0.0055  0.0854  0.1523  0.1524  0.3101  0.2836
  DIIS coefficients:  0.0167 -0.0102 -0.0046  0.0089  0.0055  0.0854  0.1523  0.1524  0.3101  0.2836
 SCF Error: norm([F,P])=      0.004737335434, max([F,P])=      0.000954154835
 orbitals (Q,E):
 ---------------
 A :33...43          ( 2.00    -0.3605)  ( 2.00    -0.3459)  ( 2.00    -0.3433)  ( 2.00    -0.3140)
                     ( 2.00    -0.3069)  ( 2.00    -0.3003)  ( 2.00    -0.2911)  ( 2.00    -0.2871)
                     ( 2.00    -0.2844)  ( 2.00    -0.2731)  ( 0.00    -0.2407)

 CYCLE   20
  SDIIS (wt  1.000):  0.0004  0.0012 -0.0059 -0.0035 -0.0109 -0.0165 -0.0072  0.1493  0.2663  0.6269
  DIIS coefficients:  0.0004  0.0012 -0.0059 -0.0035 -0.0109 -0.0165 -0.0072  0.1493  0.2663  0.6269
 SCF Error: norm([F,P])=      0.002356730669, max([F,P])=      0.000562738962
 orbitals (Q,E):
 ---------------
 A :33...43          ( 2.00    -0.3605)  ( 2.00    -0.3459)  ( 2.00    -0.3432)  ( 2.00    -0.3140)
                     ( 2.00    -0.3070)  ( 2.00    -0.3003)  ( 2.00    -0.2911)  ( 2.00    -0.2871)
                     ( 2.00    -0.2845)  ( 2.00    -0.2731)  ( 0.00    -0.2406)

 CYCLE   21
  SDIIS (wt  1.000):  0.0005 -0.0022 -0.0015 -0.0062 -0.0089 -0.0015  0.1035  0.1834  0.4301  0.3027
  DIIS coefficients:  0.0005 -0.0022 -0.0015 -0.0062 -0.0089 -0.0015  0.1035  0.1834  0.4301  0.3027
 SCF Error: norm([F,P])=      0.001749597201, max([F,P])=      0.000729159700
 orbitals (Q,E):
 ---------------
 A :33...43          ( 2.00    -0.3605)  ( 2.00    -0.3459)  ( 2.00    -0.3432)  ( 2.00    -0.3140)
                     ( 2.00    -0.3070)  ( 2.00    -0.3003)  ( 2.00    -0.2911)  ( 2.00    -0.2871)
                     ( 2.00    -0.2844)  ( 2.00    -0.2731)  ( 0.00    -0.2406)

 CYCLE   22
  SDIIS (wt  1.000): -0.0004 -0.0006 -0.0017 -0.0001  0.0058  0.0610  0.1026  0.2198  0.2197  0.3938
  DIIS coefficients: -0.0004 -0.0006 -0.0017 -0.0001  0.0058  0.0610  0.1026  0.2198  0.2197  0.3938
 SCF Error: norm([F,P])=      0.000672057346, max([F,P])=      0.000291973502
 orbitals (Q,E):
 ---------------
 A :33...43          ( 2.00    -0.3605)  ( 2.00    -0.3459)  ( 2.00    -0.3432)  ( 2.00    -0.3141)
                     ( 2.00    -0.3070)  ( 2.00    -0.3003)  ( 2.00    -0.2911)  ( 2.00    -0.2871)
                     ( 2.00    -0.2844)  ( 2.00    -0.2731)  ( 0.00    -0.2406)

 CYCLE   23
  SDIIS (wt  1.000): -0.0001 -0.0001  0.0001  0.0020  0.0113  0.0182  0.0517  0.0363  0.0551  0.8256
  DIIS coefficients: -0.0001 -0.0001  0.0001  0.0020  0.0113  0.0182  0.0517  0.0363  0.0551  0.8256
 SCF Error: norm([F,P])=      0.000088455854, max([F,P])=      0.000030448449
 orbitals (Q,E):
 ---------------
 A :33...43          ( 2.00    -0.3605)  ( 2.00    -0.3459)  ( 2.00    -0.3432)  ( 2.00    -0.3141)
                     ( 2.00    -0.3070)  ( 2.00    -0.3003)  ( 2.00    -0.2911)  ( 2.00    -0.2871)
                     ( 2.00    -0.2844)  ( 2.00    -0.2731)  ( 0.00    -0.2406)

 CYCLE   24
  SDIIS (wt  1.000):  0.0000  0.0001  0.0006  0.0013  0.0020  0.0096  0.0019 -0.0010  0.3327  0.6526
  DIIS coefficients:  0.0000  0.0001  0.0006  0.0013  0.0020  0.0096  0.0019 -0.0010  0.3327  0.6526
 SCF Error: norm([F,P])=      0.000007405553, max([F,P])=      0.000002154668
 orbitals (Q,E):
 ---------------
 A :33...43          ( 2.00    -0.3605)  ( 2.00    -0.3459)  ( 2.00    -0.3432)  ( 2.00    -0.3141)
                     ( 2.00    -0.3070)  ( 2.00    -0.3003)  ( 2.00    -0.2911)  ( 2.00    -0.2871)
                     ( 2.00    -0.2844)  ( 2.00    -0.2731)  ( 0.00    -0.2406)

 CYCLE   25
  SDIIS (wt  1.000):  0.0000  0.0003  0.0010  0.0016  0.0062  0.0023  0.0012  0.1820  0.3680  0.4373
  DIIS coefficients:  0.0000  0.0003  0.0010  0.0016  0.0062  0.0023  0.0012  0.1820  0.3680  0.4373
 SCF Error: norm([F,P])=      0.000007252014, max([F,P])=      0.000001542454
 orbitals (Q,E):
 ---------------
 A :33...43          ( 2.00    -0.3605)  ( 2.00    -0.3459)  ( 2.00    -0.3432)  ( 2.00    -0.3141)
                     ( 2.00    -0.3070)  ( 2.00    -0.3003)  ( 2.00    -0.2911)  ( 2.00    -0.2871)
                     ( 2.00    -0.2844)  ( 2.00    -0.2731)  ( 0.00    -0.2406)

 CYCLE   26
  SDIIS (wt  1.000):  0.0000  0.0000  0.0000  0.0000 -0.0001  0.0002  0.0112  0.0387  0.1089  0.8412
  DIIS coefficients:  0.0000  0.0000  0.0000  0.0000 -0.0001  0.0002  0.0112  0.0387  0.1089  0.8412
 SCF Error: norm([F,P])=      0.000000822582, max([F,P])=      0.000000290868
 orbitals (Q,E):
 ---------------
 A :33...43          ( 2.00    -0.3605)  ( 2.00    -0.3459)  ( 2.00    -0.3432)  ( 2.00    -0.3141)
                     ( 2.00    -0.3070)  ( 2.00    -0.3003)  ( 2.00    -0.2911)  ( 2.00    -0.2871)
                     ( 2.00    -0.2844)  ( 2.00    -0.2731)  ( 0.00    -0.2406)

 SCF CONVERGED

 CYCLE   27
 *** Setting up for NEW gradients in Focky
 *** Using FIT density in Focky
 orbitals (Q,E):
 ---------------
 A :33...52          ( 2.00    -0.3605)  ( 2.00    -0.3459)  ( 2.00    -0.3432)  ( 2.00    -0.3141)
                     ( 2.00    -0.3070)  ( 2.00    -0.3003)  ( 2.00    -0.2911)  ( 2.00    -0.2871)
                     ( 2.00    -0.2844)  ( 2.00    -0.2731)  ( 0.00    -0.2406)  ( 0.00    -0.2319)
                     ( 0.00    -0.2101)  ( 0.00    -0.1967)  ( 0.00    -0.1910)  ( 0.00    -0.1899)
                     ( 0.00    -0.1767)  ( 0.00    -0.1701)  ( 0.00    -0.1496)  ( 0.00    -0.0609)


 Fit test: (difference of exact and fit density, squared integrated, result summed over spins)
         SCF:                                          0.00018185813551

 Gross Charges per Atom (Z minus electrons)
 ==========================================
             0.2749    0.1812   -0.2849    0.2968   -0.2497    0.1913   -0.3440    0.2441   -0.3097
 Net Total:  0.00000000



 =================================================================
 M U L T I P O L E   D E R I V E D   C H A R G E   A N A L Y S I S
 =================================================================

 See: M. Swart, P.Th. van Duijnen, J.G. Snijders, J.Comput.Chem., (2001), p. 79-88.

 --------------------------------------- 
 Multipole derived atomic charges (a.u.)
 --------------------------------------- 

        Atom    Level:     MDC-m        MDC-d        MDC-q
 ---------------------------------------------------------
     1     Ni           0.786628     0.527787     0.071562
     2     C            0.148604     0.118433     0.209322
     3     O           -0.313409    -0.247231    -0.249862
     4     C            0.217261     0.054684     0.268124
     5     O           -0.196583    -0.046675    -0.140511
     6     C           -0.076231     0.028637     0.211935
     7     O           -0.331135    -0.264923    -0.297237
     8     C            0.046011    -0.007505     0.115001
     9     O           -0.281147    -0.163208    -0.188335
 *** Using NEW gradient routines ***


 Geometry CYCLE 2
 ==============

 Energy gradients wrt nuclear displacements
 ==========================================

     Atom      Cartesian (a.u./angstrom)
                 X         Y         Z
 ----------------------------------------
     1 Ni   -0.045626 -0.092071  0.133133
     2 C    -0.025719 -0.177453 -0.001948
     3 O     0.011013  0.228719  0.009010
     4 C    -0.358821  0.228096 -0.042562
     5 O     0.372494 -0.236853  0.042269
     6 C     0.234344  0.115516 -0.465794
     7 O    -0.159689 -0.049372  0.330730
     8 C     0.102455  0.214169  0.314264
     9 O    -0.130449 -0.230751 -0.319101
 ----------------------------------------

 dE(predicted):    -0.19072E+00, dE(actual):    -0.24770E+00, Trust radius:    1.200000, all in a.u.
 Max Cartesian displacement  0.588666717556354     
 Limit Cartesian step to   0.566917837497000     
 
----------------------------------------------------------------------
Geometry Convergence after Step   2       (Hartree/Angstrom,Angstrom)
----------------------------------------------------------------------
current energy                               -1.63321933 Hartree
energy change                      -0.24769962     0.00100000    F
constrained gradient max            0.46579443     0.00100000    F
constrained gradient rms            0.21447128     0.00066667    F
gradient max                        0.46579443
gradient rms                        0.21447128
cart. step max                      0.30001845     0.01000000    F
cart. step rms                      0.11375531     0.00666667    F
 


 Coordinates (Cartesian)
 =======================

     Atom                    bohr                                 angstrom                 Geometric Variables
                   X           Y           Z              X           Y           Z       (0:frozen, *:LT par.)
 --------------------------------------------------------------------------------------------------------------
     1 Ni     -0.205222   -1.872871   -2.801100      -0.108599   -0.991081   -1.482278      1       2       3
     2 C      -0.818441    2.522779   -2.311111      -0.433100    1.334997   -1.222987      4       5       6
     3 O      -0.672225    6.136997   -2.205452      -0.355726    3.247559   -1.167075      7       8       9
     4 C       4.760023   -4.241929   -2.707091       2.518896   -2.244732   -1.432531     10      11      12
     5 O       6.400671   -5.300435   -2.503460       3.387089   -2.804870   -1.324774     13      14      15
     6 C      -2.134792   -3.278564   -0.452064      -1.129683   -1.734941   -0.239222     16      17      18
     7 O      -3.264014   -3.696082    1.711093      -1.727242   -1.955882    0.905471     19      20      21
     8 C      -1.436943   -2.712908   -5.999140      -0.760398   -1.435609   -3.174608     22      23      24
     9 O      -2.173425   -4.015615   -7.694828      -1.150127   -2.124972   -4.071928     25      26      27
 --------------------------------------------------------------------------------------------------------------

 Number of elements of the density matrix on this node (used, total):     10465     21115



 ===========================================
 Numerical Integration : Fuzzy Cells (Becke)
 ===========================================
  
 Becke grid quality: NORMAL         
  
 Lebedev angular grid order:             min:  11 max:  23
 Nr. of radial points:                   min:  49 max:  73

 Total nr. of points:      61507
 Nr. of blocks:              481
 Block length:               128
 Nr. of dummy points:         61


 Test of Precision of the Numerical Integration Grid
 ===================================================

 Integral of the Total Core Density:                   0.00000000000000



 ========================
 Density Fitting (zlmFit)
[...]
 The net total charge in the cell (including the nuclear charge) is also given.

 Values are provided for
    a) the Initial (sum-of-fragments) density
    b) the Orthogonalized-Fragments density
    c) the SCF density
    d) the Voronoi Deformation Density (VDD): the difference SCF-Initial for the complete atomic cell


  Atom                Initial                    OrthFrag                   SCF
             Sphere RestCell NetTotal   Sphere RestCell NetTotal   Sphere RestCell NetTotal      VDD
 -----       ------------------------   ------------------------   ------------------------    -----
    1 Ni    -21.886   -5.547    0.568  -22.137   -5.287    0.576  -21.758   -5.513    0.729    0.161
    2 C      -2.270   -3.747   -0.017   -2.347   -3.616    0.037   -2.288   -3.679    0.033    0.049
    3 O      -3.317   -4.802   -0.119   -3.566   -4.608   -0.175   -3.349   -4.860   -0.209   -0.089
    4 C      -2.269   -3.756   -0.025   -2.347   -3.624    0.029   -2.288   -3.690    0.022    0.047
    5 O      -3.317   -4.796   -0.113   -3.567   -4.605   -0.172   -3.349   -4.851   -0.200   -0.087
    6 C      -2.270   -3.758   -0.028   -2.347   -3.624    0.029   -2.288   -3.693    0.019    0.047
    7 O      -3.317   -4.802   -0.118   -3.566   -4.609   -0.175   -3.348   -4.857   -0.205   -0.087
    8 C      -2.270   -3.755   -0.024   -2.347   -3.625    0.028   -2.288   -3.690    0.022    0.046
    9 O      -3.317   -4.806   -0.123   -3.566   -4.612   -0.178   -3.348   -4.862   -0.211   -0.088
 ---------------------------------------------------------------------------------------------------
 Total NetCharge:               0.000                      0.000                      0.000    0.000
 (accuracy NumInt/Tails)

 Remark: the 'NetTotal' Voronoi charges often do not match the Mulliken and/or Hirshfeld charges very
 well. This is caused by the fact that chemically different atoms are not treated in accordance with
 their relative sizes. (Voronoi cells are defined by boundary planes halfway between the atoms.)
 However, the CHANGES in charge, comparing 'Initial' to 'SCF' for instance, do give a fair indication
 of the flow of charge caused by the relaxation from sum-of-fragments to self-consistency.

 Warning: the absolute accuracy of the VDD charges obtained using the Fuzzy Cells (Becke) integration
 scheme is much poorer than the one obtained with an 'equivalent' Voronoi integration grid. 



 =================================================================
 M U L T I P O L E   D E R I V E D   C H A R G E   A N A L Y S I S
 =================================================================

 This charge analysis uses the atomic multipoles (obtained from the fitted density) up to some level X,
 and reconstructs these multipoles exactly (up to level X) by distributing charges over all atoms.
 This is achieved by using Lagrange multipliers and a weight function to keep the multipoles local.

 Dummy atoms can be included (by setting INCDUM in MDC-block to 1) to obtain a fractional charge.
 This is generally useful and necessary only for small symmetrical molecules, when there are not
 enough degrees of freedom to reconstruct the multipoles.

 Since the atomic multipoles are reconstructed up to level X,
 the molecular multipoles are represented also up to level X.
 The recommended level is to reconstruct up to quadrupole : -> MDC-q charges.

 See: M. Swart, P.Th. van Duijnen, J.G. Snijders, J.Comput.Chem., (2001), p. 79-88.

 ------------------------------------------------------------- 
 Atomic electronic multipole moments from SCF equations (a.u.)
 ------------------------------------------------------------- 

   atom        charge        dip-x     dip-y     dip-z      quad-xx   quad-xy   quad-xz   quad-yy   quad-yz   quad-zz
 --------------------------------------------------------------------------------------------------------------------
    1 Ni     0.722974    -0.001991  0.005807  0.004132     0.020029 -0.002917  0.003401 -0.018271  0.018371 -0.001758
    2 C     -0.015798    -0.004732  0.579284  0.044366    -0.204526  0.003112 -0.002011  0.409711  0.020887 -0.205185
    3 O     -0.164731     0.001763 -0.234378 -0.017033    -0.282460 -0.004168 -0.000657  0.560699  0.040205 -0.278239
    4 C     -0.016711     0.548157 -0.193154  0.048952     0.339778 -0.134147  0.027213 -0.135071 -0.007631 -0.204706
    5 O     -0.164830    -0.220588  0.077470 -0.020228     0.466337 -0.175237  0.045835 -0.190129 -0.015924 -0.276208
    6 C     -0.014425    -0.325880 -0.193827  0.443016    -0.023157  0.081468 -0.167070 -0.120403 -0.109862  0.143559
    7 O     -0.164521     0.131177  0.077669 -0.178236    -0.017419  0.104562 -0.240001 -0.189053 -0.141562  0.206472
    8 C     -0.016949    -0.244021 -0.166766 -0.502956    -0.104878  0.048076  0.144535 -0.158543  0.105174  0.263421
    9 O     -0.165009     0.098190  0.067604  0.202299    -0.134028  0.068212  0.203378 -0.212377  0.140587  0.346405

 --------------------------------------- 
 Multipole derived atomic charges (a.u.)
 --------------------------------------- 

 The MDC-m charges are just the Monopole terms in the multipole expansion, while for the MDC-d charges
 also the Dipoles are reconstructed. The usually preferred charges are the MDC-q charges.
 These reconstruct the Monopoles, Dipoles and Quadrupoles (both atomic AND molecular).

        Atom    Level:     MDC-m        MDC-d        MDC-q
 ---------------------------------------------------------
     1     Ni           0.722974     0.410981     1.168872
     2     C           -0.015798    -0.008302    -0.305446
     3     O           -0.164731    -0.092131    -0.010718
     4     C           -0.016711    -0.013378    -0.290458
     5     O           -0.164830    -0.091810    -0.019196
     6     C           -0.014425    -0.009330    -0.205748
     7     O           -0.164521    -0.090615    -0.056972
     8     C           -0.016949    -0.013229    -0.231344
     9     O           -0.165009    -0.092186    -0.048990

 ------------------------------------------------ 
 Average absolute deviations in atomic multipoles
 ------------------------------------------------ 

 Stated here are the average differences between the atomic multipoles
 and the reconstructed atomic multipoles (from the distributed charges).
 If these values are not zero, this means there are not enough degrees of freedom,
 to be able to reconstruct the atomic multipoles. (This usually happens only
 for small and/or highly symmetric molecules). If this is the case, one could add
 dummy atoms as extra point charges (and setting INCDUM in MDC-block to 1).

 Level:                                 MDC-d        MDC-q
 ---------------------------------------------------------
 Charge   (a.u.)                       0.0000       0.0000
 Dipole   (Debye)                      0.0000       0.0124
 Quad.    (a.u.)                       0.0613       0.0002

 --------------------------------------- 
 Represented molecular multipole moments
 --------------------------------------- 

 Given here are the Molecular multipole moments from the atomic charges, and from the Fit Density.
 Note that the atomic charges represent the latter, NOT the ones from the Exact density.

            Q (a.u.)             Dipole moment (Debye)                                          Quadrupole moment (a.u.)
                                 x         y         z              xx        xy        xz        yy        yz        zz
------------------------------------------------------------------------------------------------------------------------
MDC-m         0.0000        0.0565   -0.0652   -0.0658         -0.3092    0.0098   -0.1882    0.2116   -0.0450    0.0976
MDC-d         0.0000        0.0110   -0.0151   -0.0040         -0.1468    0.0481   -0.1150    0.1494   -0.1220   -0.0027
MDC-q         0.0000       -0.0998   -0.1651    0.0010         -0.2084    0.0471    0.1289    0.5856    0.1425   -0.3772
 
Fit.Dens.     0.0000        0.0110   -0.0151   -0.0040         -0.1025    0.0326   -0.0887    0.0965   -0.0992    0.0060



 =============
 Dipole Moment  ***  (Debye)  ***
 =============
  
 Vector   :         0.00356239     -0.01424679      0.00038196
 Magnitude:         0.01469039

 This molecular dipole moment is calculated with analytic integration



 =========================================
 Quadrupole Moment (Buckingham convention)  ***  (a.u.)  ***
 =========================================
  
      quad-xx        quad-xy        quad-xz        quad-yy        quad-yz        quad-zz
     -0.09909675     0.02781052    -0.06223419     0.10537998    -0.07998367    -0.00628323

 This molecular quadrupole moment is calculated with analytic integration
1



 ===========================
 B O N D I N G   E N E R G Y  ***  (decomposition)  ***
 ===========================
  
*** IMPORTANT NOTE ***

The bond energy is computed as an energy difference between molecule and
fragments. In particular when the fragments are single atoms, they are usually
computed as SPHERICALLY SYMMETRIC and SPIN-RESTRICTED. Obviously, this usually
does NOT represent the true atomic groundstate.

To obtain the 'real' bond energy, (atomic) correction terms must be applied
for the true (multiplet) fragment ground state. See ref: E.J.Baerends,
V.Branchadell, M.Sodupe, Chem.Phys.Lett.265 (1997) 481

General theoretical background on the bond energy decomposition scheme used
here (Morokuma-Ziegler) can be found in the review paper:
F.M. Bickelhaupt and E.J. Baerends,
"Kohn-Sham Density Functional Theory: Predicting and Understanding Chemistry"
In: Rev. Comput. Chem.; Lipkowitz, K. B. and Boyd, D. B., Eds.;
Wiley-VCH: New York, 2000, Vol. 15, 1-86.

Symbols used in the Bickelhaupt-Baerends (BB) paper are given below to make
the direct connection to that paper, where detailed explanations can be found
on the meaning of the various terms.


                                                   hartree              eV         kcal/mol           kJ/mol
                                      --------------------     -----------       ----------      -----------

Pauli Repulsion
  Kinetic (Delta T^0):                  29.939716147282667        814.7011         18787.46         78606.71
  Delta V^Pauli Coulomb:               -17.060253645572981       -464.2331        -10705.47        -44791.69
  Delta V^Pauli LDA-XC:                 -3.194456250408140        -86.9256         -2004.55         -8387.04
  Delta V^Pauli GGA-Exchange:            0.201808485666131          5.4915           126.64           529.85
  Delta V^Pauli GGA-Correlation:        -0.206451637434869         -5.6178          -129.55          -542.04
                                      --------------------     -----------       ----------      -----------
  Total Pauli Repulsion:                 9.680363099532808        263.4161          6074.52         25415.79
 (Total Pauli Repulsion =
  Delta E^Pauli in BB paper)

Steric Interaction
  Pauli Repulsion (Delta E^Pauli):       9.680363099532808        263.4161          6074.52         25415.79
  Electrostatic Interaction:            -2.240971337672396        -60.9799         -1406.23         -5883.67
 (Electrostatic Interaction =
  Delta V_elstat in the BB paper)
                                      --------------------     -----------       ----------      -----------
  Total Steric Interaction:              7.439391761860413        202.4361          4668.29         19532.12
 (Total Steric Interaction =
  Delta E^0 in the BB paper)

Orbital Interactions
  A:                                    -9.801177037749197       -266.7036         -6150.33        -25732.99
                                      --------------------     -----------       ----------      -----------
  Total Orbital Interactions:           -9.804423168595473       -266.7919         -6152.37        -25741.51

Alternative Decomposition Orb.Int.
  Kinetic:                             -27.658381846856383       -752.6229        -17355.90        -72617.07
  Coulomb:                              16.386296833858221        445.8938         10282.56         43022.22
  XC:                                    1.467661844402687         39.9371           920.97          3853.35
                                      --------------------     -----------       ----------      -----------
  Total Orbital Interactions:           -9.804423168595473       -266.7919         -6152.37        -25741.51

  Residu (E=Steric+OrbInt+Res):         -0.000139661660276         -0.0038            -0.09            -0.37
  Dispersion Energy:                    -0.006053498525089         -0.1647            -3.80           -15.89

Total Bonding Energy:                   -2.371224566920426        -64.5243         -1487.97         -6225.65


Summary of Bonding Energy (energy terms are taken from the energy decomposition above)
======================================================================================

  Electrostatic Energy:                 -2.240971337672396        -60.9799         -1406.23         -5883.67
  Kinetic Energy:                        2.281334300426284         62.0783          1431.56          5989.64
  Coulomb (Steric+OrbInt) Energy:       -0.674096473375037        -18.3431          -423.00         -1769.84
  XC Energy:                            -1.731437557774191        -47.1148         -1086.49         -4545.89
  Dispersion Energy:                    -0.006053498525089         -0.1647            -3.80           -15.89
                                      --------------------     -----------       ----------      -----------
  Total Bonding Energy:                 -2.371224566920429        -64.5243         -1487.97         -6225.65


Correction terms (incorporated in energies above; only for test purposes):

1. Indication of fit-quality: 1st-order fit-correction used in the energy (hartree):   0.0003595462
2. Electrostatic (Fit correction):   0.0000000000



 =========================================
 F R A G M E N T   E N E R G Y   T E R M S  ***  (summed over all fragments)  ***
 =========================================
  

The energy terms below are (parts of) the Total Energy of the fragments from which the molecule
 is built.

Exchange and Correlation
  Exchange LDA:                       -104.547740227000048      -2844.8888        -65604.70       -274490.05
  Exchange GGA:                         -9.476042193449775       -257.8562         -5946.31        -24879.35
  Correlation LDA:                       0.000000000000000          0.0000             0.00             0.00
  Correlation GGA:                      -3.115414995949087        -84.7748         -1954.95         -8179.52
                                      --------------------     -----------       ----------      -----------
  Total XC:                           -117.139197416398900      -3187.5197        -73505.96       -307548.92



 =======================================================================
 Electrostatic potential at the Nuclei due to electrons and other nuclei
 =======================================================================
  
         Atom                  Potential
         ----                  ---------
     1)   Ni                128.63023181
     2)   C                  14.66701542
     3)   O                  22.27085695
     4)   C                  14.66734804
     5)   O                  22.27082856
     6)   C                  14.66678156
     7)   O                  22.27021601
     8)   C                  14.66746244
     9)   O                  22.27100856
 
 
 ========================
 No memory problems found
 ========================
 
 Maximum number of active allocate calls:        1548
 
 *******************************************************************************

                             A D F   E X I T
 NORMAL TERMINATION



 =================
 Timing Statistics
 =================
  
 Total Used :                     CPU=      951.67      System=      113.52     Elapsed=     1145.88

 Calls  Section                     ( Mean, Percentage )
 ---------------------------------------------------------------------------------------------------
     3  ><      ................      0.01    0.00             0.01    0.01             0.01    0.00
     1  INIT    ................      0.53    0.06             0.03    0.03             2.13    0.19
     1  GEOMET  ................      0.11    0.01             0.09    0.08             0.44    0.04
     1  FRAGM   ................      0.05    0.00             0.03    0.03             0.14    0.01
     1  INPUTA  ................      0.00    0.00             0.00    0.00             0.00    0.00
     1  ATDEN   ................      0.02    0.00             0.02    0.01             0.04    0.00
    33  MAINSY  ................      0.10    0.36             0.05    1.60             0.39    1.11
    33  SYMFIT  ................      0.01    0.02             0.00    0.01             0.01    0.02
    33  CORORT  ................      0.00    0.01             0.00    0.08             0.01    0.04
    33  SYMORB  ................      0.00    0.02             0.00    0.08             0.02    0.06
    33  CLSMAT  ................      0.03    0.09             0.00    0.08             0.04    0.12
    33  ORTHON  ................      0.03    0.11             0.02    0.47             0.06    0.19
    33  GENPT   ................      0.19    0.65             0.03    0.88             0.24    0.70
    33  PTBAS   ................      0.42    1.45             0.02    0.54             0.46    1.34
   547  FOCKY   ................      1.38   79.56             0.12   60.03             1.60   76.36
   547  FOCKTR  ................      0.01    0.39             0.01    2.68             0.01    0.61
   547  SDIIS   ................      0.01    0.55             0.01    2.49             0.03    1.22
    33  TOTEN   ................      2.82    9.77             0.43   12.54             3.43    9.88
    33  POPAN   ................      0.01    0.03             0.00    0.12             0.03    0.08
    33  DEBYE   ................      0.05    0.16             0.01    0.21             0.07    0.19
    33  INPUTE  ................      0.00    0.00             0.00    0.01             0.00    0.00
    33  SYMORE  ................      0.00    0.01             0.00    0.01             0.00    0.01
    65  ELNRGY  ................      0.97    6.61             0.31   17.74             1.35    7.63
    32  ENGRAD  ................      0.00    0.01             0.00    0.06             0.01    0.01
     1  COREPS  ................      1.09    0.11             0.14    0.12             1.30    0.11
     1  METS    ................      0.00    0.00             0.00    0.00             0.02    0.00
     1  CETS    ................      0.00    0.00             0.03    0.03             0.03    0.00
     1  POPUL   ................      0.05    0.00             0.00    0.00             0.05    0.00
     1  EXIT PROCEDURE .........      0.03    0.00             0.05    0.04             0.65    0.06


 Currently Open Files (EXIT00)
 ====================

 Unit    Access Format  Status   Type       Ident (file)
 -------------------------------------------------------
   3      SEQ    FORM   TRANSP  NORMAL      LOGFILE
                                          ( C:/Users/Gebruiker/OneDrive/Master/Advanced_Comp_Chemistry/Exercise_3/NiCO4.logfile )


 Buffered I/O statistics
 =======================
 Memory available:                     67108864
 Number of records fitting in memory:     16131
 Input :   0.0% of                      4678448  *4k bytes
 Output:   3.8% of                       515375  *4k bytes
 Records from serial files evicted:           0
                    others evicted:           0
 Hash table lookups:   13327016 with    1713918 conflicts ( 12.86%)
