
Create B   file=TZ2P-B
XC
  GGA blyp
End
End Input

 *******************************************************************************
 *                                                                             *
 *  -------------------------------------                                      *
 *   Amsterdam Density Functional  (ADF)         2017                          *
 *  -------------------------------------                                      *
 *                                               r58813 2017-04-12             *
 *                                                                             *
 *                                                                             *
 *                              =================                              *
 *                              |               |                              *
 *                              |     A D F     |                              *
 *                              |               |                              *
 *                              =================                              *
 *                                                                             *
 *                                                                             *
 *   Online information and documentation:  https://www.scm.com/support/       *
 *   E-mail:  support@scm.com   info@scm.com                                   *
 *                                                                             *
 *   Scientific publications using ADF results must be properly referenced     *
 *   See the User Manuals (or the web site) for recommended citations          *
 *   The terms and conditions of the End User License Agreement apply to       *
 *   the use of ADF, https://www.scm.com/license-terms/                        *
 *                                                                             *
 **********************  x86_64_linux_intel / intelmpi  ************************
 
 Licensed to: VU/FEW (+ SARA) / ALGEMEEN / Amsterdam / THE NETHERLANDS
 SCM User ID: u7668
  
 ADF 2017  RunTime: May18-2019 15:56:48  Nodes: 1  Procs: 1

 Temporary files are created in /local/datastore0/tcst25/190687/kid_0.pBg56f

 Boron (TZ2P)



 ===========================
 A T T A C H E D   F I L E S
 ===========================
  
 CREATE - Data File:    TZ2P-B
                        Boron (TZ2P)



 ===============================
 M O D E L   P A R A M E T E R S
 ===============================
  
 DENSITY FUNCTIONAL POTENTIAL (scf)
    LDA:                               Exchange only                           == Not Default ==
    Gradient Corrections:              Becke88 LYP                             == Not Default ==

 SPIN  (restricted / unrestr.)
    Molecule:                          Restricted                               

 OTHER ASPECTS
    Relativistic Corrections:          ---                                      

    Nuclear Charge Density Model:      Point Charge Nuclei                      
    Core Treatment:                    Frozen Orbital(s)                        

    Hyperfine or Zeeman Interaction:   ---                                      



 =====================================
 S Y M M E T R Y ,   E L E C T R O N S
 =====================================
  
 Symmetry: ATOM

 Irreducible Representations, including subspecies
 -------------------------------------------------
 S
 P:x  P:y  P:z
 D:z2  D:x2-y2  D:xy  D:xz  D:yz
 F:z3  F:z  F:xyz  F:z2x  F:z2y  F:x  F:y


 Configuration of Valence Electrons
 ==================================

          Occupation Numbers
          -------------------------------------------------
 S        2*2
 P        1
 D        0
 F        0
          -------------------------------------------------

 Total:   5

 Net Charge: 0 (Nuclei minus Electrons)

 Preset values for MO occupations will be applied through SCF cycle no. 1000000
 Thereafter, the program will assign electrons to MOs that are spatially
 similar to the occupied MOs in a "reference" cycle ("KeepOrbitals").
 The reference cycle is always the PREVIOUS cycle: it will evolve with
 the SCF procedure.



 ================================
 (Slater-type)  F U N C T I O N S  ***  (Basis and Fit)  ***
 ================================
  

 Atom Type    1  (B)
 ==============

 Valence Basis Sets:  10
 -----------------------
   1 S    6.500000
   1 S    4.080000
   2 S    2.800000
   2 S    1.700000
   2 S    1.040000
   2 P    2.600000
   2 P    1.260000
   2 P    0.680000
   3 D    2.000000
   4 F    3.000000


 BAS: List of all Elementary Cartesian Basis Functions
 =====================================================

 The numbering in the list below (to the right of the function characteristics) is referred
 to in print-outs of MO eigenvectors and Mulliken populations in the BAS representation
 (as contrasted to the SFO representation).

 Notes:
 1. The functions are characterized by a polynomial prefactor (powers of x,y,z and r) and
    an exponential decay factor alpha.
 2. Since the basis sets are specific for an atom TYPE, the individual functions occur on
    all atoms of that type.
 3. The word 'Core' in the left margin signals that it is a Core Function (CF) : not a
    degree of freedom in the valence set, but only used to ensure orthogonalization of
    the other valence basis functions on the frozen Core Orbitals.


 (power of) X  Y  Z  R     Alpha  on Atom
            ==========     =====     ==========

 B                                    1
                                  ---------------------------------------------------------------------------
            0  0  0  0     6.500      1
            0  0  0  0     4.080      2
            0  0  0  1     2.800      3
            0  0  0  1     1.700      4
            0  0  0  1     1.040      5
            1  0  0  0     2.600      6
            0  1  0  0     2.600      7
            0  0  1  0     2.600      8
            1  0  0  0     1.260      9
            0  1  0  0     1.260     10
            0  0  1  0     1.260     11
            1  0  0  0     0.680     12
            0  1  0  0     0.680     13
            0  0  1  0     0.680     14
            2  0  0  0     2.000     15
            1  1  0  0     2.000     16
            1  0  1  0     2.000     17
            0  2  0  0     2.000     18
            0  1  1  0     2.000     19
            0  0  2  0     2.000     20
            3  0  0  0     3.000     21
            2  1  0  0     3.000     22
            2  0  1  0     3.000     23
            1  2  0  0     3.000     24
            1  1  1  0     3.000     25
            1  0  2  0     3.000     26
            0  3  0  0     3.000     27
            0  2  1  0     3.000     28
            0  1  2  0     3.000     29
            0  0  3  0     3.000     30

 Total number of charge fitting functions (nprimf)        84
 Total number of Cartesian basis functions (naos)         30
 Total number of Cartesian core functions  (ncos)          0



 BAS: List of all Elementary Cartesian Basis Functions
 =====================================================

 The numbering in the list below (to the right of the function characteristics) is referred
 to in print-outs of MO eigenvectors and Mulliken populations in the BAS representation
 (as contrasted to the SFO representation).

 Notes:
 1. The functions are characterized by a polynomial prefactor (powers of x,y,z and r) and
    an exponential decay factor alpha.
 2. Since the basis sets are specific for an atom TYPE, the individual functions occur on
    all atoms of that type.
 3. The word 'Core' in the left margin signals that it is a Core Function (CF) : not a
    degree of freedom in the valence set, but only used to ensure orthogonalization of
    the other valence basis functions on the frozen Core Orbitals.


 (power of) X  Y  Z  R     Alpha  on Atom
            ==========     =====     ==========

 B                                    1
                                  ---------------------------------------------------------------------------
            0  0  0  0     6.500      1
            0  0  0  0     4.080      2
            0  0  0  1     2.800      3
            0  0  0  1     1.700      4
            0  0  0  1     1.040      5
            1  0  0  0     2.600      6
            0  1  0  0     2.600      7
            0  0  1  0     2.600      8
            1  0  0  0     1.260      9
            0  1  0  0     1.260     10
            0  0  1  0     1.260     11
            1  0  0  0     0.680     12
            0  1  0  0     0.680     13
            0  0  1  0     0.680     14
            2  0  0  0     2.000     15
            1  1  0  0     2.000     16
            1  0  1  0     2.000     17
            0  2  0  0     2.000     18
            0  1  1  0     2.000     19
            0  0  2  0     2.000     20
            3  0  0  0     3.000     21
            2  1  0  0     3.000     22
            2  0  1  0     3.000     23
            1  2  0  0     3.000     24
            1  1  1  0     3.000     25
            1  0  2  0     3.000     26
            0  3  0  0     3.000     27
            0  2  1  0     3.000     28
            0  1  2  0     3.000     29
            0  0  3  0     3.000     30
1
 ***************************************************************************************************



                                              ***********************
                                              *  T E C H N I C A L  *
                                              ***********************
  



 =============================================================
 P A R A L L E L I Z A T I O N  and  V E C T O R I Z A T I O N
 =============================================================
  
 Nr of parallel processes:                                1
 Maximum vector length in NumInt loops:                 128

 IO buffersize (Mb):                                     64.000000



 =====================
 S C F   U P D A T E S
 =====================
  
 Max. nr. of cycles:                               300
 Convergence criterion:                              0.0000000100
   secondary criterion:                              0.0000000100

 Mix parameter (when DIIS does not apply):           0.2000000000
 Special mix parameter for the first cycle:          1.0000000000
 Mixed ADIIS+DIIS will be used
    Max number of expansion vectors:                10
    Pure ADIIS when Max([F,P]) is above              0.1000000000
    Pure DIIS when Max([F,P]) is below               0.0010000000
 Automatic ElectronSmearing (in case of problematic SCF convergence) disabled



 =================
 P R E C I S I O N  ***  (General: NumInt, NeglectFunctionTails, ...)  ***
 =================
  

 NumInt:           Target precision:                12.0000000000
 -------           Initial precision:               10.0000000000
                   Min. precision (optimization):   10.0000000000

 Neglect Functions:          Basis functions:        0.1000000000E-13
 ------------------          Fit functions:          0.1000000000E-13



 ===========================
 L I N E A R   S C A L I N G
 ===========================
  

 Cut-off radii density fit:                        0.1000000000E-97
 Overlap cut-off criterion AO matrix elements:     0.1000000000E-97
 Cut-offs for Coulomb potential and fitted density:0.1000000000E-97
 Cut-off criterion for Coulomb multipole terms:    0.1000000000E-97
 Progressive Convergence parameter:                 0.000000000    
1
 ***************************************************************************************************



                                            ***************************
                                            *  C O M P U T A T I O N  *
                                            ***************************
  

 Number of elements of the density matrix on this node (used, total):       465       465



 ===========================================
 Numerical Integration : Fuzzy Cells (Becke)
 ===========================================
  
 Becke grid quality: VERYGOOD       
  
 Lebedev angular grid order:             min:  13 max:  41
 Nr. of radial points:                   min:  76 max:  76

 Total nr. of points:         76
 Nr. of blocks:                1
 Block length:                76
 Nr. of dummy points:          0


 Test of Precision of the Numerical Integration Grid
 ===================================================

 Integral of the Total Core Density:                   0.00000000000000



 ========================
 Density Fitting (zlmFit)
 ========================
  
 ZlmFit Fit Quality: VERYGOOD       
  
 Max L-expansion:                        min:   0 max:   0
 Nr. of radial interpolation points:     min: 160 max: 160



 =====
 S C F  ***  ScaSCF  ***
 =====
  

 CYCLE    1
 SCF Error: norm([F,P])=      0.000000000000, max([F,P])=      0.000000000000
 orbitals (Q,E):
 ---------------
 S :1...5            ( 2.00   -12.4973)  ( 2.00    -3.1204)  ( 0.00    -1.3604)  ( 0.00    -0.2943)
                     ( 0.00    21.5464)
 P :1...3            ( 1.00    -3.1235)  ( 0.00    -1.3596)  ( 0.00    -0.7394)
 D :1...1            ( 0.00    -1.3333)
 F :1...1            ( 0.00     0.7500)

 CYCLE    2
  SDIIS (wt  0.000):  1.0000 -0.0000
 A-DIIS (wt  1.000):  0.0000  1.0000
  DIIS coefficients:  0.0000  1.0000
 SCF Error: norm([F,P])=      3.201330977607, max([F,P])=      2.031081303225
 orbitals (Q,E):
 ---------------
 S :1...3            ( 2.00    -5.1485)  ( 2.00    -0.0523)  ( 0.00     0.4686)
 P :1...2            ( 1.00     0.0666)  ( 0.00     0.4019)
 D :1...1            ( 0.00     1.4190)
 F :1...1            ( 0.00     3.7944)

 CYCLE    3
  SDIIS (wt  0.000):  0.2042  0.7958
 A-DIIS (wt  1.000):  0.0000  1.0000
  DIIS coefficients:  0.0000  1.0000
 SCF Error: norm([F,P])=      1.059647529898, max([F,P])=      0.903801365934
 orbitals (Q,E):
 ---------------
 S :1...3            ( 2.00    -7.3819)  ( 2.00    -0.6247)  ( 0.00     0.0523)
 P :1...2            ( 1.00    -0.4098)  ( 0.00     0.0156)
 D :1...1            ( 0.00     0.7591)
 F :1...1            ( 0.00     3.0307)

 CYCLE    4
  SDIIS (wt  0.000): -0.0657  0.2250  0.8407
 A-DIIS (wt  1.000):  0.0000  0.0783  0.9217
  DIIS coefficients:  0.0000  0.0783  0.9217
 SCF Error: norm([F,P])=      0.493931505683, max([F,P])=      0.425225417034
 orbitals (Q,E):
 ---------------
 S :1...3            ( 2.00    -6.3769)  ( 2.00    -0.2569)  ( 0.00     0.2543)
 P :1...2            ( 1.00    -0.0589)  ( 0.00     0.1767)
 D :1...1            ( 0.00     1.1356)
 F :1...1            ( 0.00     3.4562)

 CYCLE    5
  SDIIS (wt  0.000): -0.0197 -0.0259  0.3434  0.7023
 A-DIIS (wt  1.000):  0.0000  0.0000  0.0563  0.9437
  DIIS coefficients:  0.0000  0.0000  0.0563  0.9437
 SCF Error: norm([F,P])=      0.206029166069, max([F,P])=      0.185718658653
 orbitals (Q,E):
 ---------------
 S :1...3            ( 2.00    -6.8031)  ( 2.00    -0.4013)  ( 0.00     0.1657)
 P :1...2            ( 1.00    -0.1851)  ( 0.00     0.0945)
 D :1...1            ( 0.00     0.9783)
 F :1...1            ( 0.00     3.2760)

 CYCLE    6
  SDIIS (wt  0.040):  0.0020 -0.0191 -0.0724  0.3380  0.7516
 A-DIIS (wt  0.960):  0.0000  0.0000  0.0000  0.1279  0.8721
  DIIS coefficients:  0.0001 -0.0008 -0.0029  0.1364  0.8673
 SCF Error: norm([F,P])=      0.108666236307, max([F,P])=      0.095999235340
 orbitals (Q,E):
 ---------------
 S :1...3            ( 2.00    -6.5936)  ( 2.00    -0.3211)  ( 0.00     0.2123)
 P :1...2            ( 1.00    -0.1117)  ( 0.00     0.1342)
 D :1...1            ( 0.00     1.0635)
 F :1...1            ( 0.00     3.3726)

 CYCLE    7
  SDIIS (wt  0.623):  0.0001  0.0010 -0.0101 -0.0760  0.2420  0.8431
 A-DIIS (wt  0.377):  0.0000  0.0000  0.0000  0.0000  0.0000  1.0000
  DIIS coefficients:  0.0000  0.0006 -0.0063 -0.0474  0.1508  0.9022
 SCF Error: norm([F,P])=      0.042990228412, max([F,P])=      0.038286426173
 orbitals (Q,E):
 ---------------
 S :1...3            ( 2.00    -6.6663)  ( 2.00    -0.3474)  ( 0.00     0.1965)
 P :1...2            ( 1.00    -0.1351)  ( 0.00     0.1199)
 D :1...1            ( 0.00     1.0351)
 F :1...1            ( 0.00     3.3402)

 CYCLE    8
  SDIIS (wt  0.913): -0.0000 -0.0002  0.0019  0.0064 -0.0593  0.0854  0.9659
 A-DIIS (wt  0.087):  0.0000  0.0000  0.0000  0.0000  0.0000  0.0000  1.0000
  DIIS coefficients: -0.0000 -0.0001  0.0017  0.0058 -0.0542  0.0780  0.9688
 SCF Error: norm([F,P])=      0.010787888157, max([F,P])=      0.009564971828
 orbitals (Q,E):
 ---------------
 S :1...3            ( 2.00    -6.6507)  ( 2.00    -0.3415)  ( 0.00     0.2000)
 P :1...2            ( 1.00    -0.1298)  ( 0.00     0.1229)
 D :1...1            ( 0.00     1.0414)
 F :1...1            ( 0.00     3.3473)

 CYCLE    9
  SDIIS (wt  1.000):  0.0000 -0.0000 -0.0001  0.0003  0.0011 -0.0072  0.0264  0.9795
  DIIS coefficients:  0.0000 -0.0000 -0.0001  0.0003  0.0011 -0.0072  0.0264  0.9795
 SCF Error: norm([F,P])=      0.000636740363, max([F,P])=      0.000564218321
 orbitals (Q,E):
 ---------------
 S :1...3            ( 2.00    -6.6516)  ( 2.00    -0.3418)  ( 0.00     0.1998)
 P :1...2            ( 1.00    -0.1301)  ( 0.00     0.1227)
 D :1...1            ( 0.00     1.0410)
 F :1...1            ( 0.00     3.3469)

 CYCLE   10
  SDIIS (wt  1.000):  0.0000 -0.0000 -0.0000  0.0000 -0.0001 -0.0014 -0.0132  1.0146
  DIIS coefficients:  0.0000 -0.0000 -0.0000  0.0000 -0.0001 -0.0014 -0.0132  1.0146
 SCF Error: norm([F,P])=      0.000000069414, max([F,P])=      0.000000045677
 orbitals (Q,E):
 ---------------
 S :1...3            ( 2.00    -6.6516)  ( 2.00    -0.3418)  ( 0.00     0.1998)
 P :1...2            ( 1.00    -0.1301)  ( 0.00     0.1227)
 D :1...1            ( 0.00     1.0410)
 F :1...1            ( 0.00     3.3469)

 CYCLE   11
  SDIIS (wt  1.000):  0.0000  0.0001 -0.0087  1.0086
  DIIS coefficients:  0.0000  0.0001 -0.0087  1.0086
 SCF Error: norm([F,P])=      0.000000001536, max([F,P])=      0.000000001320
 orbitals (Q,E):
 ---------------
 S :1...3            ( 2.00    -6.6516)  ( 2.00    -0.3418)  ( 0.00     0.1998)
 P :1...2            ( 1.00    -0.1301)  ( 0.00     0.1227)
 D :1...1            ( 0.00     1.0410)
 F :1...1            ( 0.00     3.3469)

 SCF CONVERGED

 CYCLE   12
1
 ***************************************************************************************************



                                                *******************
                                                *  R E S U L T S  *
                                                *******************
  
 *** Setting up for NEW gradients in Focky
 *** Using FIT density in Focky

 Orbital Energies, per Irrep and Spin:
 ======================================
                        Occup              E (au)              E (eV)       Diff (eV) with prev. cycle
                        -----      --------------------        ------       --------------------------
 S
               1        2.000     -0.66515687214051E+01      -180.998              -1.01E-09
               2        2.000     -0.34181662617275E+00        -9.301              -3.46E-10
               3        0.000      0.19978908653882E+00         5.437
               4        0.000      0.25678398584364E+01        69.874
               5        0.000      0.26802831021785E+02       729.342
 P
               1        1.000     -0.13007918804391E+00        -3.540              -3.34E-10
               2        0.000      0.12274275416038E+00         3.340
               3        0.000      0.16610041333254E+01        45.198
 D
               1        0.000      0.10410256852691E+01        28.328
 F
               1        0.000      0.33469463509924E+01        91.075


 Partially Occupied:
               1 P                -0.13007918804391E+00
  
 HOMO :        2 S                -0.34181662617275E+00
 LUMO :        2 P                 0.12274275416038E+00
  


 Orbital Energies, all Irreps
 ========================================

 Irrep        no.  (spin)   Occup              E (au)                E (eV)
 ---------------------------------------------------------------------------
 S             1             2.00       -0.66515687214051E+01      -180.9984
 S             2             2.00       -0.34181662617275E+00        -9.3013
 P             1             1.00       -0.13007918804391E+00        -3.5396
 P             2             0.00        0.12274275416038E+00         3.3400
 S             3             0.00        0.19978908653882E+00         5.4365
 D             1             0.00        0.10410256852691E+01        28.3278
 P             3             0.00        0.16610041333254E+01        45.1982
 S             4             0.00        0.25678398584364E+01        69.8745
 F             1             0.00        0.33469463509924E+01        91.0750
 S             5             0.00        0.26802831021785E+02       729.3421


 All Electron Calculation, thus no Orbital Energies of the Core Orbitals are calculated



 =======================================
 M U L L I K E N   P O P U L A T I O N S
 =======================================
  
 The survey below gives for each atom:
 a) the total charge (Z minus electrons)
 b) the net spin polarization (nr of electrons spin-A minus spin-B)
 c) for each spin the atomic electron valence density (integrated) per L-value.

 Atom              Charge    Spin density          S         P         D         F
 ----              ------    ------------       ------    ------    ------    ------
 1 B               0.0000                       4.0000    1.0000    0.0000    0.0000

 Populations of individual BAS functions
 ----------------------------------------
 1 B            0.4768  1.5152 -0.1012  1.1788  0.9304  0.0321  0.0321  0.0321  0.1894  0.1894
                0.1894  0.1119  0.1119  0.1119  0.0000  0.0000  0.0000  0.0000  0.0000  0.0000
                0.0000  0.0000  0.0000  0.0000  0.0000  0.0000  0.0000  0.0000  0.0000  0.0000

 Gross Charges per Atom (Z minus electrons)
 ==========================================
             0.0000
 Net Total:  0.00000000



 =======================================================================
 Electrostatic potential at the Nuclei due to electrons and other nuclei
 =======================================================================
  
         Atom                  Potential
         ----                  ---------
     1)   B                  11.38333432
 
 
 ========================
 No memory problems found
 ========================
 
 Maximum number of active allocate calls:         447
 
 *******************************************************************************

                             A D F   E X I T
 NORMAL TERMINATION



 =================
 Timing Statistics
 =================
  
 Total Used :                     CPU=        0.70      System=        0.04     Elapsed=        0.74

 Calls  Section                     ( Mean, Percentage )
 ---------------------------------------------------------------------------------------------------
     3  ><      ................      0.00    0.14             0.00    0.00             0.00    0.11
     1  INIT    ................      0.01    1.71             0.02   51.22             0.04    4.70
     1  GEOMET  ................      0.01    1.28             0.00    9.76             0.01    1.77
     1  INPUTA  ................      0.00    0.14             0.00    4.88             0.00    0.41
     1  MAINSY  ................      0.01    1.14             0.00    0.00             0.01    1.07
     1  SYMFIT  ................      0.00    0.14             0.00    0.00             0.00    0.16
     1  CORORT  ................      0.00    0.00             0.00    2.44             0.00    0.06
     1  SYMORB  ................      0.00    0.14             0.00    2.44             0.00    0.22
     1  CLSMAT  ................      0.01    1.28             0.00    0.00             0.01    1.23
     1  ORTHON  ................      0.00    0.43             0.00    0.00             0.00    0.40
     1  GENPT   ................      0.02    2.99             0.00    0.00             0.02    2.85
     1  PTBAS   ................      0.01    0.85             0.00    0.00             0.01    0.84
    12  FOCKY   ................      0.04   73.22             0.00   17.07             0.04   69.83
    12  FOCKTR  ................      0.00    2.28             0.00    2.44             0.00    2.25
    12  SDIIS   ................      0.00    4.56             0.00    0.00             0.00    4.39
     1  COREPS  ................      0.03    4.56             0.00    2.44             0.03    4.45
     1  POPAN   ................      0.01    1.28             0.00    0.00             0.01    1.23
     1  DEBYE   ................      0.00    0.14             0.00    0.00             0.00    0.12
     1  EXIT PROCEDURE .........      0.03    3.70             0.00    7.32             0.03    3.90


 Currently Open Files (EXIT00)
 ====================

 Unit    Access Format  Status   Type       Ident (file)
 -------------------------------------------------------
   3      SEQ    FORM   TRANSP  NORMAL      LOGFILE
                                          ( logfile )


 Buffered I/O statistics
 =======================
 Memory available:                     67108864
 Number of records fitting in memory:     16131
 Input :   0.1% of                        26710  *4k bytes
 Output:  13.8% of                         1359  *4k bytes
 Records from serial files evicted:           0
                    others evicted:           0
 Hash table lookups:      68982 with          0 conflicts (  0.00%)

 ***************************************************************************************************
 (LOGFILE)
 <May18-2019> <15:56:48>  ADF 2017  RunTime: May18-2019 15:56:48  Nodes: 1  Procs: 1
 <May18-2019> <15:56:48>  Boron (TZ2P)
 <May18-2019> <15:56:48>  RunType   : CREATE
 <May18-2019> <15:56:48>  Net Charge: 0 (Nuclei minus Electrons)
 <May18-2019> <15:56:48>  Symmetry  : ATOM
  Coordinates
    Atom         X           Y           Z   (Angstrom)
    1.B         0.000000    0.000000    0.000000
 <May18-2019> <15:56:48>  >>>> CORORT
 <May18-2019> <15:56:48>  >>>> CLSMAT
 <May18-2019> <15:56:48>  >>>> ORTHON
 <May18-2019> <15:56:48>  >>>> GENPT
 <May18-2019> <15:56:48>  Block Length=  76
 <May18-2019> <15:56:48>  >>>> PTBAS
 <May18-2019> <15:56:48>  >>>> CYCLE
 <May18-2019> <15:56:48>              |Error|         MaxErr       Wt(A-DIIS)
 <May18-2019> <15:56:48>      1      0.00000000      0.00000000
 <May18-2019> <15:56:48>      2      3.20133098      2.03108130    100.0
 <May18-2019> <15:56:48>      3      1.05964753      0.90380137    100.0
 <May18-2019> <15:56:48>      4      0.49393151      0.42522542    100.0
 <May18-2019> <15:56:48>      5      0.20602917      0.18571866    100.0
 <May18-2019> <15:56:48>      6      0.10866624      0.09599924     96.0
 <May18-2019> <15:56:48>      7      0.04299023      0.03828643     37.7
 <May18-2019> <15:56:48>      8      0.01078789      0.00956497      8.7
 <May18-2019> <15:56:48>      9      0.00063674      0.00056422      0.0
 <May18-2019> <15:56:48>     10      0.00000007      0.00000005      0.0
 <May18-2019> <15:56:48>     11      0.00000000      0.00000000      0.0
 <May18-2019> <15:56:48>  SCF converged
 <May18-2019> <15:56:48>     12      0.00000000      0.00000000      0.0
 <May18-2019> <15:56:48>  >>>> POPAN
 <May18-2019> <15:56:48>  >>>> DEBYE
 <May18-2019> <15:56:48>  NORMAL TERMINATION
 <May18-2019> <15:56:48>  END

Create O   file=TZ2P-O
XC
  GGA blyp
End
End Input

 *******************************************************************************
 *                                                                             *
 *  -------------------------------------                                      *
 *   Amsterdam Density Functional  (ADF)         2017                          *
 *  -------------------------------------                                      *
 *                                               r58813 2017-04-12             *
 *                                                                             *
 *                                                                             *
 *                              =================                              *
 *                              |               |                              *
 *                              |     A D F     |                              *
 *                              |               |                              *
 *                              =================                              *
 *                                                                             *
 *                                                                             *
 *   Online information and documentation:  https://www.scm.com/support/       *
 *   E-mail:  support@scm.com   info@scm.com                                   *
 *                                                                             *
 *   Scientific publications using ADF results must be properly referenced     *
 *   See the User Manuals (or the web site) for recommended citations          *
 *   The terms and conditions of the End User License Agreement apply to       *
 *   the use of ADF, https://www.scm.com/license-terms/                        *
 *                                                                             *
 **********************  x86_64_linux_intel / intelmpi  ************************
 
 Licensed to: VU/FEW (+ SARA) / ALGEMEEN / Amsterdam / THE NETHERLANDS
 SCM User ID: u7668
  
 ADF 2017  RunTime: May18-2019 15:56:49  Nodes: 1  Procs: 1

 Temporary files are created in /local/datastore0/tcst25/190687/kid_0.I36Wh6

 Oxygen (TZ2P)



 ===========================
 A T T A C H E D   F I L E S
 ===========================
  
 CREATE - Data File:    TZ2P-O
                        Oxygen (TZ2P)



 ===============================
 M O D E L   P A R A M E T E R S
 ===============================
  
 DENSITY FUNCTIONAL POTENTIAL (scf)
    LDA:                               Exchange only                           == Not Default ==
    Gradient Corrections:              Becke88 LYP                             == Not Default ==

 SPIN  (restricted / unrestr.)
    Molecule:                          Restricted                               

 OTHER ASPECTS
    Relativistic Corrections:          ---                                      

    Nuclear Charge Density Model:      Point Charge Nuclei                      
    Core Treatment:                    Frozen Orbital(s)                        

    Hyperfine or Zeeman Interaction:   ---                                      



 =====================================
 S Y M M E T R Y ,   E L E C T R O N S
 =====================================
  
 Symmetry: ATOM

 Irreducible Representations, including subspecies
 -------------------------------------------------
 S
 P:x  P:y  P:z
 D:z2  D:x2-y2  D:xy  D:xz  D:yz
 F:z3  F:z  F:xyz  F:z2x  F:z2y  F:x  F:y


 Configuration of Valence Electrons
 ==================================

          Occupation Numbers
          -------------------------------------------------
 S        2*2
 P        4
 D        0
 F        0
          -------------------------------------------------

 Total:   8

 Net Charge: 0 (Nuclei minus Electrons)

 Preset values for MO occupations will be applied through SCF cycle no. 1000000
 Thereafter, the program will assign electrons to MOs that are spatially
 similar to the occupied MOs in a "reference" cycle ("KeepOrbitals").
 The reference cycle is always the PREVIOUS cycle: it will evolve with
 the SCF procedure.



 ================================
 (Slater-type)  F U N C T I O N S  ***  (Basis and Fit)  ***
 ================================
  

 Atom Type    1  (O)
 ==============

 Valence Basis Sets:  10
 -----------------------
   1 S    9.800000
   1 S    6.800000
   2 S    7.580000
   2 S    2.880000
   2 S    1.720000
   2 P    4.080000
   2 P    2.080000
   2 P    1.120000
   3 D    2.000000
   4 F    3.000000


 BAS: List of all Elementary Cartesian Basis Functions
 =====================================================

 The numbering in the list below (to the right of the function characteristics) is referred
 to in print-outs of MO eigenvectors and Mulliken populations in the BAS representation
 (as contrasted to the SFO representation).

 Notes:
 1. The functions are characterized by a polynomial prefactor (powers of x,y,z and r) and
    an exponential decay factor alpha.
 2. Since the basis sets are specific for an atom TYPE, the individual functions occur on
    all atoms of that type.
 3. The word 'Core' in the left margin signals that it is a Core Function (CF) : not a
    degree of freedom in the valence set, but only used to ensure orthogonalization of
    the other valence basis functions on the frozen Core Orbitals.


 (power of) X  Y  Z  R     Alpha  on Atom
            ==========     =====     ==========

 O                                    1
                                  ---------------------------------------------------------------------------
            0  0  0  0     9.800      1
            0  0  0  0     6.800      2
            0  0  0  1     7.580      3
            0  0  0  1     2.880      4
            0  0  0  1     1.720      5
            1  0  0  0     4.080      6
            0  1  0  0     4.080      7
            0  0  1  0     4.080      8
            1  0  0  0     2.080      9
            0  1  0  0     2.080     10
            0  0  1  0     2.080     11
            1  0  0  0     1.120     12
            0  1  0  0     1.120     13
            0  0  1  0     1.120     14
            2  0  0  0     2.000     15
            1  1  0  0     2.000     16
            1  0  1  0     2.000     17
            0  2  0  0     2.000     18
            0  1  1  0     2.000     19
            0  0  2  0     2.000     20
            3  0  0  0     3.000     21
            2  1  0  0     3.000     22
            2  0  1  0     3.000     23
            1  2  0  0     3.000     24
            1  1  1  0     3.000     25
            1  0  2  0     3.000     26
            0  3  0  0     3.000     27
            0  2  1  0     3.000     28
            0  1  2  0     3.000     29
            0  0  3  0     3.000     30

 Total number of charge fitting functions (nprimf)        84
 Total number of Cartesian basis functions (naos)         30
 Total number of Cartesian core functions  (ncos)          0



 BAS: List of all Elementary Cartesian Basis Functions
 =====================================================

 The numbering in the list below (to the right of the function characteristics) is referred
 to in print-outs of MO eigenvectors and Mulliken populations in the BAS representation
 (as contrasted to the SFO representation).

 Notes:
 1. The functions are characterized by a polynomial prefactor (powers of x,y,z and r) and
    an exponential decay factor alpha.
 2. Since the basis sets are specific for an atom TYPE, the individual functions occur on
    all atoms of that type.
 3. The word 'Core' in the left margin signals that it is a Core Function (CF) : not a
    degree of freedom in the valence set, but only used to ensure orthogonalization of
    the other valence basis functions on the frozen Core Orbitals.


 (power of) X  Y  Z  R     Alpha  on Atom
            ==========     =====     ==========

 O                                    1
                                  ---------------------------------------------------------------------------
            0  0  0  0     9.800      1
            0  0  0  0     6.800      2
            0  0  0  1     7.580      3
            0  0  0  1     2.880      4
            0  0  0  1     1.720      5
            1  0  0  0     4.080      6
            0  1  0  0     4.080      7
            0  0  1  0     4.080      8
            1  0  0  0     2.080      9
            0  1  0  0     2.080     10
            0  0  1  0     2.080     11
            1  0  0  0     1.120     12
            0  1  0  0     1.120     13
            0  0  1  0     1.120     14
            2  0  0  0     2.000     15
            1  1  0  0     2.000     16
            1  0  1  0     2.000     17
            0  2  0  0     2.000     18
            0  1  1  0     2.000     19
            0  0  2  0     2.000     20
            3  0  0  0     3.000     21
            2  1  0  0     3.000     22
            2  0  1  0     3.000     23
            1  2  0  0     3.000     24
            1  1  1  0     3.000     25
            1  0  2  0     3.000     26
            0  3  0  0     3.000     27
            0  2  1  0     3.000     28
            0  1  2  0     3.000     29
            0  0  3  0     3.000     30
1
 ***************************************************************************************************



                                              ***********************
                                              *  T E C H N I C A L  *
                                              ***********************
  



 =============================================================
 P A R A L L E L I Z A T I O N  and  V E C T O R I Z A T I O N
 =============================================================
  
 Nr of parallel processes:                                1
 Maximum vector length in NumInt loops:                 128

 IO buffersize (Mb):                                     64.000000



 =====================
 S C F   U P D A T E S
 =====================
  
 Max. nr. of cycles:                               300
 Convergence criterion:                              0.0000000100
   secondary criterion:                              0.0000000100

 Mix parameter (when DIIS does not apply):           0.2000000000
 Special mix parameter for the first cycle:          1.0000000000
 Mixed ADIIS+DIIS will be used
    Max number of expansion vectors:                10
    Pure ADIIS when Max([F,P]) is above              0.1000000000
    Pure DIIS when Max([F,P]) is below               0.0010000000
 Automatic ElectronSmearing (in case of problematic SCF convergence) disabled



 =================
 P R E C I S I O N  ***  (General: NumInt, NeglectFunctionTails, ...)  ***
 =================
  

 NumInt:           Target precision:                12.0000000000
 -------           Initial precision:               10.0000000000
                   Min. precision (optimization):   10.0000000000

 Neglect Functions:          Basis functions:        0.1000000000E-13
 ------------------          Fit functions:          0.1000000000E-13



 ===========================
 L I N E A R   S C A L I N G
 ===========================
  

 Cut-off radii density fit:                        0.1000000000E-97
 Overlap cut-off criterion AO matrix elements:     0.1000000000E-97
 Cut-offs for Coulomb potential and fitted density:0.1000000000E-97
 Cut-off criterion for Coulomb multipole terms:    0.1000000000E-97
 Progressive Convergence parameter:                 0.000000000    
1
 ***************************************************************************************************



                                            ***************************
                                            *  C O M P U T A T I O N  *
                                            ***************************
  

 Number of elements of the density matrix on this node (used, total):       465       465



 ===========================================
 Numerical Integration : Fuzzy Cells (Becke)
 ===========================================
  
 Becke grid quality: VERYGOOD       
  
 Lebedev angular grid order:             min:  13 max:  41
 Nr. of radial points:                   min:  68 max:  68

 Total nr. of points:         68
 Nr. of blocks:                1
 Block length:                68
 Nr. of dummy points:          0


 Test of Precision of the Numerical Integration Grid
 ===================================================

 Integral of the Total Core Density:                   0.00000000000000



 ========================
 Density Fitting (zlmFit)
 ========================
  
 ZlmFit Fit Quality: VERYGOOD       
  
 Max L-expansion:                        min:   0 max:   0
 Nr. of radial interpolation points:     min: 180 max: 180



 =====
 S C F  ***  ScaSCF  ***
 =====
  

 CYCLE    1
 SCF Error: norm([F,P])=      0.000000000000, max([F,P])=      0.000000000000
 orbitals (Q,E):
 ---------------
 S :1...5            ( 2.00   -31.9999)  ( 2.00    -7.9363)  ( 0.00    -3.4636)  ( 0.00     4.3191)
                     ( 0.00   110.5486)
 P :1...3            ( 4.00    -7.9991)  ( 0.00    -3.4855)  ( 0.00    -1.8903)
 D :1...1            ( 0.00    -3.3333)
 F :1...1            ( 0.00    -1.5000)

 CYCLE    2
  SDIIS (wt  0.000):  1.0000 -0.0000
 A-DIIS (wt  1.000):  0.0000  1.0000
  DIIS coefficients:  0.0000  1.0000
 SCF Error: norm([F,P])=      8.765745414074, max([F,P])=      5.518031311555
 orbitals (Q,E):
 ---------------
 S :1...3            ( 2.00   -14.5579)  ( 2.00    -0.0124)  ( 0.00     1.8192)
 P :1...2            ( 4.00     0.2183)  ( 0.00     1.2385)
 D :1...1            ( 0.00     1.5388)
 F :1...1            ( 0.00     3.9464)

 CYCLE    3
  SDIIS (wt  0.000):  0.2278  0.7722
 A-DIIS (wt  1.000):  0.3148  0.6852
  DIIS coefficients:  0.3148  0.6852
 SCF Error: norm([F,P])=      3.585499450444, max([F,P])=      2.499410108106
 orbitals (Q,E):
 ---------------
 S :1...3            ( 2.00   -19.8063)  ( 2.00    -1.5198)  ( 0.00     0.3996)
 P :1...2            ( 4.00    -0.9763)  ( 0.00     0.1325)
 D :1...1            ( 0.00     0.6540)
 F :1...1            ( 0.00     2.8642)

 CYCLE    4
  SDIIS (wt  0.000): -0.0456  0.1707  0.8749
 A-DIIS (wt  1.000):  0.0000  0.0000  1.0000
  DIIS coefficients:  0.0000  0.0000  1.0000
 SCF Error: norm([F,P])=      1.147919112368, max([F,P])=      0.583019620058
 orbitals (Q,E):
 ---------------
 S :1...3            ( 2.00   -18.0523)  ( 2.00    -0.5465)  ( 0.00     1.0349)
 P :1...2            ( 4.00    -0.0477)  ( 0.00     0.5307)
 D :1...1            ( 0.00     1.2443)
 F :1...1            ( 0.00     3.5731)

 CYCLE    5
  SDIIS (wt  0.000): -0.0195 -0.0760  0.5845  0.5110
 A-DIIS (wt  1.000):  0.0000  0.0000  0.6414  0.3586
  DIIS coefficients:  0.0000  0.0000  0.6414  0.3586
 SCF Error: norm([F,P])=      1.519585468023, max([F,P])=      0.840542006159
 orbitals (Q,E):
 ---------------
 S :1...3            ( 2.00   -18.8182)  ( 2.00    -0.8502)  ( 0.00     0.8091)
 P :1...2            ( 4.00    -0.3077)  ( 0.00     0.3582)
 D :1...1            ( 0.00     1.0753)
 F :1...1            ( 0.00     3.3669)

 CYCLE    6
  SDIIS (wt  0.000):  0.0038 -0.0006  0.0668 -0.0496  0.9795
 A-DIIS (wt  1.000):  0.0000  0.0000  0.0000  0.0000  1.0000
  DIIS coefficients:  0.0000  0.0000  0.0000  0.0000  1.0000
 SCF Error: norm([F,P])=      0.178828926625, max([F,P])=      0.104242033505
 orbitals (Q,E):
 ---------------
 S :1...3            ( 2.00   -19.0541)  ( 2.00    -0.9245)  ( 0.00     0.7610)
 P :1...2            ( 4.00    -0.3806)  ( 0.00     0.3267)
 D :1...1            ( 0.00     1.0451)
 F :1...1            ( 0.00     3.3284)

 CYCLE    7
  SDIIS (wt  0.000): -0.0003  0.0004 -0.0182  0.0130  0.4190  0.5861
 A-DIIS (wt  1.000):  0.0000  0.0000  0.0000  0.0000  0.5807  0.4193
  DIIS coefficients:  0.0000  0.0000  0.0000  0.0000  0.5807  0.4193
 SCF Error: norm([F,P])=      0.200125290981, max([F,P])=      0.113649127569
 orbitals (Q,E):
 ---------------
 S :1...3            ( 2.00   -18.9379)  ( 2.00    -0.8781)  ( 0.00     0.7909)
 P :1...2            ( 4.00    -0.3354)  ( 0.00     0.3452)
 D :1...1            ( 0.00     1.0687)
 F :1...1            ( 0.00     3.3572)

 CYCLE    8
  SDIIS (wt  0.910): -0.0000  0.0002  0.0044 -0.0011 -0.0192 -0.1454  1.1612
 A-DIIS (wt  0.090):  0.0000  0.0000  0.0000  0.0000  0.0000  0.0000  1.0000
  DIIS coefficients: -0.0000  0.0002  0.0040 -0.0010 -0.0175 -0.1323  1.1466
 SCF Error: norm([F,P])=      0.016951777154, max([F,P])=      0.009947196225
 orbitals (Q,E):
 ---------------
 S :1...3            ( 2.00   -18.9255)  ( 2.00    -0.8739)  ( 0.00     0.7936)
 P :1...2            ( 4.00    -0.3314)  ( 0.00     0.3469)
 D :1...1            ( 0.00     1.0707)
 F :1...1            ( 0.00     3.3597)

 CYCLE    9
  SDIIS (wt  1.000): -0.0000  0.0000  0.0000 -0.0001  0.0003  0.0067  0.0145  0.9786
  DIIS coefficients: -0.0000  0.0000  0.0000 -0.0001  0.0003  0.0067  0.0145  0.9786
 SCF Error: norm([F,P])=      0.001748429775, max([F,P])=      0.000984374869
 orbitals (Q,E):
 ---------------
 S :1...3            ( 2.00   -18.9266)  ( 2.00    -0.8743)  ( 0.00     0.7933)
 P :1...2            ( 4.00    -0.3318)  ( 0.00     0.3467)
 D :1...1            ( 0.00     1.0705)
 F :1...1            ( 0.00     3.3595)

 CYCLE   10
  SDIIS (wt  1.000): -0.0000 -0.0000 -0.0000 -0.0000  0.0000  0.0001 -0.0011 -0.0034  1.0043
  DIIS coefficients: -0.0000 -0.0000 -0.0000 -0.0000  0.0000  0.0001 -0.0011 -0.0034  1.0043
 SCF Error: norm([F,P])=      0.000001425696, max([F,P])=      0.000000713883
 orbitals (Q,E):
 ---------------
 S :1...3            ( 2.00   -18.9266)  ( 2.00    -0.8743)  ( 0.00     0.7933)
 P :1...2            ( 4.00    -0.3318)  ( 0.00     0.3467)
 D :1...1            ( 0.00     1.0705)
 F :1...1            ( 0.00     3.3595)

 CYCLE   11
  SDIIS (wt  1.000):  0.0000 -0.0000 -0.0000 -0.0001 -0.0046  1.0047
  DIIS coefficients:  0.0000 -0.0000 -0.0000 -0.0001 -0.0046  1.0047
 SCF Error: norm([F,P])=      0.000000048706, max([F,P])=      0.000000022971
 orbitals (Q,E):
 ---------------
 S :1...3            ( 2.00   -18.9266)  ( 2.00    -0.8743)  ( 0.00     0.7933)
 P :1...2            ( 4.00    -0.3318)  ( 0.00     0.3467)
 D :1...1            ( 0.00     1.0705)
 F :1...1            ( 0.00     3.3595)

 CYCLE   12
  SDIIS (wt  1.000):  0.0000  0.0003  0.0049  0.9947
  DIIS coefficients:  0.0000  0.0003  0.0049  0.9947
 SCF Error: norm([F,P])=      0.000000002392, max([F,P])=      0.000000001168
 orbitals (Q,E):
 ---------------
 S :1...3            ( 2.00   -18.9266)  ( 2.00    -0.8743)  ( 0.00     0.7933)
 P :1...2            ( 4.00    -0.3318)  ( 0.00     0.3467)
 D :1...1            ( 0.00     1.0705)
 F :1...1            ( 0.00     3.3595)

 SCF CONVERGED

 CYCLE   13
1
 ***************************************************************************************************



                                                *******************
                                                *  R E S U L T S  *
                                                *******************
  
 *** Setting up for NEW gradients in Focky
 *** Using FIT density in Focky

 Orbital Energies, per Irrep and Spin:
 ======================================
                        Occup              E (au)              E (eV)       Diff (eV) with prev. cycle
                        -----      --------------------        ------       --------------------------
 S
               1        2.000     -0.18926622910087E+02      -515.020               5.76E-10
               2        2.000     -0.87432318445324E+00       -23.792               3.90E-10
               3        0.000      0.79334608634537E+00        21.588
               4        0.000      0.13459763470969E+02       366.259
               5        0.000      0.12310776301329E+03      3349.933
 P
               1        4.000     -0.33177161342558E+00        -9.028               3.71E-10
               2        0.000      0.34673871865826E+00         9.435
               3        0.000      0.38246989192600E+01       104.075
 D
               1        0.000      0.10704889823391E+01        29.129
 F
               1        0.000      0.33594552407685E+01        91.415


 Partially Occupied:
               1 P                -0.33177161342558E+00
  
 HOMO :        2 S                -0.87432318445324E+00
 LUMO :        2 P                 0.34673871865826E+00
  


 Orbital Energies, all Irreps
 ========================================

 Irrep        no.  (spin)   Occup              E (au)                E (eV)
 ---------------------------------------------------------------------------
 S             1             2.00       -0.18926622910087E+02      -515.0196
 S             2             2.00       -0.87432318445324E+00       -23.7915
 P             1             4.00       -0.33177161342558E+00        -9.0280
 P             2             0.00        0.34673871865826E+00         9.4352
 S             3             0.00        0.79334608634537E+00        21.5880
 D             1             0.00        0.10704889823391E+01        29.1295
 F             1             0.00        0.33594552407685E+01        91.4154
 P             3             0.00        0.38246989192600E+01       104.0754
 S             4             0.00        0.13459763470969E+02       366.2588
 S             5             0.00        0.12310776301329E+03      3349.9327


 All Electron Calculation, thus no Orbital Energies of the Core Orbitals are calculated



 =======================================
 M U L L I K E N   P O P U L A T I O N S
 =======================================
  
 The survey below gives for each atom:
 a) the total charge (Z minus electrons)
 b) the net spin polarization (nr of electrons spin-A minus spin-B)
 c) for each spin the atomic electron valence density (integrated) per L-value.

 Atom              Charge    Spin density          S         P         D         F
 ----              ------    ------------       ------    ------    ------    ------
 1 O              -0.0000                       4.0000    4.0000    0.0000    0.0000

 Populations of individual BAS functions
 ----------------------------------------
 1 O            0.6447  1.3214  0.0008  1.1425  0.8905  0.2537  0.2537  0.2537  0.7364  0.7364
                0.7364  0.3432  0.3432  0.3432  0.0000  0.0000  0.0000  0.0000  0.0000  0.0000
                0.0000  0.0000  0.0000  0.0000  0.0000  0.0000  0.0000  0.0000  0.0000  0.0000

 Gross Charges per Atom (Z minus electrons)
 ==========================================
            -0.0000
 Net Total: -0.00000000



 =======================================================================
 Electrostatic potential at the Nuclei due to electrons and other nuclei
 =======================================================================
  
         Atom                  Potential
         ----                  ---------
     1)   O                  22.23872615
 
 
 ========================
 No memory problems found
 ========================
 
 Maximum number of active allocate calls:         447
 
 *******************************************************************************

                             A D F   E X I T
 NORMAL TERMINATION



 =================
 Timing Statistics
 =================
  
 Total Used :                     CPU=        0.79      System=        0.04     Elapsed=        0.86

 Calls  Section                     ( Mean, Percentage )
 ---------------------------------------------------------------------------------------------------
     3  ><      ................      0.00    0.13             0.00    0.00             0.00    0.09
     1  INIT    ................      0.01    1.89             0.02   51.35             0.06    7.44
     1  GEOMET  ................      0.01    1.51             0.00    2.70             0.01    1.53
     1  INPUTA  ................      0.00    0.25             0.00    2.70             0.00    0.36
     1  MAINSY  ................      0.01    0.88             0.00    2.70             0.01    0.93
     1  SYMFIT  ................      0.00    0.00             0.00    2.70             0.00    0.14
     1  CORORT  ................      0.00    0.13             0.00    0.00             0.00    0.05
     1  SYMORB  ................      0.00    0.13             0.00    0.00             0.00    0.18
     1  CLSMAT  ................      0.01    1.01             0.00    2.70             0.01    1.06
     1  ORTHON  ................      0.00    0.25             0.00    2.70             0.00    0.34
     1  GENPT   ................      0.02    2.64             0.00    0.00             0.02    2.46
     1  PTBAS   ................      0.01    0.88             0.00    0.00             0.01    0.72
    13  FOCKY   ................      0.05   74.69             0.00   18.92             0.05   69.73
    13  FOCKTR  ................      0.00    2.02             0.00    5.41             0.00    2.12
    13  SDIIS   ................      0.00    4.41             0.00    2.70             0.00    4.10
     1  COREPS  ................      0.04    4.53             0.00    0.00             0.04    4.22
     1  POPAN   ................      0.01    1.13             0.00    0.00             0.01    1.06
     1  DEBYE   ................      0.00    0.13             0.00    0.00             0.00    0.11
     1  EXIT PROCEDURE .........      0.03    3.40             0.00    5.40             0.03    3.36


 Currently Open Files (EXIT00)
 ====================

 Unit    Access Format  Status   Type       Ident (file)
 -------------------------------------------------------
   3      SEQ    FORM   TRANSP  NORMAL      LOGFILE
                                          ( logfile )


 Buffered I/O statistics
 =======================
 Memory available:                     67108864
 Number of records fitting in memory:     16131
 Input :   0.1% of                        27833  *4k bytes
 Output:  13.5% of                         1390  *4k bytes
 Records from serial files evicted:           0
                    others evicted:           0
 Hash table lookups:      71898 with          0 conflicts (  0.00%)

 ***************************************************************************************************
 (LOGFILE)
 <May18-2019> <15:56:48>  ADF 2017  RunTime: May18-2019 15:56:48  Nodes: 1  Procs: 1
 <May18-2019> <15:56:48>  Boron (TZ2P)
 <May18-2019> <15:56:48>  RunType   : CREATE
 <May18-2019> <15:56:48>  Net Charge: 0 (Nuclei minus Electrons)
 <May18-2019> <15:56:48>  Symmetry  : ATOM
  Coordinates
    Atom         X           Y           Z   (Angstrom)
    1.B         0.000000    0.000000    0.000000
 <May18-2019> <15:56:48>  >>>> CORORT
 <May18-2019> <15:56:48>  >>>> CLSMAT
 <May18-2019> <15:56:48>  >>>> ORTHON
 <May18-2019> <15:56:48>  >>>> GENPT
 <May18-2019> <15:56:48>  Block Length=  76
 <May18-2019> <15:56:48>  >>>> PTBAS
 <May18-2019> <15:56:48>  >>>> CYCLE
 <May18-2019> <15:56:48>              |Error|         MaxErr       Wt(A-DIIS)
 <May18-2019> <15:56:48>      1      0.00000000      0.00000000
 <May18-2019> <15:56:48>      2      3.20133098      2.03108130    100.0
 <May18-2019> <15:56:48>      3      1.05964753      0.90380137    100.0
 <May18-2019> <15:56:48>      4      0.49393151      0.42522542    100.0
 <May18-2019> <15:56:48>      5      0.20602917      0.18571866    100.0
 <May18-2019> <15:56:48>      6      0.10866624      0.09599924     96.0
 <May18-2019> <15:56:48>      7      0.04299023      0.03828643     37.7
 <May18-2019> <15:56:48>      8      0.01078789      0.00956497      8.7
 <May18-2019> <15:56:48>      9      0.00063674      0.00056422      0.0
 <May18-2019> <15:56:48>     10      0.00000007      0.00000005      0.0
 <May18-2019> <15:56:48>     11      0.00000000      0.00000000      0.0
 <May18-2019> <15:56:48>  SCF converged
 <May18-2019> <15:56:48>     12      0.00000000      0.00000000      0.0
 <May18-2019> <15:56:48>  >>>> POPAN
 <May18-2019> <15:56:48>  >>>> DEBYE
 <May18-2019> <15:56:48>  NORMAL TERMINATION
 <May18-2019> <15:56:48>  END
 <May18-2019> <15:56:49>  ADF 2017  RunTime: May18-2019 15:56:49  Nodes: 1  Procs: 1
 <May18-2019> <15:56:49>  Oxygen (TZ2P)
 <May18-2019> <15:56:49>  RunType   : CREATE
 <May18-2019> <15:56:49>  Net Charge: 0 (Nuclei minus Electrons)
 <May18-2019> <15:56:49>  Symmetry  : ATOM
  Coordinates
    Atom         X           Y           Z   (Angstrom)
    1.O         0.000000    0.000000    0.000000
 <May18-2019> <15:56:49>  >>>> CORORT
 <May18-2019> <15:56:49>  >>>> CLSMAT
 <May18-2019> <15:56:49>  >>>> ORTHON
 <May18-2019> <15:56:49>  >>>> GENPT
 <May18-2019> <15:56:49>  Block Length=  68
 <May18-2019> <15:56:49>  >>>> PTBAS
 <May18-2019> <15:56:49>  >>>> CYCLE
 <May18-2019> <15:56:49>              |Error|         MaxErr       Wt(A-DIIS)
 <May18-2019> <15:56:49>      1      0.00000000      0.00000000
 <May18-2019> <15:56:49>      2      8.76574541      5.51803131    100.0
 <May18-2019> <15:56:49>      3      3.58549945      2.49941011    100.0
 <May18-2019> <15:56:49>      4      1.14791911      0.58301962    100.0
 <May18-2019> <15:56:49>      5      1.51958547      0.84054201    100.0
 <May18-2019> <15:56:49>      6      0.17882893      0.10424203    100.0
 <May18-2019> <15:56:49>      7      0.20012529      0.11364913    100.0
 <May18-2019> <15:56:49>      8      0.01695178      0.00994720      9.0
 <May18-2019> <15:56:49>      9      0.00174843      0.00098437      0.0
 <May18-2019> <15:56:49>     10      0.00000143      0.00000071      0.0
 <May18-2019> <15:56:49>     11      0.00000005      0.00000002      0.0
 <May18-2019> <15:56:49>     12      0.00000000      0.00000000      0.0
 <May18-2019> <15:56:49>  SCF converged
 <May18-2019> <15:56:49>     13      0.00000000      0.00000000      0.0
 <May18-2019> <15:56:49>  >>>> POPAN
 <May18-2019> <15:56:49>  >>>> DEBYE
 <May18-2019> <15:56:49>  NORMAL TERMINATION
 <May18-2019> <15:56:49>  END

Create C   file=TZ2P-C
XC
  GGA blyp
End
End Input

 *******************************************************************************
 *                                                                             *
 *  -------------------------------------                                      *
 *   Amsterdam Density Functional  (ADF)         2017                          *
 *  -------------------------------------                                      *
 *                                               r58813 2017-04-12             *
 *                                                                             *
 *                                                                             *
 *                              =================                              *
 *                              |               |                              *
 *                              |     A D F     |                              *
 *                              |               |                              *
 *                              =================                              *
 *                                                                             *
 *                                                                             *
 *   Online information and documentation:  https://www.scm.com/support/       *
 *   E-mail:  support@scm.com   info@scm.com                                   *
 *                                                                             *
 *   Scientific publications using ADF results must be properly referenced     *
 *   See the User Manuals (or the web site) for recommended citations          *
 *   The terms and conditions of the End User License Agreement apply to       *
 *   the use of ADF, https://www.scm.com/license-terms/                        *
 *                                                                             *
 **********************  x86_64_linux_intel / intelmpi  ************************
 
 Licensed to: VU/FEW (+ SARA) / ALGEMEEN / Amsterdam / THE NETHERLANDS
 SCM User ID: u7668
  
 ADF 2017  RunTime: May18-2019 15:56:50  Nodes: 1  Procs: 1

 Temporary files are created in /local/datastore0/tcst25/190687/kid_0.GDGyhe

 Carbon (TZ2P)



 ===========================
 A T T A C H E D   F I L E S
 ===========================
  
 CREATE - Data File:    TZ2P-C
                        Carbon (TZ2P)



 ===============================
 M O D E L   P A R A M E T E R S
 ===============================
  
 DENSITY FUNCTIONAL POTENTIAL (scf)
    LDA:                               Exchange only                           == Not Default ==
    Gradient Corrections:              Becke88 LYP                             == Not Default ==

 SPIN  (restricted / unrestr.)
    Molecule:                          Restricted                               

 OTHER ASPECTS
    Relativistic Corrections:          ---                                      

    Nuclear Charge Density Model:      Point Charge Nuclei                      
    Core Treatment:                    Frozen Orbital(s)                        

    Hyperfine or Zeeman Interaction:   ---                                      



 =====================================
 S Y M M E T R Y ,   E L E C T R O N S
 =====================================
  
 Symmetry: ATOM

 Irreducible Representations, including subspecies
 -------------------------------------------------
 S
 P:x  P:y  P:z
 D:z2  D:x2-y2  D:xy  D:xz  D:yz
 F:z3  F:z  F:xyz  F:z2x  F:z2y  F:x  F:y


 Configuration of Valence Electrons
 ==================================

          Occupation Numbers
          -------------------------------------------------
 S        2*2
 P        2
 D        0
 F        0
          -------------------------------------------------

 Total:   6

 Net Charge: 0 (Nuclei minus Electrons)

 Preset values for MO occupations will be applied through SCF cycle no. 1000000
 Thereafter, the program will assign electrons to MOs that are spatially
 similar to the occupied MOs in a "reference" cycle ("KeepOrbitals").
 The reference cycle is always the PREVIOUS cycle: it will evolve with
 the SCF procedure.



 ================================
 (Slater-type)  F U N C T I O N S  ***  (Basis and Fit)  ***
 ================================
  

 Atom Type    1  (C)
 ==============

 Valence Basis Sets:  10
 -----------------------
   1 S    7.680000
   1 S    5.000000
   2 S    1.280000
   2 S    2.100000
   2 S    4.600000
   2 P    0.820000
   2 P    1.480000
   2 P    2.940000
   3 D    2.200000
   4 F    3.300000


 BAS: List of all Elementary Cartesian Basis Functions
 =====================================================

 The numbering in the list below (to the right of the function characteristics) is referred
 to in print-outs of MO eigenvectors and Mulliken populations in the BAS representation
 (as contrasted to the SFO representation).

 Notes:
 1. The functions are characterized by a polynomial prefactor (powers of x,y,z and r) and
    an exponential decay factor alpha.
 2. Since the basis sets are specific for an atom TYPE, the individual functions occur on
    all atoms of that type.
 3. The word 'Core' in the left margin signals that it is a Core Function (CF) : not a
    degree of freedom in the valence set, but only used to ensure orthogonalization of
    the other valence basis functions on the frozen Core Orbitals.


 (power of) X  Y  Z  R     Alpha  on Atom
            ==========     =====     ==========

 C                                    1
                                  ---------------------------------------------------------------------------
            0  0  0  0     7.680      1
            0  0  0  0     5.000      2
            0  0  0  1     1.280      3
            0  0  0  1     2.100      4
            0  0  0  1     4.600      5
            1  0  0  0     0.820      6
            0  1  0  0     0.820      7
            0  0  1  0     0.820      8
            1  0  0  0     1.480      9
            0  1  0  0     1.480     10
            0  0  1  0     1.480     11
            1  0  0  0     2.940     12
            0  1  0  0     2.940     13
            0  0  1  0     2.940     14
            2  0  0  0     2.200     15
            1  1  0  0     2.200     16
            1  0  1  0     2.200     17
            0  2  0  0     2.200     18
            0  1  1  0     2.200     19
            0  0  2  0     2.200     20
            3  0  0  0     3.300     21
            2  1  0  0     3.300     22
            2  0  1  0     3.300     23
            1  2  0  0     3.300     24
            1  1  1  0     3.300     25
            1  0  2  0     3.300     26
            0  3  0  0     3.300     27
            0  2  1  0     3.300     28
            0  1  2  0     3.300     29
            0  0  3  0     3.300     30

 Total number of charge fitting functions (nprimf)        84
 Total number of Cartesian basis functions (naos)         30
 Total number of Cartesian core functions  (ncos)          0



 BAS: List of all Elementary Cartesian Basis Functions
 =====================================================

 The numbering in the list below (to the right of the function characteristics) is referred
 to in print-outs of MO eigenvectors and Mulliken populations in the BAS representation
 (as contrasted to the SFO representation).

 Notes:
 1. The functions are characterized by a polynomial prefactor (powers of x,y,z and r) and
    an exponential decay factor alpha.
 2. Since the basis sets are specific for an atom TYPE, the individual functions occur on
    all atoms of that type.
 3. The word 'Core' in the left margin signals that it is a Core Function (CF) : not a
    degree of freedom in the valence set, but only used to ensure orthogonalization of
    the other valence basis functions on the frozen Core Orbitals.


 (power of) X  Y  Z  R     Alpha  on Atom
            ==========     =====     ==========

 C                                    1
                                  ---------------------------------------------------------------------------
            0  0  0  0     7.680      1
            0  0  0  0     5.000      2
            0  0  0  1     1.280      3
            0  0  0  1     2.100      4
            0  0  0  1     4.600      5
            1  0  0  0     0.820      6
            0  1  0  0     0.820      7
            0  0  1  0     0.820      8
            1  0  0  0     1.480      9
            0  1  0  0     1.480     10
            0  0  1  0     1.480     11
            1  0  0  0     2.940     12
            0  1  0  0     2.940     13
            0  0  1  0     2.940     14
            2  0  0  0     2.200     15
            1  1  0  0     2.200     16
            1  0  1  0     2.200     17
            0  2  0  0     2.200     18
            0  1  1  0     2.200     19
            0  0  2  0     2.200     20
            3  0  0  0     3.300     21
            2  1  0  0     3.300     22
            2  0  1  0     3.300     23
            1  2  0  0     3.300     24
            1  1  1  0     3.300     25
            1  0  2  0     3.300     26
            0  3  0  0     3.300     27
            0  2  1  0     3.300     28
            0  1  2  0     3.300     29
            0  0  3  0     3.300     30
1
 ***************************************************************************************************



                                              ***********************
                                              *  T E C H N I C A L  *
                                              ***********************
  



 =============================================================
 P A R A L L E L I Z A T I O N  and  V E C T O R I Z A T I O N
 =============================================================
  
 Nr of parallel processes:                                1
 Maximum vector length in NumInt loops:                 128

 IO buffersize (Mb):                                     64.000000



 =====================
 S C F   U P D A T E S
 =====================
  
 Max. nr. of cycles:                               300
 Convergence criterion:                              0.0000000100
   secondary criterion:                              0.0000000100

 Mix parameter (when DIIS does not apply):           0.2000000000
 Special mix parameter for the first cycle:          1.0000000000
 Mixed ADIIS+DIIS will be used
    Max number of expansion vectors:                10
    Pure ADIIS when Max([F,P]) is above              0.1000000000
    Pure DIIS when Max([F,P]) is below               0.0010000000
 Automatic ElectronSmearing (in case of problematic SCF convergence) disabled



 =================
 P R E C I S I O N  ***  (General: NumInt, NeglectFunctionTails, ...)  ***
 =================
  

 NumInt:           Target precision:                12.0000000000
 -------           Initial precision:               10.0000000000
                   Min. precision (optimization):   10.0000000000

 Neglect Functions:          Basis functions:        0.1000000000E-13
 ------------------          Fit functions:          0.1000000000E-13



 ===========================
 L I N E A R   S C A L I N G
 ===========================
  

 Cut-off radii density fit:                        0.1000000000E-97
 Overlap cut-off criterion AO matrix elements:     0.1000000000E-97
 Cut-offs for Coulomb potential and fitted density:0.1000000000E-97
 Cut-off criterion for Coulomb multipole terms:    0.1000000000E-97
 Progressive Convergence parameter:                 0.000000000    
1
 ***************************************************************************************************



                                            ***************************
                                            *  C O M P U T A T I O N  *
                                            ***************************
  

 Number of elements of the density matrix on this node (used, total):       465       465



 ===========================================
 Numerical Integration : Fuzzy Cells (Becke)
 ===========================================
  
 Becke grid quality: VERYGOOD       
  
 Lebedev angular grid order:             min:  13 max:  41
 Nr. of radial points:                   min:  72 max:  72

 Total nr. of points:         72
 Nr. of blocks:                1
 Block length:                72
 Nr. of dummy points:          0


 Test of Precision of the Numerical Integration Grid
 ===================================================

 Integral of the Total Core Density:                   0.00000000000000



 ========================
 Density Fitting (zlmFit)
 ========================
  
 ZlmFit Fit Quality: VERYGOOD       
  
 Max L-expansion:                        min:   0 max:   0
 Nr. of radial interpolation points:     min: 160 max: 160



 =====
 S C F  ***  ScaSCF  ***
 =====
  

 CYCLE    1
 SCF Error: norm([F,P])=      0.000000000000, max([F,P])=      0.000000000000
 orbitals (Q,E):
 ---------------
 S :1...5            ( 2.00   -17.9995)  ( 2.00    -4.4761)  ( 0.00    -1.9482)  ( 0.00     0.6812)
                     ( 0.00    42.8100)
 P :1...3            ( 2.00    -4.4994)  ( 0.00    -1.9807)  ( 0.00    -1.0849)
 D :1...1            ( 0.00    -1.9800)
 F :1...1            ( 0.00     0.4950)

 CYCLE    2
  SDIIS (wt  0.000):  1.0000 -0.0000
 A-DIIS (wt  1.000):  0.0000  1.0000
  DIIS coefficients:  0.0000  1.0000
 SCF Error: norm([F,P])=      4.480319744476, max([F,P])=      3.328841325837
 orbitals (Q,E):
 ---------------
 S :1...3            ( 2.00    -7.7917)  ( 2.00    -0.0500)  ( 0.00     0.8490)
 P :1...2            ( 2.00     0.1033)  ( 0.00     0.5895)
 D :1...1            ( 0.00     1.7552)
 F :1...1            ( 0.00     4.6366)

 CYCLE    3
  SDIIS (wt  0.000):  0.2185  0.7815
 A-DIIS (wt  1.000):  0.1233  0.8767
  DIIS coefficients:  0.1233  0.8767
 SCF Error: norm([F,P])=      1.636788894664, max([F,P])=      1.315295345514
 orbitals (Q,E):
 ---------------
 S :1...3            ( 2.00   -10.9862)  ( 2.00    -0.9428)  ( 0.00     0.1231)
 P :1...2            ( 2.00    -0.6386)  ( 0.00     0.0246)
 D :1...1            ( 0.00     0.8395)
 F :1...1            ( 0.00     3.5625)

 CYCLE    4
  SDIIS (wt  0.000): -0.0629  0.2184  0.8445
 A-DIIS (wt  1.000):  0.0000  0.0872  0.9128
  DIIS coefficients:  0.0000  0.0872  0.9128
 SCF Error: norm([F,P])=      0.722267649759, max([F,P])=      0.580815510644
 orbitals (Q,E):
 ---------------
 S :1...3            ( 2.00    -9.6419)  ( 2.00    -0.3647)  ( 0.00     0.4682)
 P :1...2            ( 2.00    -0.0765)  ( 0.00     0.2450)
 D :1...1            ( 0.00     1.3742)
 F :1...1            ( 0.00     4.1720)

 CYCLE    5
  SDIIS (wt  0.000): -0.0214 -0.0561  0.3847  0.6927
 A-DIIS (wt  1.000):  0.0000  0.0000  0.2646  0.7354
  DIIS coefficients:  0.0000  0.0000  0.2646  0.7354
 SCF Error: norm([F,P])=      0.412794757847, max([F,P])=      0.328642040749
 orbitals (Q,E):
 ---------------
 S :1...3            ( 2.00   -10.1968)  ( 2.00    -0.5643)  ( 0.00     0.3336)
 P :1...2            ( 2.00    -0.2533)  ( 0.00     0.1428)
 D :1...1            ( 0.00     1.1818)
 F :1...1            ( 0.00     3.9467)

 CYCLE    6
  SDIIS (wt  0.032):  0.0025 -0.0116 -0.0698  0.2077  0.8712
 A-DIIS (wt  0.968):  0.0000  0.0000  0.0000  0.0000  1.0000
  DIIS coefficients:  0.0001 -0.0004 -0.0022  0.0066  0.9959
 SCF Error: norm([F,P])=      0.126643163176, max([F,P])=      0.096847488733
 orbitals (Q,E):
 ---------------
 S :1...3            ( 2.00    -9.9458)  ( 2.00    -0.4545)  ( 0.00     0.4037)
 P :1...2            ( 2.00    -0.1511)  ( 0.00     0.1903)
 D :1...1            ( 0.00     1.2866)
 F :1...1            ( 0.00     4.0669)

 CYCLE    7
  SDIIS (wt  0.100): -0.0001  0.0030  0.0073 -0.1526  0.2846  0.8578
 A-DIIS (wt  0.900):  0.0000  0.0000  0.0000  0.0000  0.4446  0.5554
  DIIS coefficients: -0.0000  0.0003  0.0007 -0.0152  0.4286  0.5856
 SCF Error: norm([F,P])=      0.115568228223, max([F,P])=      0.090123764632
 orbitals (Q,E):
 ---------------
 S :1...3            ( 2.00   -10.0697)  ( 2.00    -0.5032)  ( 0.00     0.3719)
 P :1...2            ( 2.00    -0.1955)  ( 0.00     0.1673)
 D :1...1            ( 0.00     1.2400)
 F :1...1            ( 0.00     4.0128)

 CYCLE    8
  SDIIS (wt  0.958): -0.0001  0.0006  0.0026 -0.0162 -0.0129  0.1023  0.9238
 A-DIIS (wt  0.042):  0.0000  0.0000  0.0000  0.0000  0.0000  0.0000  1.0000
  DIIS coefficients: -0.0001  0.0005  0.0025 -0.0155 -0.0124  0.0980  0.9270
 SCF Error: norm([F,P])=      0.006629277794, max([F,P])=      0.005140885246
 orbitals (Q,E):
 ---------------
 S :1...3            ( 2.00   -10.0626)  ( 2.00    -0.5000)  ( 0.00     0.3739)
 P :1...2            ( 2.00    -0.1926)  ( 0.00     0.1686)
 D :1...1            ( 0.00     1.2431)
 F :1...1            ( 0.00     4.0163)

 CYCLE    9
  SDIIS (wt  1.000): -0.0000 -0.0000 -0.0000 -0.0000  0.0023 -0.0004 -0.0164  1.0145
  DIIS coefficients: -0.0000 -0.0000 -0.0000 -0.0000  0.0023 -0.0004 -0.0164  1.0145
 SCF Error: norm([F,P])=      0.000215737590, max([F,P])=      0.000163422091
 orbitals (Q,E):
 ---------------
 S :1...3            ( 2.00   -10.0628)  ( 2.00    -0.5001)  ( 0.00     0.3739)
 P :1...2            ( 2.00    -0.1927)  ( 0.00     0.1686)
 D :1...1            ( 0.00     1.2430)
 F :1...1            ( 0.00     4.0162)

 CYCLE   10
  SDIIS (wt  1.000):  0.0000 -0.0000 -0.0000  0.0001  0.0000 -0.0011  0.0167  0.9843
  DIIS coefficients:  0.0000 -0.0000 -0.0000  0.0001  0.0000 -0.0011  0.0167  0.9843
 SCF Error: norm([F,P])=      0.000001946474, max([F,P])=      0.000001322854
 orbitals (Q,E):
 ---------------
 S :1...3            ( 2.00   -10.0628)  ( 2.00    -0.5001)  ( 0.00     0.3739)
 P :1...2            ( 2.00    -0.1927)  ( 0.00     0.1686)
 D :1...1            ( 0.00     1.2430)
 F :1...1            ( 0.00     4.0162)

 CYCLE   11
  SDIIS (wt  1.000):  0.0000 -0.0000 -0.0002 -0.0078  1.0079
  DIIS coefficients:  0.0000 -0.0000 -0.0002 -0.0078  1.0079
 SCF Error: norm([F,P])=      0.000000018017, max([F,P])=      0.000000015021
 orbitals (Q,E):
 ---------------
 S :1...3            ( 2.00   -10.0628)  ( 2.00    -0.5001)  ( 0.00     0.3739)
 P :1...2            ( 2.00    -0.1927)  ( 0.00     0.1686)
 D :1...1            ( 0.00     1.2430)
 F :1...1            ( 0.00     4.0162)

 CYCLE   12
  SDIIS (wt  1.000):  0.0000 -0.0001  0.0057  0.9944
  DIIS coefficients:  0.0000 -0.0001  0.0057  0.9944
 SCF Error: norm([F,P])=      0.000000000214, max([F,P])=      0.000000000163
 orbitals (Q,E):
 ---------------
 S :1...3            ( 2.00   -10.0628)  ( 2.00    -0.5001)  ( 0.00     0.3739)
 P :1...2            ( 2.00    -0.1927)  ( 0.00     0.1686)
 D :1...1            ( 0.00     1.2430)
 F :1...1            ( 0.00     4.0162)

 SCF CONVERGED

 CYCLE   13
1
 ***************************************************************************************************



                                                *******************
                                                *  R E S U L T S  *
                                                *******************
  
 *** Setting up for NEW gradients in Focky
 *** Using FIT density in Focky

 Orbital Energies, per Irrep and Spin:
 ======================================
                        Occup              E (au)              E (eV)       Diff (eV) with prev. cycle
                        -----      --------------------        ------       --------------------------
 S
               1        2.000     -0.10062819482682E+02      -273.823              -1.46E-09
               2        2.000     -0.50012405867783E+00       -13.609              -9.06E-10
               3        0.000      0.37386666571790E+00        10.173
               4        0.000      0.54114616881923E+01       147.253
               5        0.000      0.50154618712632E+02      1364.777
 P
               1        2.000     -0.19265861396330E+00        -5.243              -8.46E-10
               2        0.000      0.16859720175392E+00         4.588
               3        0.000      0.20146797119588E+01        54.822
 D
               1        0.000      0.12429821924707E+01        33.823
 F
               1        0.000      0.40162441326384E+01       109.288


 Partially Occupied:
               1 P                -0.19265861396330E+00
  
 HOMO :        2 S                -0.50012405867783E+00
 LUMO :        2 P                 0.16859720175392E+00
  


 Orbital Energies, all Irreps
 ========================================

 Irrep        no.  (spin)   Occup              E (au)                E (eV)
 ---------------------------------------------------------------------------
 S             1             2.00       -0.10062819482682E+02      -273.8233
 S             2             2.00       -0.50012405867783E+00       -13.6091
 P             1             2.00       -0.19265861396330E+00        -5.2425
 P             2             0.00        0.16859720175392E+00         4.5878
 S             3             0.00        0.37386666571790E+00        10.1734
 D             1             0.00        0.12429821924707E+01        33.8233
 P             3             0.00        0.20146797119588E+01        54.8222
 F             1             0.00        0.40162441326384E+01       109.2876
 S             4             0.00        0.54114616881923E+01       147.2534
 S             5             0.00        0.50154618712632E+02      1364.7766


 All Electron Calculation, thus no Orbital Energies of the Core Orbitals are calculated



 =======================================
 M U L L I K E N   P O P U L A T I O N S
 =======================================
  
 The survey below gives for each atom:
 a) the total charge (Z minus electrons)
 b) the net spin polarization (nr of electrons spin-A minus spin-B)
 c) for each spin the atomic electron valence density (integrated) per L-value.

 Atom              Charge    Spin density          S         P         D         F
[...]
   12.C        -1.650000    0.000000    0.000000
   13.O        -2.803960    0.000000    0.000000
 <May18-2019> <15:56:51>  >>>> CORORT
 <May18-2019> <15:56:51>  >>>> CLSMAT
 <May18-2019> <15:56:51>  >>>> ORTHON
 <May18-2019> <15:56:51>  >>>> GENPT
 <May18-2019> <15:56:52>  Block Length= 128
 <May18-2019> <15:56:52>  >>>> PTBAS
 <May18-2019> <15:56:53>  >>>> CYCLE
 <May18-2019> <15:56:54>              |Error|         MaxErr       Wt(A-DIIS)
 <May18-2019> <15:56:54>      1      8.15694050      1.63369229
 <May18-2019> <15:56:56>      2      1.23227939      0.22353571    100.0
 <May18-2019> <15:56:57>      3      0.30905566      0.02809248    100.0
 <May18-2019> <15:56:58>      4      0.47254677      0.07421084    100.0
 <May18-2019> <15:56:59>      5      0.37235380      0.06547055    100.0
 <May18-2019> <15:57:01>      6      0.11320654      0.01658676     15.7
 <May18-2019> <15:57:02>      7      0.01120917      0.00153947      0.5
 <May18-2019> <15:57:03>      8      0.00021550      0.00002580      0.0
 <May18-2019> <15:57:04>      9      0.00003880      0.00000581      0.0
 <May18-2019> <15:57:06>     10      0.00000667      0.00000092      0.0
 <May18-2019> <15:57:06>  SCF converged
 <May18-2019> <15:57:07>     11      0.00000256      0.00000045      0.0
 <May18-2019> <15:57:07>  >>>> TOTEN
 <May18-2019> <15:57:09>  >>>> POPAN
 <May18-2019> <15:57:09>  >>>> DEBYE
 <May18-2019> <15:57:09>  >>>> ENGRAD
 <May18-2019> <15:57:15>  current energy                               -1.79393203 Hartree
 <May18-2019> <15:57:15>  energy change                      -1.79393203     0.00010000    F
 <May18-2019> <15:57:15>  constrained gradient max            0.29271753     0.00010000    F
 <May18-2019> <15:57:15>  constrained gradient rms            0.12271285     0.00006667    F
 <May18-2019> <15:57:15>  gradient max                        0.29271753
 <May18-2019> <15:57:15>  gradient rms                        0.12271285
 <May18-2019> <15:57:15>  cart. step max                      0.11343886     0.01000000    F
 <May18-2019> <15:57:15>  cart. step rms                      0.05679270     0.00666667    F
  Coordinates in Geometry Cycle 2
    Atom         X           Y           Z   (Angstrom)
    1.B         0.000000    0.000000    0.000000
    2.C         0.000000    1.763439    0.000000
    3.O         0.000000    2.893942    0.000000
    4.C         0.000000    0.000000    1.763439
    5.O         0.000000    0.000000    2.893942
    6.C         0.000000   -1.763439    0.000000
    7.O         0.000000   -2.893942    0.000000
    8.C         0.000000    0.000000   -1.763439
    9.O         0.000000    0.000000   -2.893942
   10.C         1.763439    0.000000    0.000000
   11.O         2.893942    0.000000    0.000000
   12.C        -1.763439    0.000000    0.000000
   13.O        -2.893942    0.000000    0.000000
 <May18-2019> <15:57:15>  >>>> CORORT
 <May18-2019> <15:57:15>  >>>> CLSMAT
 <May18-2019> <15:57:15>  >>>> ORTHON
 <May18-2019> <15:57:15>  >>>> GENPT
 <May18-2019> <15:57:15>  Block Length= 128
 <May18-2019> <15:57:15>  >>>> PTBAS
 <May18-2019> <15:57:16>  >>>> CYCLE
 <May18-2019> <15:57:18>              |Error|         MaxErr       Wt(A-DIIS)
 <May18-2019> <15:57:18>      1      0.57185051      0.16469276
 <May18-2019> <15:57:19>      2      0.24242815      0.03998849    100.0
 <May18-2019> <15:57:20>      3      0.05106266      0.00539640    100.0
 <May18-2019> <15:57:21>      4      0.08215287      0.01099953    100.0
 <May18-2019> <15:57:22>      5      0.05140653      0.00854205      7.6
 <May18-2019> <15:57:24>      6      0.00408073      0.00069640      0.0
 <May18-2019> <15:57:25>      7      0.00029096      0.00005038      0.0
 <May18-2019> <15:57:26>      8      0.00002292      0.00000258      0.0
 <May18-2019> <15:57:27>      9      0.00000079      0.00000008      0.0
 <May18-2019> <15:57:27>  SCF converged
 <May18-2019> <15:57:28>     10      0.00000005      0.00000001      0.0
 <May18-2019> <15:57:29>  >>>> TOTEN
 <May18-2019> <15:57:31>  >>>> POPAN
 <May18-2019> <15:57:31>  >>>> DEBYE
 <May18-2019> <15:57:31>  >>>> ENGRAD
 <May18-2019> <15:57:36>  current energy                               -1.89110861 Hartree
 <May18-2019> <15:57:36>  energy change                      -0.09717658     0.00010000    F
 <May18-2019> <15:57:36>  constrained gradient max            0.11395306     0.00010000    F
 <May18-2019> <15:57:36>  constrained gradient rms            0.04593617     0.00006667    F
 <May18-2019> <15:57:36>  gradient max                        0.11395306
 <May18-2019> <15:57:36>  gradient rms                        0.04593617
 <May18-2019> <15:57:36>  cart. step max                      0.10032157     0.01000000    F
 <May18-2019> <15:57:36>  cart. step rms                      0.05265212     0.00666667    F
  Coordinates in Geometry Cycle 3
    Atom         X           Y           Z   (Angstrom)
    1.B         0.000000    0.000000    0.000000
    2.C         0.000000    1.863760    0.000000
    3.O         0.000000    2.983134    0.000000
    4.C         0.000000    0.000000    1.863760
    5.O         0.000000    0.000000    2.983134
    6.C         0.000000   -1.863760    0.000000
    7.O         0.000000   -2.983134    0.000000
    8.C         0.000000    0.000000   -1.863760
    9.O         0.000000    0.000000   -2.983134
   10.C         1.863760    0.000000    0.000000
   11.O         2.983134    0.000000    0.000000
   12.C        -1.863760    0.000000    0.000000
   13.O        -2.983134    0.000000    0.000000
 <May18-2019> <15:57:36>  >>>> CORORT
 <May18-2019> <15:57:36>  >>>> CLSMAT
 <May18-2019> <15:57:36>  >>>> ORTHON
 <May18-2019> <15:57:36>  >>>> GENPT
 <May18-2019> <15:57:36>  Block Length= 128
 <May18-2019> <15:57:36>  >>>> PTBAS
 <May18-2019> <15:57:37>  >>>> CYCLE
 <May18-2019> <15:57:39>              |Error|         MaxErr       Wt(A-DIIS)
 <May18-2019> <15:57:39>      1      0.36280309      0.11142556
 <May18-2019> <15:57:40>      2      0.07414625      0.00897650    100.0
 <May18-2019> <15:57:41>      3      0.18760402      0.02822566    100.0
 <May18-2019> <15:57:42>      4      0.04097214      0.00719885      6.3
 <May18-2019> <15:57:44>      5      0.00505270      0.00075388      0.0
 <May18-2019> <15:57:45>      6      0.00054781      0.00006692      0.0
 <May18-2019> <15:57:46>      7      0.00011274      0.00001949      0.0
 <May18-2019> <15:57:47>      8      0.00000932      0.00000114      0.0
 <May18-2019> <15:57:48>      9      0.00000083      0.00000010      0.0
 <May18-2019> <15:57:49>  SCF converged
 <May18-2019> <15:57:50>     10      0.00000011      0.00000002      0.0
 <May18-2019> <15:57:50>  >>>> TOTEN
 <May18-2019> <15:57:52>  >>>> POPAN
 <May18-2019> <15:57:52>  >>>> DEBYE
 <May18-2019> <15:57:52>  >>>> ENGRAD
 <May18-2019> <15:57:57>  current energy                               -1.92382654 Hartree
 <May18-2019> <15:57:57>  energy change                      -0.03271793     0.00010000    F
 <May18-2019> <15:57:57>  constrained gradient max            0.01814007     0.00010000    F
 <May18-2019> <15:57:57>  constrained gradient rms            0.00889501     0.00006667    F
 <May18-2019> <15:57:57>  gradient max                        0.01814007
 <May18-2019> <15:57:57>  gradient rms                        0.00889501
 <May18-2019> <15:57:57>  cart. step max                      0.05818106     0.01000000    F
 <May18-2019> <15:57:57>  cart. step rms                      0.03165234     0.00666667    F
  Coordinates in Geometry Cycle 4
    Atom         X           Y           Z   (Angstrom)
    1.B         0.000000    0.000000    0.000000
    2.C         0.000000    1.919681    0.000000
    3.O         0.000000    3.041315    0.000000
    4.C         0.000000    0.000000    1.919681
    5.O         0.000000    0.000000    3.041315
    6.C         0.000000   -1.919681    0.000000
    7.O         0.000000   -3.041315    0.000000
    8.C         0.000000    0.000000   -1.919681
    9.O         0.000000    0.000000   -3.041315
   10.C         1.919681    0.000000    0.000000
   11.O         3.041315    0.000000    0.000000
   12.C        -1.919681    0.000000    0.000000
   13.O        -3.041315    0.000000    0.000000
 <May18-2019> <15:57:57>  >>>> CORORT
 <May18-2019> <15:57:57>  >>>> CLSMAT
 <May18-2019> <15:57:57>  >>>> ORTHON
 <May18-2019> <15:57:57>  >>>> GENPT
 <May18-2019> <15:57:57>  Block Length= 128
 <May18-2019> <15:57:57>  >>>> PTBAS
 <May18-2019> <15:57:58>  >>>> CYCLE
 <May18-2019> <15:58:00>              |Error|         MaxErr       Wt(A-DIIS)
 <May18-2019> <15:58:00>      1      0.15353380      0.05089953
 <May18-2019> <15:58:01>      2      0.05571413      0.00756568    100.0
 <May18-2019> <15:58:02>      3      0.19777352      0.03195747    100.0
 <May18-2019> <15:58:03>      4      0.04781132      0.00662286      5.7
 <May18-2019> <15:58:04>      5      0.00377957      0.00048172      0.0
 <May18-2019> <15:58:06>      6      0.00068649      0.00009051      0.0
 <May18-2019> <15:58:07>      7      0.00007284      0.00000936      0.0
 <May18-2019> <15:58:08>      8      0.00000457      0.00000049      0.0
 <May18-2019> <15:58:08>  SCF converged
 <May18-2019> <15:58:09>      9      0.00000118      0.00000018      0.0
 <May18-2019> <15:58:09>  >>>> TOTEN
 <May18-2019> <15:58:11>  >>>> POPAN
 <May18-2019> <15:58:11>  >>>> DEBYE
 <May18-2019> <15:58:11>  >>>> ENGRAD
 <May18-2019> <15:58:16>  current energy                               -1.92908364 Hartree
 <May18-2019> <15:58:16>  energy change                      -0.00525710     0.00010000    F
 <May18-2019> <15:58:16>  constrained gradient max            0.00649937     0.00010000    F
 <May18-2019> <15:58:16>  constrained gradient rms            0.00276613     0.00006667    F
 <May18-2019> <15:58:16>  gradient max                        0.00649937
 <May18-2019> <15:58:16>  gradient rms                        0.00276613
 <May18-2019> <15:58:16>  cart. step max                      0.02511905     0.01000000    F
 <May18-2019> <15:58:16>  cart. step rms                      0.01357314     0.00666667    F
  Coordinates in Geometry Cycle 5
    Atom         X           Y           Z   (Angstrom)
    1.B         0.000000    0.000000    0.000000
    2.C         0.000000    1.943483    0.000000
    3.O         0.000000    3.066434    0.000000
    4.C         0.000000    0.000000    1.943483
    5.O         0.000000    0.000000    3.066434
    6.C         0.000000   -1.943483    0.000000
    7.O         0.000000   -3.066434    0.000000
    8.C         0.000000    0.000000   -1.943483
    9.O         0.000000    0.000000   -3.066434
   10.C         1.943483    0.000000    0.000000
   11.O         3.066434    0.000000    0.000000
   12.C        -1.943483    0.000000    0.000000
   13.O        -3.066434    0.000000    0.000000
 <May18-2019> <15:58:16>  >>>> CORORT
 <May18-2019> <15:58:17>  >>>> CLSMAT
 <May18-2019> <15:58:17>  >>>> ORTHON
 <May18-2019> <15:58:17>  >>>> GENPT
 <May18-2019> <15:58:17>  Block Length= 128
 <May18-2019> <15:58:17>  >>>> PTBAS
 <May18-2019> <15:58:18>  >>>> CYCLE
 <May18-2019> <15:58:19>              |Error|         MaxErr       Wt(A-DIIS)
 <May18-2019> <15:58:19>      1      0.06170159      0.01950011
 <May18-2019> <15:58:20>      2      0.02933255      0.00432170    100.0
 <May18-2019> <15:58:22>      3      0.11195246      0.01826443    100.0
 <May18-2019> <15:58:23>      4      0.03077368      0.00460622      3.6
 <May18-2019> <15:58:24>      5      0.00197443      0.00025101      0.0
 <May18-2019> <15:58:25>      6      0.00027238      0.00003271      0.0
 <May18-2019> <15:58:26>      7      0.00003535      0.00000474      0.0
 <May18-2019> <15:58:27>      8      0.00000177      0.00000022      0.0
 <May18-2019> <15:58:28>  SCF converged
 <May18-2019> <15:58:29>      9      0.00000053      0.00000008      0.0
 <May18-2019> <15:58:29>  >>>> TOTEN
 <May18-2019> <15:58:31>  >>>> POPAN
 <May18-2019> <15:58:31>  >>>> DEBYE
 <May18-2019> <15:58:31>  >>>> ENGRAD
 <May18-2019> <15:58:36>  current energy                               -1.92914239 Hartree
 <May18-2019> <15:58:36>  energy change                      -0.00005875     0.00010000    T
 <May18-2019> <15:58:36>  constrained gradient max            0.00110242     0.00010000    F
 <May18-2019> <15:58:36>  constrained gradient rms            0.00043798     0.00006667    F
 <May18-2019> <15:58:36>  gradient max                        0.00110242
 <May18-2019> <15:58:36>  gradient rms                        0.00043798
 <May18-2019> <15:58:36>  cart. step max                      0.00230858     0.01000000    T
 <May18-2019> <15:58:36>  cart. step rms                      0.00127647     0.00666667    T
  Coordinates in Geometry Cycle 6
    Atom         X           Y           Z   (Angstrom)
    1.B         0.000000    0.000000    0.000000
    2.C         0.000000    1.945777    0.000000
    3.O         0.000000    3.068743    0.000000
    4.C         0.000000    0.000000    1.945777
    5.O         0.000000    0.000000    3.068743
    6.C         0.000000   -1.945777    0.000000
    7.O         0.000000   -3.068743    0.000000
    8.C         0.000000    0.000000   -1.945777
    9.O         0.000000    0.000000   -3.068743
   10.C         1.945777    0.000000    0.000000
   11.O         3.068743    0.000000    0.000000
   12.C        -1.945777    0.000000    0.000000
   13.O        -3.068743    0.000000    0.000000
 <May18-2019> <15:58:36>  >>>> CORORT
 <May18-2019> <15:58:36>  >>>> CLSMAT
 <May18-2019> <15:58:36>  >>>> ORTHON
 <May18-2019> <15:58:36>  >>>> GENPT
 <May18-2019> <15:58:36>  Block Length= 128
 <May18-2019> <15:58:36>  >>>> PTBAS
 <May18-2019> <15:58:37>  >>>> CYCLE
 <May18-2019> <15:58:39>              |Error|         MaxErr       Wt(A-DIIS)
 <May18-2019> <15:58:39>      1      0.00563464      0.00181474
 <May18-2019> <15:58:40>      2      0.00261107      0.00037235    100.0
 <May18-2019> <15:58:41>      3      0.00976991      0.00158727    100.0
 <May18-2019> <15:58:42>      4      0.00255875      0.00036310      0.0
 <May18-2019> <15:58:43>      5      0.00019285      0.00002892      0.0
 <May18-2019> <15:58:45>      6      0.00001893      0.00000226      0.0
 <May18-2019> <15:58:46>      7      0.00000319      0.00000047      0.0
 <May18-2019> <15:58:46>  SCF converged
 <May18-2019> <15:58:47>      8      0.00000022      0.00000003      0.0
 <May18-2019> <15:58:47>  >>>> TOTEN
 <May18-2019> <15:58:49>  >>>> POPAN
 <May18-2019> <15:58:49>  >>>> DEBYE
 <May18-2019> <15:58:49>  >>>> ENGRAD
 <May18-2019> <15:58:54>  current energy                               -1.92908935 Hartree
 <May18-2019> <15:58:54>  energy change                       0.00005304     0.00010000    T
 <May18-2019> <15:58:54>  constrained gradient max            0.00048170     0.00010000    F
 <May18-2019> <15:58:54>  constrained gradient rms            0.00019158     0.00006667    F
 <May18-2019> <15:58:54>  gradient max                        0.00048170
 <May18-2019> <15:58:54>  gradient rms                        0.00019158
 <May18-2019> <15:58:54>  cart. step max                      0.00180925     0.01000000    T
 <May18-2019> <15:58:54>  cart. step rms                      0.00100008     0.00666667    T
  Coordinates in Geometry Cycle 7
    Atom         X           Y           Z   (Angstrom)
    1.B         0.000000    0.000000    0.000000
    2.C         0.000000    1.947573    0.000000
    3.O         0.000000    3.070552    0.000000
    4.C         0.000000    0.000000    1.947573
    5.O         0.000000    0.000000    3.070552
    6.C         0.000000   -1.947573    0.000000
    7.O         0.000000   -3.070552    0.000000
    8.C         0.000000    0.000000   -1.947573
    9.O         0.000000    0.000000   -3.070552
   10.C         1.947573    0.000000    0.000000
   11.O         3.070552    0.000000    0.000000
   12.C        -1.947573    0.000000    0.000000
   13.O        -3.070552    0.000000    0.000000
 <May18-2019> <15:58:54>  >>>> CORORT
 <May18-2019> <15:58:54>  >>>> CLSMAT
 <May18-2019> <15:58:54>  >>>> ORTHON
 <May18-2019> <15:58:54>  >>>> GENPT
 <May18-2019> <15:58:54>  Block Length= 128
 <May18-2019> <15:58:55>  >>>> PTBAS
 <May18-2019> <15:58:56>  >>>> CYCLE
 <May18-2019> <15:58:57>              |Error|         MaxErr       Wt(A-DIIS)
 <May18-2019> <15:58:57>      1      0.00439397      0.00141366
 <May18-2019> <15:58:58>      2      0.00205416      0.00029413    100.0
 <May18-2019> <15:58:59>      3      0.00771104      0.00125323    100.0
 <May18-2019> <15:59:00>      4      0.00203119      0.00028994      0.0
 <May18-2019> <15:59:02>      5      0.00015228      0.00002277      0.0
 <May18-2019> <15:59:03>      6      0.00001466      0.00000177      0.0
 <May18-2019> <15:59:04>      7      0.00000252      0.00000037      0.0
 <May18-2019> <15:59:04>  SCF converged
 <May18-2019> <15:59:05>      8      0.00000018      0.00000003      0.0
 <May18-2019> <15:59:05>  >>>> TOTEN
 <May18-2019> <15:59:07>  >>>> POPAN
 <May18-2019> <15:59:07>  >>>> DEBYE
 <May18-2019> <15:59:08>  >>>> ENGRAD
 <May18-2019> <15:59:12>  current energy                               -1.92904102 Hartree
 <May18-2019> <15:59:12>  energy change                       0.00004833     0.00010000    T
 <May18-2019> <15:59:12>  constrained gradient max            0.00000957     0.00010000    T
 <May18-2019> <15:59:12>  constrained gradient rms            0.00000376     0.00006667    T
 <May18-2019> <15:59:12>  gradient max                        0.00000957
 <May18-2019> <15:59:12>  gradient rms                        0.00000376
 <May18-2019> <15:59:12>  cart. step max                      0.00003341     0.01000000    T
 <May18-2019> <15:59:12>  cart. step rms                      0.00001851     0.00666667    T
 <May18-2019> <15:59:12>  GEOMETRY CONVERGED
 <May18-2019> <15:59:12>  Calculating Energy Terms for Final Geometry
  Coordinates in Geometry Cycle 7
    Atom         X           Y           Z   (Angstrom)
    1.B         0.000000    0.000000    0.000000
    2.C         0.000000    1.947573    0.000000
    3.O         0.000000    3.070552    0.000000
    4.C         0.000000    0.000000    1.947573
    5.O         0.000000    0.000000    3.070552
    6.C         0.000000   -1.947573    0.000000
    7.O         0.000000   -3.070552    0.000000
    8.C         0.000000    0.000000   -1.947573
    9.O         0.000000    0.000000   -3.070552
   10.C         1.947573    0.000000    0.000000
   11.O         3.070552    0.000000    0.000000
   12.C        -1.947573    0.000000    0.000000
   13.O        -3.070552    0.000000    0.000000
 <May18-2019> <15:59:12>  >>>> CORORT
 <May18-2019> <15:59:13>  >>>> CLSMAT
 <May18-2019> <15:59:13>  >>>> ORTHON
 <May18-2019> <15:59:13>  >>>> GENPT
 <May18-2019> <15:59:13>  Block Length= 128
 <May18-2019> <15:59:13>  >>>> PTBAS
 <May18-2019> <15:59:14>  >>>> CYCLE
 <May18-2019> <15:59:15>              |Error|         MaxErr       Wt(A-DIIS)
 <May18-2019> <15:59:15>      1      0.00000001      0.00000000
 <May18-2019> <15:59:16>      2      0.00000002      0.00000000    100.0
 <May18-2019> <15:59:17>  SCF converged
 <May18-2019> <15:59:18>      3      0.00000000      0.00000000    100.0
 <May18-2019> <15:59:18>  >>>> TOTEN
 <May18-2019> <15:59:22>  >>>> POPAN
 <May18-2019> <15:59:22>  >>>> DEBYE
 <May18-2019> <15:59:22>  >>>> AMETS
 <May18-2019> <15:59:22>  >>>> POPUL
 <May18-2019> <15:59:22>   Bond Energy          -1.92904102 a.u.
 <May18-2019> <15:59:22>   Bond Energy         -52.49187704 eV
 <May18-2019> <15:59:22>   Bond Energy       -1210.49       kcal/mol
 <May18-2019> <15:59:22>  >>>> ENHESS
 <May18-2019> <15:59:23>  === NUCLEUS:     1
 <May18-2019> <16:00:01>  === NUCLEUS:     2
 <May18-2019> <16:00:40>  === NUCLEUS:     8
 <May18-2019> <16:01:17>  >>>> CALC_HESS_PMAT
 <May18-2019> <16:01:26>  >>>> CALC_HESS_WMAT
 <May18-2019> <16:01:30>  NORMAL TERMINATION
 <May18-2019> <16:01:30>  END
