

 Parallel Execution: Process Information
 ==============================================================================
 Rank   Node Name                              NodeID   MyNodeRank  NodeMaster
    0   BAZIS-cn076                               0          0          0
    1   BAZIS-cn076                               0          1         -1
    2   BAZIS-cn076                               0          2         -1
    3   BAZIS-cn076                               0          3         -1
    4   BAZIS-cn076                               0          4         -1
    5   BAZIS-cn076                               0          5         -1
    6   BAZIS-cn076                               0          6         -1
    7   BAZIS-cn076                               0          7         -1
    8   BAZIS-cn076                               0          8         -1
    9   BAZIS-cn076                               0          9         -1
   10   BAZIS-cn076                               0         10         -1
   11   BAZIS-cn076                               0         11         -1
 ==============================================================================


May use up to 30736MB of RAM as shared memory on node 0


XC
    GGA BP86
END

SCF
    iterations 250
END

EPRINT
    SFO Eig Ovl
END

ZLMFIT
    Quality normal
END

BECKEGRID
    Quality good
End

SYMMETRY nosym
CHARGE -1

ATOMS
1.Br       -4.925127    3.099640   -0.045734 f=BrBr
2.Br       -3.744205    0.733961    0.329149 f=BrBr
3.Br       -6.106049    5.465319   -0.420616 f=Br
END

Fragments
BrBr /home/tcst25/advanced_comp_chemistry/exercise2/halogen/BrBrBr/frag1_BrBr.t21
Br /home/tcst25/advanced_comp_chemistry/exercise2/halogen/BrBrBr/frag2_Br.t21
End
end input

 *******************************************************************************
 *                                                                             *
 *  -------------------------------------                                      *
 *   Amsterdam Density Functional  (ADF)         2017                          *
 *  -------------------------------------                                      *
 *                                               r58813 2017-04-12             *
 *                                                                             *
 *                                                                             *
 *                              =================                              *
 *                              |               |                              *
 *                              |     A D F     |                              *
 *                              |               |                              *
 *                              =================                              *
 *                                                                             *
 *                                                                             *
 *   Online information and documentation:  https://www.scm.com/support/       *
 *   E-mail:  support@scm.com   info@scm.com                                   *
 *                                                                             *
 *   Scientific publications using ADF results must be properly referenced     *
 *   See the User Manuals (or the web site) for recommended citations          *
 *   The terms and conditions of the End User License Agreement apply to       *
 *   the use of ADF, https://www.scm.com/license-terms/                        *
 *                                                                             *
 **********************  x86_64_linux_intel / intelmpi  ************************
 
 Licensed to: VU/FEW (+ SARA) / ALGEMEEN / Amsterdam / THE NETHERLANDS
 SCM User ID: u7668
  
 ADF 2017  RunTime: May09-2019 17:11:56  Nodes: 1  Procs: 12

 Temporary files are created in /local/datastore0/tcst25/189765/kid_0.ofPpNP


Communication costs MPI_COMM_WORLD:      2.463 usec per message,   0.0111 usec per 8-byte item
Communication costs for intra-node:      2.475 usec per message,   0.0111 usec per 8-byte item

 *** (NO TITLE) ***



 ===========================
 A T T A C H E D   F I L E S
 ===========================
  



 ===============================
 M O D E L   P A R A M E T E R S
 ===============================
  
 DENSITY FUNCTIONAL POTENTIAL (scf)
    LDA:                               VWN                                      
    Gradient Corrections:              Becke88 Perdew86                        == Not Default ==

 SPIN  (restricted / unrestr.)
    Molecule:                          Restricted                               
    Fragments:                         Restricted                               

 OTHER ASPECTS
    Relativistic Corrections:          ---                                      

    Nuclear Charge Density Model:      Point Charge Nuclei                      
    Core Treatment:                    Frozen Orbital(s)                        

    Hyperfine or Zeeman Interaction:   ---                                      


 Fragment File(s)
 ----------------
 BrBr:
         file : /home/tcst25/advanced_comp_chemistry/exercise2/halogen/BrBrBr/frag1_BrBr.t21
         jobid: ADF 2017  RunTime: May09-2019 16:32:13  Nodes: 1  Procs: 12
         title: *** (NO TITLE) ***
 Br:
         file : /home/tcst25/advanced_comp_chemistry/exercise2/halogen/BrBrBr/frag2_Br.t21
         jobid: ADF 2017  RunTime: May09-2019 16:32:13  Nodes: 1  Procs: 12
         title: *** (NO TITLE) ***



                                        ************************************
                                        *  R U N   T Y P E : SINGLE POINT  *
                                        ************************************
  



 ===============
 G E O M E T R Y  ***  Linear Molecule  ***
 ===============
  

 ATOMS
 =====                            X Y Z                    CHARGE
                                (Angstrom)             Nucl     +Core       At.Mass
                       --------------------------    ----------------       -------
    1  Br             -4.9251    3.0996   -0.0457     35.00     35.00       78.9183
    2  Br             -3.7442    0.7340    0.3291     35.00     35.00       78.9183
    3  Br             -6.1060    5.4653   -0.4206     35.00     35.00       78.9183


 FRAGMENTS
 =========                                     Atoms in this Fragment     Cart. coord.s (Angstrom)
                                               -------------------------------------------------------
    1  BrBr                                              1  Br          -4.9251    3.0996   -0.0457
                                                         2  Br          -3.7442    0.7340    0.3291
    2  Br                                                3  Br          -6.1060    5.4653   -0.4206


 Interatomic Distance Matrix (Angstrom)
 --------------------------------------

   1)     0.000
   2)     2.670   0.000
   3)     2.670   5.341   0.000

 Min. Distance =    2.6705
 Max. Distance =    5.3410



 =====================================
 S Y M M E T R Y ,   E L E C T R O N S
 =====================================
  
 Symmetry: NOSYM

 Irreducible Representations, including subspecies
 -------------------------------------------------
 A


 Configuration of Valence Electrons
 ==================================
 ( determined in the SCF procedure )

 Total:   106

 Net Charge: -1 (Nuclei minus Electrons)

 Aufbau principle for MO occupations will be applied through SCF cycle no.     125
 Thereafter, the program will assign electrons to MOs that are spatially
 similar to the occupied MOs in a "reference" cycle ("KeepOrbitals").
 The reference cycle is always the PREVIOUS cycle: it will evolve with
 the SCF procedure.
1
 ***************************************************************************************************



                                      ****************************************
                                      *  B U I L D : (Fragments, Functions)  *
                                      ****************************************
  

 The individual fragments are copies of the corresponding 'Master' fragments defined on the fragment files.
 However, they may have been rotated (and translated) with respect to the Master. The local coordinate axes
 of each fragment (which define for instance the spatial orientation in the current molecule of a fragment
 P:x orbital) are not necessarily those of the molecule.
 The local frame (if different from the molecular one) is printed to enable an interpretation of the expan-
 sion of an MO in Fragment Orbitals.



                                             **************************
                                             *  Fragment Type : BrBr  *
                                             **************************
  

 Fragment no.    1   (in the list of all fragments)
 -----------------
 The local coordinate frame is identical to the molecular frame.

 Check Atomic Coordinates:

                  Master (on file)          After Computed Tranformation               As specified on Input
           ----------------------------     ----------------------------     ---------------------------------
     1)    -4.92513   3.09964  -0.04573     -4.92513   3.09964  -0.04573       1  -4.92513   3.09964  -0.04573
     2)    -3.74421   0.73396   0.32915     -3.74420   0.73396   0.32915       2  -3.74420   0.73396   0.32915



                                              ************************
                                              *  Fragment Type : Br  *
                                              ************************
  

 Fragment no.    2   (in the list of all fragments)
 -----------------
 The local coordinate frame is identical to the molecular frame.

 Check Atomic Coordinates:

                  Master (on file)          After Computed Tranformation               As specified on Input
           ----------------------------     ----------------------------     ---------------------------------
     1)    -6.10605   5.46532  -0.42062     -6.10605   5.46532  -0.42062       3  -6.10605   5.46532  -0.42062



 =======
 S F O s  ***  (Symmetrized Fragment Orbitals)  ***
 =======
  
 SFOs are linear combinations of (valence) Fragment Orbitals (FOs), such that the SFOs transform as the
 irreducible representations of the (molecular) symmetry group. Each SFO is therefore characterized by
 an irrep of the molecule and by a few (or only one) generating FOs.
 The SFOs constitute a symmetry-adapted basis for the Fock matrix. The MO eigenvector coefficients in
 this basis provide a direct interpretation of the MOs in terms of Frontier Orbital Theory.

 The SFOs are combined with auxiliary Core Functions (CFs) to ensure orthogonalization on the (frozen)
 Core Orbitals (COs). The Core-orthogonalized SFOs (CSFOs) constitute the true Fock basis.

 The FOs, and hence also the (C)SFOs are combinations of the elementary basis functions (BAS). The basis
 functions that participate in the description of the SFOs depend on the irrep. The indices of the
 involved functions are printed below for each irrep.
 (The complete list of primitive basis functions is printed in another section)

 Total nr. of (C)SFOs (summation over all irreps) :   168

 NOTE: a (C)SFO that is defined as a combination of more than one FO is usually NOT normalized.



                                       === A ===
 Nr. of SFOs :  168
 Cartesian basis functions that participate in this irrep (total number =   189) :
      1     2     3    10    11    36    37    38     4     7
     12    15    39    42    45     5     8    13    16    40
     43    46     6     9    14    17    41    44    47    18
     24    30    48    19    25    31    49    20    26    32
     50    21    27    33    51    22    28    34    52    23
     29    35    53    54    55    56    57    58    59    60
     61    62    63    64    65    66    73    74    99   100
    101    67    70    75    78   102   105   108    68    71
     76    79   103   106   109    69    72    77    80   104
    107   110    81    87    93   111    82    88    94   112
     83    89    95   113    84    90    96   114    85    91
     97   115    86    92    98   116   117   118   119   120
    121   122   123   124   125   126   127   128   129   136
    137   162   163   164   130   133   138   141   165   168
    171   131   134   139   142   166   169   172   132   135
    140   143   167   170   173   144   150   156   174   145
    151   157   175   146   152   158   176   147   153   159
    177   148   154   160   178   149   155   161   179   180
    181   182   183   184   185   186   187   188   189

    SFO  (index         Fragment          Generating    Expansion in Fragment Orbitals
  indx  incl.CFs)   Occup   Orb.Energy   FragmentType  Coeff.   Orbital     on Fragment
 --------------------------------------------------------------------------------------
     1       1      2.000    -481.040 au  BrBr          1.00      1 A               1
                        (  -13089.764 eV)
     2       2      2.000    -481.040 au  BrBr          1.00      2 A               1
                        (  -13089.764 eV)
     3       3      2.000     -61.795 au  BrBr          1.00      3 A               1
                        (   -1681.534 eV)
     4       4      2.000     -61.795 au  BrBr          1.00      4 A               1
                        (   -1681.534 eV)
     5       5      2.000     -55.730 au  BrBr          1.00      5 A               1
                        (   -1516.480 eV)
     6       6      2.000     -55.730 au  BrBr          1.00      6 A               1
                        (   -1516.480 eV)
     7       7      2.000     -55.723 au  BrBr          1.00      7 A               1
                        (   -1516.295 eV)
     8       8      2.000     -55.723 au  BrBr          1.00      8 A               1
                        (   -1516.295 eV)
     9       9      2.000     -55.723 au  BrBr          1.00      9 A               1
                        (   -1516.295 eV)
    10      10      2.000     -55.723 au  BrBr          1.00     10 A               1
                        (   -1516.295 eV)
    11      11      2.000      -8.415 au  BrBr          1.00     11 A               1
                        (    -228.988 eV)
    12      12      2.000      -8.415 au  BrBr          1.00     12 A               1
                        (    -228.985 eV)
    13      13      2.000      -6.328 au  BrBr          1.00     13 A               1
                        (    -172.185 eV)
    14      14      2.000      -6.328 au  BrBr          1.00     14 A               1
                        (    -172.185 eV)
    15      15      2.000      -6.308 au  BrBr          1.00     15 A               1
                        (    -171.656 eV)
    16      16      2.000      -6.308 au  BrBr          1.00     16 A               1
                        (    -171.656 eV)
    17      17      2.000      -6.308 au  BrBr          1.00     17 A               1
                        (    -171.656 eV)
    18      18      2.000      -6.308 au  BrBr          1.00     18 A               1
                        (    -171.656 eV)
    19      19      2.000      -2.532 au  BrBr          1.00     19 A               1
                        (     -68.898 eV)
    20      20      2.000      -2.532 au  BrBr          1.00     20 A               1
                        (     -68.889 eV)
    21      21      2.000      -2.527 au  BrBr          1.00     21 A               1
                        (     -68.767 eV)
    22      22      2.000      -2.527 au  BrBr          1.00     22 A               1
                        (     -68.767 eV)
    23      23      2.000      -2.527 au  BrBr          1.00     23 A               1
                        (     -68.765 eV)
    24      24      2.000      -2.527 au  BrBr          1.00     24 A               1
                        (     -68.765 eV)
    25      25      2.000      -2.513 au  BrBr          1.00     25 A               1
                        (     -68.381 eV)
    26      26      2.000      -2.513 au  BrBr          1.00     26 A               1
                        (     -68.381 eV)
    27      27      2.000      -2.513 au  BrBr          1.00     27 A               1
                        (     -68.380 eV)
    28      28      2.000      -2.513 au  BrBr          1.00     28 A               1
                        (     -68.380 eV)
    29      29      2.000      -0.742 au  BrBr          1.00     29 A               1
                        (     -20.185 eV)
    30      30      2.000      -0.694 au  BrBr          1.00     30 A               1
                        (     -18.880 eV)
    31      31      2.000      -0.369 au  BrBr          1.00     31 A               1
                        (     -10.045 eV)
    32      32      2.000      -0.303 au  BrBr          1.00     32 A               1
                        (      -8.238 eV)
    33      33      2.000      -0.303 au  BrBr          1.00     33 A               1
                        (      -8.238 eV)
    34      34      2.000      -0.265 au  BrBr          1.00     34 A               1
                        (      -7.207 eV)
    35      35      2.000      -0.265 au  BrBr          1.00     35 A               1
                        (      -7.207 eV)
    36      36       --        -0.229 au  BrBr          1.00     36 A               1
                        (      -6.222 eV)
    37      37       --         0.092 au  BrBr          1.00     37 A               1
                        (       2.512 eV)
    38      38       --         0.122 au  BrBr          1.00     38 A               1
                        (       3.315 eV)
    39      39       --         0.127 au  BrBr          1.00     39 A               1
                        (       3.445 eV)
    40      40       --         0.127 au  BrBr          1.00     40 A               1
                        (       3.445 eV)
    41      41       --         0.165 au  BrBr          1.00     41 A               1
                        (       4.487 eV)
    42      42       --         0.165 au  BrBr          1.00     42 A               1
                        (       4.487 eV)
    43      43       --         0.185 au  BrBr          1.00     43 A               1
                        (       5.022 eV)
    44      44       --         0.185 au  BrBr          1.00     44 A               1
                        (       5.023 eV)
    45      45       --         0.213 au  BrBr          1.00     45 A               1
                        (       5.787 eV)
    46      46       --         0.239 au  BrBr          1.00     46 A               1
                        (       6.491 eV)
    47      47       --         0.239 au  BrBr          1.00     47 A               1
                        (       6.491 eV)
    48      48       --         0.296 au  BrBr          1.00     48 A               1
                        (       8.054 eV)
    49      49       --         0.296 au  BrBr          1.00     49 A               1
                        (       8.054 eV)
    50      50       --         0.315 au  BrBr          1.00     50 A               1
                        (       8.566 eV)
    51      51       --         0.315 au  BrBr          1.00     51 A               1
                        (       8.575 eV)
    52      52       --         0.400 au  BrBr          1.00     52 A               1
                        (      10.890 eV)
    53      53       --         0.400 au  BrBr          1.00     53 A               1
                        (      10.890 eV)
    54      54       --         0.669 au  BrBr          1.00     54 A               1
                        (      18.203 eV)
    55      55       --         0.761 au  BrBr          1.00     55 A               1
                        (      20.703 eV)
    56      56       --         0.761 au  BrBr          1.00     56 A               1
                        (      20.703 eV)
    57      57       --         0.791 au  BrBr          1.00     57 A               1
                        (      21.528 eV)
    58      58       --         0.791 au  BrBr          1.00     58 A               1
                        (      21.528 eV)
    59      59       --         0.830 au  BrBr          1.00     59 A               1
                        (      22.585 eV)
    60      60       --         0.830 au  BrBr          1.00     60 A               1
                        (      22.585 eV)
    61      61       --         0.853 au  BrBr          1.00     61 A               1
                        (      23.225 eV)
    62      62       --         0.888 au  BrBr          1.00     62 A               1
                        (      24.162 eV)
    63      63       --         0.888 au  BrBr          1.00     63 A               1
                        (      24.162 eV)
    64      64       --         0.983 au  BrBr          1.00     64 A               1
                        (      26.762 eV)
    65      65       --         0.983 au  BrBr          1.00     65 A               1
                        (      26.762 eV)
    66      66       --         1.026 au  BrBr          1.00     66 A               1
                        (      27.912 eV)
    67      67       --         1.067 au  BrBr          1.00     67 A               1
                        (      29.032 eV)
    68      68       --         1.067 au  BrBr          1.00     68 A               1
                        (      29.033 eV)
    69      69       --         1.198 au  BrBr          1.00     69 A               1
                        (      32.600 eV)
    70      70       --         1.198 au  BrBr          1.00     70 A               1
                        (      32.600 eV)
    71      71       --         1.199 au  BrBr          1.00     71 A               1
                        (      32.618 eV)
    72      72       --         1.340 au  BrBr          1.00     72 A               1
                        (      36.460 eV)
    73      73       --         1.340 au  BrBr          1.00     73 A               1
                        (      36.460 eV)
    74      74       --         1.683 au  BrBr          1.00     74 A               1
                        (      45.802 eV)
    75      75       --         2.443 au  BrBr          1.00     75 A               1
                        (      66.484 eV)
    76      76       --         2.619 au  BrBr          1.00     76 A               1
                        (      71.274 eV)
    77      77       --         2.619 au  BrBr          1.00     77 A               1
                        (      71.274 eV)
    78      78       --         2.650 au  BrBr          1.00     78 A               1
                        (      72.111 eV)
    79      79       --         2.650 au  BrBr          1.00     79 A               1
                        (      72.111 eV)
    80      80       --         2.735 au  BrBr          1.00     80 A               1
                        (      74.428 eV)
    81      81       --         2.736 au  BrBr          1.00     81 A               1
                        (      74.451 eV)
    82      82       --         2.736 au  BrBr          1.00     82 A               1
                        (      74.451 eV)
    83      83       --         2.903 au  BrBr          1.00     83 A               1
                        (      79.008 eV)
    84      84       --         3.012 au  BrBr          1.00     84 A               1
                        (      81.961 eV)
    85      85       --         3.012 au  BrBr          1.00     85 A               1
                        (      81.961 eV)
    86      86       --         3.624 au  BrBr          1.00     86 A               1
                        (      98.610 eV)
    87      87       --         8.793 au  BrBr          1.00     87 A               1
                        (     239.282 eV)
    88      88       --         8.793 au  BrBr          1.00     88 A               1
                        (     239.283 eV)
    89      89       --         8.917 au  BrBr          1.00     89 A               1
                        (     242.656 eV)
    90      90       --         8.959 au  BrBr          1.00     90 A               1
                        (     243.783 eV)
    91      91       --         8.959 au  BrBr          1.00     91 A               1
                        (     243.784 eV)
    92      92       --         9.400 au  BrBr          1.00     92 A               1
                        (     255.784 eV)
    93      93       --        14.316 au  BrBr          1.00     93 A               1
                        (     389.547 eV)
    94      94       --        14.979 au  BrBr          1.00     94 A               1
                        (     407.600 eV)
    95      95       --        20.527 au  BrBr          1.00     95 A               1
                        (     558.556 eV)
    96      96       --        20.527 au  BrBr          1.00     96 A               1
                        (     558.556 eV)
    97      97       --        20.557 au  BrBr          1.00     97 A               1
                        (     559.371 eV)
    98      98       --        20.557 au  BrBr          1.00     98 A               1
                        (     559.371 eV)
    99      99       --        20.674 au  BrBr          1.00     99 A               1
                        (     562.579 eV)
   100     100       --        20.674 au  BrBr          1.00    100 A               1
                        (     562.579 eV)
   101     101       --        20.851 au  BrBr          1.00    101 A               1
                        (     567.385 eV)
   102     102       --        21.040 au  BrBr          1.00    102 A               1
                        (     572.522 eV)
   103     103       --        21.040 au  BrBr          1.00    103 A               1
                        (     572.522 eV)
   104     104       --        21.695 au  BrBr          1.00    104 A               1
                        (     590.353 eV)
   105     105       --       100.773 au  BrBr          1.00    105 A               1
                        (    2742.180 eV)
   106     106       --       100.773 au  BrBr          1.00    106 A               1
                        (    2742.180 eV)
   107     107       --       101.067 au  BrBr          1.00    107 A               1
                        (    2750.183 eV)
   108     108       --       101.143 au  BrBr          1.00    108 A               1
                        (    2752.252 eV)
   109     109       --       101.143 au  BrBr          1.00    109 A               1
                        (    2752.252 eV)
   110     110       --       102.117 au  BrBr          1.00    110 A               1
                        (    2778.732 eV)
   111     111       --       746.628 au  BrBr          1.00    111 A               1
                        (   20316.792 eV)
   112     112       --       749.618 au  BrBr          1.00    112 A               1
                        (   20398.144 eV)
   113     113      2.000    -480.688 au  Br            1.00      1 A               2
                        (  -13080.195 eV)
   114     114      2.000     -61.445 au  Br            1.00      2 A               2
                        (   -1672.008 eV)
   115     115      2.000     -55.375 au  Br            1.00      3 A               2
                        (   -1506.824 eV)
   116     116      2.000     -55.375 au  Br            1.00      4 A               2
                        (   -1506.824 eV)
   117     117      2.000     -55.375 au  Br            1.00      5 A               2
                        (   -1506.824 eV)
   118     118      2.000      -8.066 au  Br            1.00      6 A               2
                        (    -219.480 eV)
   119     119      2.000      -5.966 au  Br            1.00      7 A               2
                        (    -162.330 eV)
   120     120      2.000      -5.966 au  Br            1.00      8 A               2
                        (    -162.330 eV)
   121     121      2.000      -5.966 au  Br            1.00      9 A               2
                        (    -162.330 eV)
   122     122      2.000      -2.173 au  Br            1.00     10 A               2
                        (     -59.143 eV)
   123     123      2.000      -2.173 au  Br            1.00     11 A               2
                        (     -59.143 eV)
   124     124      2.000      -2.173 au  Br            1.00     12 A               2
                        (     -59.143 eV)
   125     125      2.000      -2.173 au  Br            1.00     13 A               2
                        (     -59.143 eV)
   126     126      2.000      -2.173 au  Br            1.00     14 A               2
                        (     -59.143 eV)
   127     127      2.000      -0.386 au  Br            1.00     15 A               2
                        (     -10.500 eV)
   128     128      2.000       0.016 au  Br            1.00     16 A               2
                        (       0.447 eV)
   129     129      2.000       0.016 au  Br            1.00     17 A               2
                        (       0.447 eV)
   130     130      2.000       0.016 au  Br            1.00     18 A               2
                        (       0.447 eV)
   131     131       --         0.352 au  Br            1.00     19 A               2
                        (       9.589 eV)
   132     132       --         0.352 au  Br            1.00     20 A               2
                        (       9.589 eV)
   133     133       --         0.352 au  Br            1.00     21 A               2
                        (       9.589 eV)
   134     134       --         0.501 au  Br            1.00     22 A               2
                        (      13.634 eV)
   135     135       --         0.551 au  Br            1.00     23 A               2
                        (      15.005 eV)
   136     136       --         0.551 au  Br            1.00     24 A               2
                        (      15.005 eV)
   137     137       --         0.551 au  Br            1.00     25 A               2
                        (      15.005 eV)
   138     138       --         0.551 au  Br            1.00     26 A               2
                        (      15.005 eV)
   139     139       --         0.551 au  Br            1.00     27 A               2
                        (      15.005 eV)
   140     140       --         1.141 au  Br            1.00     28 A               2
                        (      31.038 eV)
   141     141       --         1.141 au  Br            1.00     29 A               2
                        (      31.038 eV)
   142     142       --         1.141 au  Br            1.00     30 A               2
                        (      31.038 eV)
   143     143       --         1.141 au  Br            1.00     31 A               2
                        (      31.038 eV)
   144     144       --         1.141 au  Br            1.00     32 A               2
                        (      31.038 eV)
   145     145       --         1.141 au  Br            1.00     33 A               2
                        (      31.038 eV)
   146     146       --         1.141 au  Br            1.00     34 A               2
                        (      31.038 eV)
   147     147       --         1.505 au  Br            1.00     35 A               2
                        (      40.949 eV)
   148     148       --         1.505 au  Br            1.00     36 A               2
                        (      40.949 eV)
   149     149       --         1.505 au  Br            1.00     37 A               2
                        (      40.949 eV)
   150     150       --         2.776 au  Br            1.00     38 A               2
                        (      75.551 eV)
   151     151       --         3.002 au  Br            1.00     39 A               2
                        (      81.690 eV)
   152     152       --         3.002 au  Br            1.00     40 A               2
                        (      81.690 eV)
   153     153       --         3.002 au  Br            1.00     41 A               2
                        (      81.690 eV)
   154     154       --         3.002 au  Br            1.00     42 A               2
                        (      81.690 eV)
   155     155       --         3.002 au  Br            1.00     43 A               2
                        (      81.690 eV)
   156     156       --         9.163 au  Br            1.00     44 A               2
                        (     249.341 eV)
   157     157       --         9.163 au  Br            1.00     45 A               2
                        (     249.341 eV)
   158     158       --         9.163 au  Br            1.00     46 A               2
                        (     249.341 eV)
   159     159       --        14.623 au  Br            1.00     47 A               2
                        (     397.911 eV)
   160     160       --        20.941 au  Br            1.00     48 A               2
                        (     569.821 eV)
   161     161       --        20.941 au  Br            1.00     49 A               2
                        (     569.821 eV)
   162     162       --        20.941 au  Br            1.00     50 A               2
                        (     569.821 eV)
   163     163       --        20.941 au  Br            1.00     51 A               2
                        (     569.821 eV)
   164     164       --        20.941 au  Br            1.00     52 A               2
                        (     569.821 eV)
   165     165       --       101.209 au  Br            1.00     53 A               2
                        (    2754.029 eV)
   166     166       --       101.209 au  Br            1.00     54 A               2
                        (    2754.029 eV)
   167     167       --       101.209 au  Br            1.00     55 A               2
                        (    2754.029 eV)
   168     168       --       746.807 au  Br            1.00     56 A               2
                        (   20321.657 eV)



 ================================
 (Slater-type)  F U N C T I O N S  ***  (Basis and Fit)  ***
 ================================
  

 Atom Type    1  (Br)
 ==============

 Valence Basis Sets:  20
 -----------------------
   1 S   41.300000
   1 S   32.800000
   2 S   13.900000
   2 P   19.450000
   2 P   13.100000
   3 S    7.200000
   3 S    4.950000
   3 P    7.900000
   3 P    5.050000
   3 D   10.900000
   3 D    6.050000
   3 D    3.500000
   4 S    4.500000
   4 S    2.800000
   4 S    1.800000
   4 P    3.250000
   4 P    1.950000
   4 P    1.200000
   4 D    1.800000
   4 F    1.800000

 Atom Type    2  (Br)
 ==============

 Valence Basis Sets:  20
 -----------------------
   1 S   41.300000
   1 S   32.800000
   2 S   13.900000
   2 P   19.450000
   2 P   13.100000
   3 S    7.200000
   3 S    4.950000
   3 P    7.900000
   3 P    5.050000
   3 D   10.900000
   3 D    6.050000
   3 D    3.500000
   4 S    4.500000
   4 S    2.800000
   4 S    1.800000
   4 P    3.250000
   4 P    1.950000
   4 P    1.200000
   4 D    1.800000
   4 F    1.800000


 BAS: List of all Elementary Cartesian Basis Functions
 =====================================================

 The numbering in the list below (to the right of the function characteristics) is referred
 to in print-outs of MO eigenvectors and Mulliken populations in the BAS representation
 (as contrasted to the SFO representation).

 Notes:
 1. The functions are characterized by a polynomial prefactor (powers of x,y,z and r) and
    an exponential decay factor alpha.
 2. Since the basis sets are specific for an atom TYPE, the individual functions occur on
    all atoms of that type.
 3. The word 'Core' in the left margin signals that it is a Core Function (CF) : not a
    degree of freedom in the valence set, but only used to ensure orthogonalization of
    the other valence basis functions on the frozen Core Orbitals.


 (power of) X  Y  Z  R     Alpha  on Atom
            ==========     =====     ==========

 Br                                   1    2
                                  ---------------------------------------------------------------------------
            0  0  0  0    41.300      1   64
            0  0  0  0    32.800      2   65
            0  0  0  1    13.900      3   66
            1  0  0  0    19.450      4   67
            0  1  0  0    19.450      5   68
            0  0  1  0    19.450      6   69
            1  0  0  0    13.100      7   70
            0  1  0  0    13.100      8   71
            0  0  1  0    13.100      9   72
            0  0  0  2     7.200     10   73
            0  0  0  2     4.950     11   74
            1  0  0  1     7.900     12   75
            0  1  0  1     7.900     13   76
            0  0  1  1     7.900     14   77
            1  0  0  1     5.050     15   78
            0  1  0  1     5.050     16   79
            0  0  1  1     5.050     17   80
            2  0  0  0    10.900     18   81
            1  1  0  0    10.900     19   82
            1  0  1  0    10.900     20   83
            0  2  0  0    10.900     21   84
            0  1  1  0    10.900     22   85
            0  0  2  0    10.900     23   86
            2  0  0  0     6.050     24   87
            1  1  0  0     6.050     25   88
            1  0  1  0     6.050     26   89
            0  2  0  0     6.050     27   90
            0  1  1  0     6.050     28   91
            0  0  2  0     6.050     29   92
            2  0  0  0     3.500     30   93
            1  1  0  0     3.500     31   94
            1  0  1  0     3.500     32   95
            0  2  0  0     3.500     33   96
            0  1  1  0     3.500     34   97
            0  0  2  0     3.500     35   98
            0  0  0  3     4.500     36   99
            0  0  0  3     2.800     37  100
            0  0  0  3     1.800     38  101
            1  0  0  2     3.250     39  102
            0  1  0  2     3.250     40  103
            0  0  1  2     3.250     41  104
            1  0  0  2     1.950     42  105
            0  1  0  2     1.950     43  106
            0  0  1  2     1.950     44  107
            1  0  0  2     1.200     45  108
            0  1  0  2     1.200     46  109
            0  0  1  2     1.200     47  110
            2  0  0  1     1.800     48  111
            1  1  0  1     1.800     49  112
            1  0  1  1     1.800     50  113
            0  2  0  1     1.800     51  114
            0  1  1  1     1.800     52  115
            0  0  2  1     1.800     53  116
            3  0  0  0     1.800     54  117
            2  1  0  0     1.800     55  118
            2  0  1  0     1.800     56  119
            1  2  0  0     1.800     57  120
            1  1  1  0     1.800     58  121
            1  0  2  0     1.800     59  122
            0  3  0  0     1.800     60  123
            0  2  1  0     1.800     61  124
            0  1  2  0     1.800     62  125
            0  0  3  0     1.800     63  126

 Br                                   3
                                  ---------------------------------------------------------------------------
            0  0  0  0    41.300    127
            0  0  0  0    32.800    128
            0  0  0  1    13.900    129
            1  0  0  0    19.450    130
            0  1  0  0    19.450    131
            0  0  1  0    19.450    132
            1  0  0  0    13.100    133
            0  1  0  0    13.100    134
            0  0  1  0    13.100    135
            0  0  0  2     7.200    136
            0  0  0  2     4.950    137
            1  0  0  1     7.900    138
            0  1  0  1     7.900    139
            0  0  1  1     7.900    140
            1  0  0  1     5.050    141
            0  1  0  1     5.050    142
            0  0  1  1     5.050    143
            2  0  0  0    10.900    144
            1  1  0  0    10.900    145
            1  0  1  0    10.900    146
            0  2  0  0    10.900    147
            0  1  1  0    10.900    148
            0  0  2  0    10.900    149
            2  0  0  0     6.050    150
            1  1  0  0     6.050    151
            1  0  1  0     6.050    152
            0  2  0  0     6.050    153
            0  1  1  0     6.050    154
            0  0  2  0     6.050    155
            2  0  0  0     3.500    156
            1  1  0  0     3.500    157
            1  0  1  0     3.500    158
            0  2  0  0     3.500    159
            0  1  1  0     3.500    160
            0  0  2  0     3.500    161
            0  0  0  3     4.500    162
            0  0  0  3     2.800    163
            0  0  0  3     1.800    164
            1  0  0  2     3.250    165
            0  1  0  2     3.250    166
            0  0  1  2     3.250    167
            1  0  0  2     1.950    168
            0  1  0  2     1.950    169
            0  0  1  2     1.950    170
            1  0  0  2     1.200    171
            0  1  0  2     1.200    172
            0  0  1  2     1.200    173
            2  0  0  1     1.800    174
            1  1  0  1     1.800    175
            1  0  1  1     1.800    176
            0  2  0  1     1.800    177
            0  1  1  1     1.800    178
            0  0  2  1     1.800    179
            3  0  0  0     1.800    180
            2  1  0  0     1.800    181
            2  0  1  0     1.800    182
            1  2  0  0     1.800    183
            1  1  1  0     1.800    184
            1  0  2  0     1.800    185
            0  3  0  0     1.800    186
            0  2  1  0     1.800    187
            0  1  2  0     1.800    188
            0  0  3  0     1.800    189

 Total number of charge fitting functions (nprimf)       510
 Total number of Cartesian basis functions (naos)        189
 Total number of Cartesian core functions  (ncos)          0

1
 ***************************************************************************************************



                                              ***********************
                                              *  T E C H N I C A L  *
                                              ***********************
  



 =============================================================
 P A R A L L E L I Z A T I O N  and  V E C T O R I Z A T I O N
 =============================================================
  
 Nr of parallel processes:                               12
 Maximum vector length in NumInt loops:                 128

 IO buffersize (Mb):                                     64.000000



 =====================
 S C F   U P D A T E S
 =====================
  
 Max. nr. of cycles:                               250
 Convergence criterion:                              0.0000010000
   secondary criterion:                              0.0010000000

 Mix parameter (when DIIS does not apply):           0.2000000000
 Mixed ADIIS+DIIS will be used
    Max number of expansion vectors:                10
    Pure ADIIS when Max([F,P]) is above              0.1000000000
    Pure DIIS when Max([F,P]) is below               0.0010000000
 Automatic ElectronSmearing (in case of problematic SCF convergence) disabled



 =================
 P R E C I S I O N  ***  (General: NumInt, NeglectFunctionTails, ...)  ***
 =================
  

 NumInt:           Target precision:                 6.0000000000
 -------           Initial precision:                6.0000000000
                   Min. precision (optimization):    6.0000000000

 Neglect Functions:          Basis functions:        0.1000000000E-07
 ------------------          Fit functions:          0.1000000000E-07



 ===========================
 L I N E A R   S C A L I N G
 ===========================
  

 Cut-off radii density fit:                        0.1000000000E-09
 Overlap cut-off criterion AO matrix elements:     0.1000000000E-07
 Cut-offs for Coulomb potential and fitted density:0.1000000000E-09
 Cut-off criterion for Coulomb multipole terms:    0.1000000000E-09
 Progressive Convergence parameter:                 0.000000000    
1
 ***************************************************************************************************



                                            ***************************
                                            *  C O M P U T A T I O N  *
                                            ***************************
  

 Number of elements of the density matrix on this node (used, total):      2016     17955



 ===========================================
 Numerical Integration : Fuzzy Cells (Becke)
 ===========================================
  
 Becke grid quality: GOOD           
  
 Lebedev angular grid order:             min:  11 max:  31
 Nr. of radial points:                   min:  90 max:  90

 Total nr. of points:      58206
 Nr. of blocks:              455
 Block length:               128
 Nr. of dummy points:         34


 Test of Precision of the Numerical Integration Grid
 ===================================================

 Integral of the Total Core Density:                   0.00000000000000



 ========================
 Density Fitting (zlmFit)
 ========================
  
 ZlmFit Fit Quality: NORMAL         
  
 Max L-expansion:                        min:   7 max:   7
 Nr. of radial interpolation points:     min:  72 max:  72



 =====
 S C F  ***  ScaSCF  ***
 =====
  
 Initial density matrix is calculated as sum of fragments

 CYCLE    1
 SCF Error: norm([F,P])=      1.732296059652, max([F,P])=      0.721947927875
 orbitals (Q,E):
 ---------------
 A :44...63          ( 2.00    -0.5450)  ( 2.00    -0.4221)  ( 2.00    -0.2512)  ( 2.00    -0.2040)
                     ( 2.00    -0.2040)  ( 2.00    -0.1155)  ( 2.00    -0.1155)  ( 2.00    -0.1101)
                     ( 2.00    -0.0110)  ( 2.00    -0.0110)  ( 0.00     0.0329)  ( 0.00     0.1880)
                     ( 0.00     0.2344)  ( 0.00     0.2344)  ( 0.00     0.2451)  ( 0.00     0.2846)
                     ( 0.00     0.2846)  ( 0.00     0.3167)  ( 0.00     0.3167)  ( 0.00     0.3363)

 CYCLE    2
  SDIIS (wt  0.000):  0.2071  0.7929
 A-DIIS (wt  1.000):  0.9118  0.0882
  DIIS coefficients:  0.9118  0.0882
 SCF Error: norm([F,P])=      0.861646268596, max([F,P])=      0.378207275820
 orbitals (Q,E):
 ---------------
 A :44...54          ( 2.00    -0.5342)  ( 2.00    -0.4558)  ( 2.00    -0.2268)  ( 2.00    -0.1731)
                     ( 2.00    -0.1731)  ( 2.00    -0.1082)  ( 2.00    -0.1077)  ( 2.00    -0.1077)
                     ( 2.00    -0.0403)  ( 2.00    -0.0403)  ( 0.00     0.0156)

 CYCLE    3
  SDIIS (wt  0.000):  0.0409 -1.3885  2.3476
 A-DIIS (wt  1.000):  0.8695  0.0000  0.1305
  DIIS coefficients:  0.8695  0.0000  0.1305
 SCF Error: norm([F,P])=      0.576723735746, max([F,P])=      0.279485093664
 orbitals (Q,E):
 ---------------
 A :44...54          ( 2.00    -0.5362)  ( 2.00    -0.4591)  ( 2.00    -0.2242)  ( 2.00    -0.1679)
                     ( 2.00    -0.1679)  ( 2.00    -0.1097)  ( 2.00    -0.1097)  ( 2.00    -0.1085)
                     ( 2.00    -0.0435)  ( 2.00    -0.0435)  ( 0.00     0.0129)

 CYCLE    4
  SDIIS (wt  0.000): -1.3028 -0.6972  3.0000
 A-DIIS (wt  1.000):  0.0000  0.0000  1.0000
  DIIS coefficients:  0.0000  0.0000  1.0000
 SCF Error: norm([F,P])=      0.551609463976, max([F,P])=      0.273817967087
 orbitals (Q,E):
 ---------------
 A :44...54          ( 2.00    -0.5163)  ( 2.00    -0.3235)  ( 2.00    -0.2957)  ( 2.00    -0.2835)
                     ( 2.00    -0.2835)  ( 2.00    -0.0856)  ( 2.00    -0.0856)  ( 2.00    -0.0737)
                     ( 2.00     0.0778)  ( 2.00     0.0778)  ( 0.00     0.1111)

 CYCLE    5
  SDIIS (wt  0.000): -0.7833 -1.3377  3.0000  0.1210
 A-DIIS (wt  1.000):  0.0000  0.0000  0.7766  0.2234
  DIIS coefficients:  0.0000  0.0000  0.7766  0.2234
 SCF Error: norm([F,P])=      1.511836716864, max([F,P])=      0.455966922018
 orbitals (Q,E):
 ---------------
 A :44...54          ( 2.00    -0.5006)  ( 2.00    -0.4563)  ( 2.00    -0.2014)  ( 2.00    -0.1552)
                     ( 2.00    -0.1552)  ( 2.00    -0.0965)  ( 2.00    -0.0809)  ( 2.00    -0.0809)
                     ( 2.00    -0.0431)  ( 2.00    -0.0431)  ( 0.00     0.0301)

 CYCLE    6
  SDIIS (wt  0.000): -0.1906 -2.0000  2.7446  0.0073  0.4387
 A-DIIS (wt  1.000):  0.0000  0.0000  0.4218  0.0000  0.5782
  DIIS coefficients:  0.0000  0.0000  0.4218  0.0000  0.5782
 SCF Error: norm([F,P])=      0.467320222589, max([F,P])=      0.155033703760
 orbitals (Q,E):
 ---------------
 A :44...54          ( 2.00    -0.5097)  ( 2.00    -0.4881)  ( 2.00    -0.2125)  ( 2.00    -0.1492)
                     ( 2.00    -0.1492)  ( 2.00    -0.0951)  ( 2.00    -0.0908)  ( 2.00    -0.0908)
                     ( 2.00    -0.0738)  ( 2.00    -0.0738)  ( 0.00    -0.0027)

 CYCLE    7
  SDIIS (wt  0.047): -0.3272  0.9500 -0.3627 -0.0509  0.3166  0.4742
 A-DIIS (wt  0.953):  0.0000  0.0000  0.0844  0.0000  0.1417  0.7739
  DIIS coefficients: -0.0155  0.0449  0.0633 -0.0024  0.1500  0.7598
 SCF Error: norm([F,P])=      0.276263560802, max([F,P])=      0.095324861464
 orbitals (Q,E):
 ---------------
 A :44...54          ( 2.00    -0.5222)  ( 2.00    -0.4747)  ( 2.00    -0.1898)  ( 2.00    -0.1258)
                     ( 2.00    -0.1258)  ( 2.00    -0.1068)  ( 2.00    -0.1004)  ( 2.00    -0.1004)
                     ( 2.00    -0.0578)  ( 2.00    -0.0578)  ( 0.00     0.0183)

 CYCLE    8
  SDIIS (wt  0.000): -0.0917 -0.0155  0.1798 -0.0062  0.0996  0.5378  0.2963
 A-DIIS (wt  1.000):  0.0000  0.0000  0.0000  0.0000  0.0000  0.6491  0.3509
  DIIS coefficients:  0.0000  0.0000  0.0000  0.0000  0.0000  0.6491  0.3509
 SCF Error: norm([F,P])=      0.410960845865, max([F,P])=      0.137973613323
 orbitals (Q,E):
 ---------------
 A :44...54          ( 2.00    -0.5208)  ( 2.00    -0.4890)  ( 2.00    -0.1987)  ( 2.00    -0.1274)
                     ( 2.00    -0.1274)  ( 2.00    -0.1028)  ( 2.00    -0.0998)  ( 2.00    -0.0998)
                     ( 2.00    -0.0721)  ( 2.00    -0.0721)  ( 0.00     0.0058)

 CYCLE    9
  SDIIS (wt  0.626): -0.0008 -0.6788  0.7519 -0.0075  0.0254  0.3238  0.1445  0.4414
 A-DIIS (wt  0.374):  0.0000  0.0000  0.0000  0.0000  0.0000  0.1625  0.0000  0.8375
  DIIS coefficients: -0.0005 -0.4249  0.4707 -0.0047  0.0159  0.2635  0.0905  0.5896
 SCF Error: norm([F,P])=      0.114902663898, max([F,P])=      0.038030255911
 orbitals (Q,E):
 ---------------
 A :44...54          ( 2.00    -0.5174)  ( 2.00    -0.4893)  ( 2.00    -0.2033)  ( 2.00    -0.1336)
                     ( 2.00    -0.1336)  ( 2.00    -0.1000)  ( 2.00    -0.0969)  ( 2.00    -0.0969)
                     ( 2.00    -0.0734)  ( 2.00    -0.0734)  ( 0.00     0.0024)

 CYCLE   10
  SDIIS (wt  0.626): -0.0053  0.2385 -0.2615 -0.0008 -0.0008  0.0693 -0.0299  0.4571  0.5334
 A-DIIS (wt  0.374):  0.0000  0.0000  0.0000  0.0000  0.0000  0.0000  0.0000  0.4791  0.5209
  DIIS coefficients: -0.0033  0.1493 -0.1637 -0.0005 -0.0005  0.0434 -0.0187  0.4653  0.5287
 SCF Error: norm([F,P])=      0.093640585252, max([F,P])=      0.041238581399
 orbitals (Q,E):
 ---------------
 A :44...54          ( 2.00    -0.5170)  ( 2.00    -0.4904)  ( 2.00    -0.2026)  ( 2.00    -0.1326)
                     ( 2.00    -0.1326)  ( 2.00    -0.1004)  ( 2.00    -0.0967)  ( 2.00    -0.0967)
                     ( 2.00    -0.0742)  ( 2.00    -0.0742)  ( 0.00     0.0025)

 CYCLE   11
  SDIIS (wt  0.875): -0.0036  0.0782 -0.0848 -0.0004 -0.0039  0.0011  0.0006  0.2191  0.3200  0.4738
 A-DIIS (wt  0.125):  0.0000  0.0000  0.0000  0.0000  0.0000  0.0000  0.0000  0.0000  0.1315  0.8685
  DIIS coefficients: -0.0031  0.0684 -0.0741 -0.0004 -0.0034  0.0009  0.0005  0.1916  0.2964  0.5233
 SCF Error: norm([F,P])=      0.032464074801, max([F,P])=      0.013417363957
 orbitals (Q,E):
 ---------------
 A :44...54          ( 2.00    -0.5177)  ( 2.00    -0.4903)  ( 2.00    -0.2014)  ( 2.00    -0.1309)
                     ( 2.00    -0.1309)  ( 2.00    -0.1008)  ( 2.00    -0.0972)  ( 2.00    -0.0972)
                     ( 2.00    -0.0738)  ( 2.00    -0.0738)  ( 0.00     0.0034)

 CYCLE   12
  SDIIS (wt  0.972):  0.0159 -0.0188  0.0000 -0.0025 -0.0010 -0.0015  0.0699  0.1011  0.2859  0.5509
 A-DIIS (wt  0.028):  0.0000  0.0000  0.0000  0.0000  0.0000  0.0000  0.0000  0.0000  0.1193  0.8807
  DIIS coefficients:  0.0155 -0.0183  0.0000 -0.0025 -0.0009 -0.0014  0.0679  0.0983  0.2813  0.5601
 SCF Error: norm([F,P])=      0.008916174260, max([F,P])=      0.003741635579
 orbitals (Q,E):
 ---------------
 A :44...54          ( 2.00    -0.5175)  ( 2.00    -0.4904)  ( 2.00    -0.2017)  ( 2.00    -0.1314)
                     ( 2.00    -0.1314)  ( 2.00    -0.1007)  ( 2.00    -0.0971)  ( 2.00    -0.0971)
                     ( 2.00    -0.0740)  ( 2.00    -0.0740)  ( 0.00     0.0032)

 CYCLE   13
  SDIIS (wt  1.000): -0.0003  0.0000 -0.0008 -0.0003 -0.0002  0.0184  0.0267  0.1039  0.2660  0.5866
  DIIS coefficients: -0.0003  0.0000 -0.0008 -0.0003 -0.0002  0.0184  0.0267  0.1039  0.2660  0.5866
 SCF Error: norm([F,P])=      0.000448765806, max([F,P])=      0.000185048059
 orbitals (Q,E):
 ---------------
 A :44...54          ( 2.00    -0.5175)  ( 2.00    -0.4904)  ( 2.00    -0.2017)  ( 2.00    -0.1314)
                     ( 2.00    -0.1314)  ( 2.00    -0.1007)  ( 2.00    -0.0971)  ( 2.00    -0.0971)
                     ( 2.00    -0.0740)  ( 2.00    -0.0740)  ( 0.00     0.0032)

 CYCLE   14
  SDIIS (wt  1.000): -0.0000 -0.0002 -0.0002 -0.0002  0.0032  0.0046  0.0266  0.0886  0.2758  0.6018
  DIIS coefficients: -0.0000 -0.0002 -0.0002 -0.0002  0.0032  0.0046  0.0266  0.0886  0.2758  0.6018
 SCF Error: norm([F,P])=      0.000074532144, max([F,P])=      0.000023229633
 orbitals (Q,E):
 ---------------
 A :44...54          ( 2.00    -0.5175)  ( 2.00    -0.4904)  ( 2.00    -0.2017)  ( 2.00    -0.1314)
                     ( 2.00    -0.1314)  ( 2.00    -0.1007)  ( 2.00    -0.0971)  ( 2.00    -0.0971)
                     ( 2.00    -0.0740)  ( 2.00    -0.0740)  ( 0.00     0.0032)

 CYCLE   15
  SDIIS (wt  1.000): -0.0000  0.0000 -0.0000  0.0002  0.0003  0.0019  0.0099  0.0379  0.1188  0.8309
  DIIS coefficients: -0.0000  0.0000 -0.0000  0.0002  0.0003  0.0019  0.0099  0.0379  0.1188  0.8309
 SCF Error: norm([F,P])=      0.000011450194, max([F,P])=      0.000004840344
 orbitals (Q,E):
 ---------------
 A :44...54          ( 2.00    -0.5175)  ( 2.00    -0.4904)  ( 2.00    -0.2017)  ( 2.00    -0.1314)
                     ( 2.00    -0.1314)  ( 2.00    -0.1007)  ( 2.00    -0.0971)  ( 2.00    -0.0971)
                     ( 2.00    -0.0740)  ( 2.00    -0.0740)  ( 0.00     0.0032)

 CYCLE   16
  SDIIS (wt  1.000):  0.0000 -0.0000  0.0000  0.0000  0.0002  0.0020  0.0088  0.0336  0.3191  0.6363
  DIIS coefficients:  0.0000 -0.0000  0.0000  0.0000  0.0002  0.0020  0.0088  0.0336  0.3191  0.6363
 SCF Error: norm([F,P])=      0.000001431374, max([F,P])=      0.000000420827
 orbitals (Q,E):
 ---------------
 A :44...54          ( 2.00    -0.5175)  ( 2.00    -0.4904)  ( 2.00    -0.2017)  ( 2.00    -0.1314)
                     ( 2.00    -0.1314)  ( 2.00    -0.1007)  ( 2.00    -0.0971)  ( 2.00    -0.0971)
                     ( 2.00    -0.0740)  ( 2.00    -0.0740)  ( 0.00     0.0032)

 SCF CONVERGED

 CYCLE   17
1
 ***************************************************************************************************



                                                *******************
                                                *  R E S U L T S  *
                                                *******************
  
 *** Setting up for NEW gradients in Focky
 *** Using FIT density in Focky

 Orbital Energies, per Irrep and Spin:
 ======================================
                        Occup              E (au)              E (eV)       Diff (eV) with prev. cycle
                        -----      --------------------        ------       --------------------------
 A
              44        2.000     -0.51752320525014E+00       -14.083              -5.45E-07
              45        2.000     -0.49037873867288E+00       -13.344              -4.18E-07
              46        2.000     -0.20173809803202E+00        -5.490              -5.38E-07
              47        2.000     -0.13137009097944E+00        -3.575              -5.89E-07
              48        2.000     -0.13136866298418E+00        -3.575              -5.90E-07
              49        2.000     -0.10073132251256E+00        -2.741              -3.32E-07
              50        2.000     -0.97105062117459E-01        -2.642              -4.56E-07
              51        2.000     -0.97103846065056E-01        -2.642              -4.60E-07
              52        2.000     -0.73996684014989E-01        -2.014              -4.33E-07
              53        2.000     -0.73995261250163E-01        -2.014              -4.34E-07
              54        0.000      0.31744760126266E-02         0.086
              55        0.000      0.23162231698403E+00         6.303
              56        0.000      0.25301399345729E+00         6.885
              57        0.000      0.27742553309082E+00         7.549
              58        0.000      0.27743603854498E+00         7.549
              59        0.000      0.29587632507543E+00         8.051
              60        0.000      0.29588111164916E+00         8.051
              61        0.000      0.33252393008898E+00         9.048
              62        0.000      0.33856318949405E+00         9.213
              63        0.000      0.33856458491679E+00         9.213
  
 HOMO :       53 A                -0.73995261250163E-01
 LUMO :       54 A                 0.31744760126266E-02
  


 All Electron Calculation, thus no Orbital Energies of the Core Orbitals are calculated


 Fit test: (difference of exact and fit density, squared integrated, result summed over spins)
         Sum-of-Fragments:                             0.00230981975928
         Orthogonalized Fragments:                     0.00231269351084
         SCF:                                          0.00231580929817



 ==========================
 Electron Density at Nuclei
 ==========================
  
 The electron density is calculated at points on a small sphere around the center of a nucleus.
 The printed electron density is the average electron density on these points.
 The radius of the sphere is the printed approximate finite nuclear radius.

         Atom        Nuclear Radius (Angstrom)             Electron Density (a.u.)
         ----        -------------------------             -----------------------
     1)   Br                0.0000536685                            29315.18278
     2)   Br                0.0000536685                            29313.26202
     3)   Br                0.0000536685                            29313.26202



 =======================================
 M U L L I K E N   P O P U L A T I O N S
 =======================================
  
 The survey below gives for each atom:
 a) the total charge (Z minus electrons)
 b) the net spin polarization (nr of electrons spin-A minus spin-B)
 c) for each spin the atomic electron valence density (integrated) per L-value.

 Atom              Charge    Spin density          S         P         D         F
 ----              ------    ------------       ------    ------    ------    ------
 1 Br             -0.0814                       7.9850   16.9788   10.1034    0.0142
 2 Br             -0.4593                       7.9911   17.4301   10.0312    0.0070
 3 Br             -0.4593                       7.9911   17.4301   10.0312    0.0070

 Populations of individual BAS functions
 ----------------------------------------
 1 Br           0.3611  1.5681  2.0732  0.7131  0.7124  0.7133  1.2648  1.2660  1.2644  1.4383
                0.5900  1.1378  1.1245  1.1418  0.8912  0.9032  0.8876  0.2678  0.4016  0.4018
                0.2677  0.4016  0.2679  0.7775  1.1649  1.1661  0.7751  1.1651  0.7782  0.2874
                0.4344  0.4322  0.2939  0.4337  0.2856  0.2891  1.2534  0.4118  0.5885  0.4026
                0.6439  0.9776  0.7393  1.0487  0.2182  0.0803  0.2594  0.0008  0.0364  0.0044
                0.0482  0.0165 -0.0052 -0.0050 -0.0034 -0.0002  0.0140  0.0017 -0.0047  0.0182
                0.0126 -0.0092 -0.0100
 2 Br           0.3611  1.5681  2.0732  0.7131  0.7127  0.7132  1.2648  1.2655  1.2646  1.4367
                0.5973  1.1379  1.1311  1.1399  0.8908  0.8970  0.8890  0.2677  0.4014  0.4016
                0.2677  0.4015  0.2677  0.7771  1.1647  1.1655  0.7753  1.1649  0.7777  0.2881
                0.4340  0.4328  0.2919  0.4336  0.2870  0.2681  1.2126  0.4739  0.5958  0.4978
                0.6251  0.9738  0.8416  1.0133  0.3079  0.2214  0.3337 -0.0004  0.0096  0.0019
                0.0184  0.0069 -0.0054 -0.0039 -0.0032 -0.0001  0.0098  0.0008 -0.0036  0.0133
                0.0089 -0.0074 -0.0075
 3 Br           0.3611  1.5681  2.0732  0.7131  0.7127  0.7132  1.2648  1.2655  1.2646  1.4367
                0.5973  1.1379  1.1311  1.1399  0.8908  0.8970  0.8890  0.2677  0.4014  0.4016
                0.2677  0.4015  0.2677  0.7771  1.1647  1.1655  0.7753  1.1649  0.7777  0.2881
                0.4340  0.4328  0.2919  0.4336  0.2870  0.2681  1.2126  0.4739  0.5958  0.4978
                0.6251  0.9738  0.8416  1.0133  0.3079  0.2214  0.3337 -0.0004  0.0096  0.0019
                0.0184  0.0069 -0.0054 -0.0039 -0.0032 -0.0001  0.0098  0.0008 -0.0036  0.0133
                0.0089 -0.0074 -0.0075

 Gross Charges per Atom (Z minus electrons)
 ==========================================
            -0.0814   -0.4593   -0.4593
 Net Total: -1.00000000


 Atom-Atom Population Matrix (off-diagonal elements not doubled)
 ===============================================================

     1 :    35.0161
     2 :     0.0327   35.4152
     3 :     0.0327    0.0114   35.4152


 Frag-Frag Population Matrix (off-diagonal elements not doubled)
 ===============================================================

     1 :    70.4966
     2 :     0.0441   35.4152



 =================================================
 H I R S H F E L D   C H A R G E   A N A L Y S I S
 =================================================
  
 For each fragment: the (numerical) integral of rho(scf) * rho(fragment)/rho(sum-of-fragments)
 (nuclear charges are included, electrons are counted negative)

 The fragments and their ordering are defined in the early G E O M E T R Y output section.
 If you use single-atom fragments, this usually implies that all atoms of the same
 chemical type are grouped together. This may not be the order in which you listed them
 in the input file!

    1  BrBr                     -0.4233
    2  Br                       -0.5767

 Sum of these charges (accuracy NumInt/Tails) =          -1.00000342



 =============================
 V O R O N O I   C H A R G E S
 =============================
  
 For each atom: the (numerical) integral of the total electronic charge density in its Voronoi cell,
 i.e. the region of space that is closer to that atom than to any other atom.
 (cf. Wigner-Seitz cells in crystals)

 Within the Voronoi cell the subintegrals over the atomic sphere and the remaining part are evaluated
 separately to give the numbers of electrons (negative charge) in these regions.
 The net total charge in the cell (including the nuclear charge) is also given.

 Values are provided for
    a) the Initial (sum-of-fragments) density
    b) the Orthogonalized-Fragments density
    c) the SCF density
    d) the Voronoi Deformation Density (VDD): the difference SCF-Initial for the complete atomic cell
 ---------------------------------------------------------------------------------------------------
 Total NetCharge:              -1.000                     -1.000                     -1.000    0.000
 (accuracy NumInt/Tails)

 Remark: the 'NetTotal' Voronoi charges often do not match the Mulliken and/or Hirshfeld charges very
 well. This is caused by the fact that chemically different atoms are not treated in accordance with
 their relative sizes. (Voronoi cells are defined by boundary planes halfway between the atoms.)
 However, the CHANGES in charge, comparing 'Initial' to 'SCF' for instance, do give a fair indication
 of the flow of charge caused by the relaxation from sum-of-fragments to self-consistency.

 Warning: the absolute accuracy of the VDD charges obtained using the Fuzzy Cells (Becke) integration
 scheme is much poorer than the one obtained with an 'equivalent' Voronoi integration grid. 



 =================================================================
 M U L T I P O L E   D E R I V E D   C H A R G E   A N A L Y S I S
 =================================================================

 This charge analysis uses the atomic multipoles (obtained from the fitted density) up to some level X,
 and reconstructs these multipoles exactly (up to level X) by distributing charges over all atoms.
 This is achieved by using Lagrange multipliers and a weight function to keep the multipoles local.

 Dummy atoms can be included (by setting INCDUM in MDC-block to 1) to obtain a fractional charge.
 This is generally useful and necessary only for small symmetrical molecules, when there are not
 enough degrees of freedom to reconstruct the multipoles.

 Since the atomic multipoles are reconstructed up to level X,
 the molecular multipoles are represented also up to level X.
 The recommended level is to reconstruct up to quadrupole : -> MDC-q charges.

 See: M. Swart, P.Th. van Duijnen, J.G. Snijders, J.Comput.Chem., (2001), p. 79-88.

 ------------------------------------------------------------- 
 Atomic electronic multipole moments from SCF equations (a.u.)
 ------------------------------------------------------------- 

   atom        charge        dip-x     dip-y     dip-z      quad-xx   quad-xy   quad-xz   quad-yy   quad-yz   quad-zz
 --------------------------------------------------------------------------------------------------------------------
    1 Br    -0.156555    -0.000000 -0.000000 -0.000000    -0.443461 -0.840419  0.133270  1.452707 -0.267078 -1.009246
    2 Br    -0.421723    -0.104926  0.210232 -0.033390    -0.346603 -0.656842  0.104187  1.135416 -0.208705 -0.788814
    3 Br    -0.421723     0.104926 -0.210232  0.033390    -0.346603 -0.656842  0.104187  1.135417 -0.208705 -0.788814

 --------------------------------------- 
 Multipole derived atomic charges (a.u.)
 --------------------------------------- 

 The MDC-m charges are just the Monopole terms in the multipole expansion, while for the MDC-d charges
 also the Dipoles are reconstructed. The usually preferred charges are the MDC-q charges.
 These reconstruct the Monopoles, Dipoles and Quadrupoles (both atomic AND molecular).

        Atom    Level:     MDC-m        MDC-d        MDC-q
 ---------------------------------------------------------
     1     Br          -0.156555    -0.067779    -0.086093
     2     Br          -0.421723    -0.466111    -0.456953
     3     Br          -0.421723    -0.466110    -0.456953

 ------------------------------------------------ 
 Average absolute deviations in atomic multipoles
 ------------------------------------------------ 

 Stated here are the average differences between the atomic multipoles
 and the reconstructed atomic multipoles (from the distributed charges).
 If these values are not zero, this means there are not enough degrees of freedom,
 to be able to reconstruct the atomic multipoles. (This usually happens only
 for small and/or highly symmetric molecules). If this is the case, one could add
 dummy atoms as extra point charges (and setting INCDUM in MDC-block to 1).

 Level:                                 MDC-d        MDC-q
 ---------------------------------------------------------
 Charge   (a.u.)                       0.0000       0.0000
 Dipole   (Debye)                      0.0001       0.0001
 Quad.    (a.u.)                       0.3607       0.2443

 --------------------------------------- 
 Represented molecular multipole moments
 --------------------------------------- 

 Given here are the Molecular multipole moments from the atomic charges, and from the Fit Density.
 Note that the atomic charges represent the latter, NOT the ones from the Exact density.

            Q (a.u.)             Dipole moment (Debye)                                          Quadrupole moment (a.u.)
                                 x         y         z              xx        xy        xz        yy        yz        zz
------------------------------------------------------------------------------------------------------------------------
MDC-m        -1.0000       23.6564  -14.8882    0.2197        -65.0247   94.3963   -3.2067   -5.5394    4.7661   70.5641
MDC-d        -1.0000       23.6564  -14.8882    0.2197        -64.5575   95.7248   -3.4172   -7.0702    5.1879   71.6277
MDC-q        -1.0000       23.6564  -14.8882    0.2197        -64.6539   95.4507   -3.3738   -6.7544    5.1009   71.4083
 
Fit.Dens.    -1.0000       23.6564  -14.8882    0.2197        -65.1710   95.0569   -3.3116   -5.0596    4.9763   70.2306



 =============
 Dipole Moment  ***  (Debye)  ***
 =============
  
 Vector   :        23.65639071    -14.88820282      0.21966783
 Magnitude:        27.95231043

 This molecular dipole moment is calculated with analytic integration
 ************************************************************************************
 Since the molecule is NOT NEUTRAL, the dipole moment depends on the choice of origin
 ************************************************************************************



 =========================================
 Quadrupole Moment (Buckingham convention)  ***  (a.u.)  ***
 =========================================
  
      quad-xx        quad-xy        quad-xz        quad-yy        quad-yz        quad-zz
    -65.17128991    93.97935343    -3.14082785    -5.05904632     4.63415278    70.23033623

 This molecular quadrupole moment is calculated with analytic integration
1



                                             *************************
                                             *  SFO MO coefficients  *
                                             *************************
  


                                       === A ===
 MOs expanded in CFs+SFOs
 ========================

 The SFOs have been characterized in an earlier part of output.
 To deduce the bonding / antibonding nature of SFO combinations in an MO, consider the products
 of the coefficients AND THE OVERLAP between the SFOs (may be NEGATIVE). The SFO overlap matrix
 is printed later, in the SFO Populations section.

 (The CF coefficients are not printed)

 MOs :      1        2        3        4        5        6        7        8        9       10
 occup:   2.00     2.00     2.00     2.00     2.00     2.00     2.00     2.00     2.00     2.00
 CF+SFO
     1  -0.6907   0.4801   0.5408   0.0000   0.0000   0.0000   0.0000   0.0000   0.0000  -0.0000
     2  -0.7232  -0.4585  -0.5165   0.0000  -0.0000  -0.0000   0.0000   0.0000   0.0000   0.0000
     3  -0.0000   0.0000   0.0000  -0.6749  -0.4929  -0.5491  -0.0004  -0.0000  -0.0000   0.0000
     4   0.0000   0.0000   0.0000   0.7379  -0.4508  -0.5022   0.0005   0.0000   0.0000   0.0000
     5  -0.0000   0.0000   0.0000   0.0005   0.0001   0.0001  -0.7137   0.0000   0.0000   0.1183
     6   0.0000   0.0000   0.0000  -0.0005   0.0001   0.0002   0.7005  -0.0000  -0.0000   0.1205
     7  -0.0000   0.0000   0.0000   0.0000   0.0000   0.0000  -0.0000  -0.6294  -0.0136  -0.0000
     8   0.0000   0.0000   0.0000  -0.0000   0.0000   0.0000   0.0000   0.7768   0.0168  -0.0000
     9  -0.0000   0.0000   0.0000   0.0000   0.0000   0.0000  -0.0000   0.0126  -0.5835  -0.0000
    10   0.0000   0.0000   0.0000  -0.0000   0.0000   0.0000   0.0000  -0.0176   0.8118  -0.0000
    11   0.0000  -0.0000  -0.0000   0.0001   0.0000   0.0000   0.0000   0.0000   0.0000  -0.0000
    12  -0.0000  -0.0000  -0.0000  -0.0001   0.0000   0.0000  -0.0000  -0.0000  -0.0000  -0.0000
    13   0.0000   0.0000  -0.0000   0.0000  -0.0000  -0.0000  -0.0000  -0.0000   0.0000  -0.0000
    14   0.0000   0.0000  -0.0000   0.0000   0.0000   0.0000  -0.0000  -0.0000   0.0000   0.0000
    15   0.0000  -0.0000  -0.0000   0.0000   0.0000   0.0000  -0.0000  -0.0000   0.0000  -0.0000
    16   0.0000  -0.0000   0.0000   0.0000  -0.0000  -0.0000  -0.0000  -0.0000   0.0000   0.0000
    17   0.0000  -0.0000  -0.0000   0.0000   0.0000   0.0000  -0.0000  -0.0000  -0.0000  -0.0000
    18  -0.0000  -0.0000  -0.0000  -0.0000   0.0000   0.0000   0.0000   0.0000   0.0000  -0.0000
    19   0.0000   0.0000  -0.0000  -0.0000   0.0000   0.0000  -0.0000  -0.0000   0.0000  -0.0000
    20  -0.0000  -0.0000   0.0000   0.0000   0.0000   0.0000   0.0000   0.0000  -0.0000  -0.0000
    21  -0.0000  -0.0000   0.0000   0.0000   0.0000   0.0000  -0.0000  -0.0000   0.0000  -0.0000
    22  -0.0000  -0.0000   0.0000  -0.0000   0.0000   0.0000   0.0000   0.0000   0.0000   0.0000
    23   0.0000   0.0000  -0.0000  -0.0000   0.0000   0.0000   0.0000   0.0000  -0.0000  -0.0000
    24  -0.0000   0.0000   0.0000   0.0000   0.0000   0.0000  -0.0000  -0.0000  -0.0000   0.0000
    25  -0.0000  -0.0000   0.0000   0.0000  -0.0000  -0.0000  -0.0000  -0.0000   0.0000   0.0000
    26   0.0000  -0.0000  -0.0000  -0.0000  -0.0000  -0.0000   0.0000   0.0000   0.0000   0.0000
    27   0.0000   0.0000  -0.0000  -0.0000  -0.0000  -0.0000   0.0000   0.0000  -0.0000   0.0000
    28   0.0000  -0.0000  -0.0000   0.0000  -0.0000  -0.0000  -0.0000  -0.0000  -0.0000   0.0000
    29   0.0000   0.0000  -0.0000   0.0000   0.0000  -0.0000   0.0000   0.0000   0.0000  -0.0000
    30   0.0000   0.0000  -0.0000   0.0000   0.0000   0.0000   0.0000   0.0000   0.0000  -0.0000
    31  -0.0000  -0.0000   0.0000  -0.0000  -0.0000  -0.0000  -0.0000  -0.0000  -0.0000   0.0000
    32  -0.0000  -0.0000  -0.0000  -0.0000   0.0000  -0.0000   0.0000   0.0000  -0.0000  -0.0000
    33  -0.0000  -0.0000   0.0000   0.0000  -0.0000  -0.0000  -0.0000  -0.0000  -0.0000   0.0000
    34  -0.0000  -0.0000   0.0000   0.0000  -0.0000   0.0000  -0.0000  -0.0000   0.0000   0.0000
    35  -0.0000  -0.0000   0.0000   0.0000  -0.0000   0.0000  -0.0000  -0.0000  -0.0000   0.0000
    36  -0.0000  -0.0000   0.0000  -0.0000  -0.0000  -0.0000  -0.0000   0.0000  -0.0000   0.0000
    37   0.0000   0.0000  -0.0000  -0.0000   0.0000  -0.0000  -0.0000  -0.0000  -0.0000  -0.0000
    38   0.0000   0.0000  -0.0000   0.0000   0.0000   0.0000   0.0000  -0.0000  -0.0000  -0.0000
    39   0.0000   0.0000   0.0000   0.0000   0.0000  -0.0000  -0.0000  -0.0000  -0.0000  -0.0000
    40  -0.0000  -0.0000   0.0000   0.0000   0.0000  -0.0000  -0.0000  -0.0000   0.0000  -0.0000
    41   0.0000   0.0000  -0.0000   0.0000   0.0000  -0.0000  -0.0000   0.0000  -0.0000  -0.0000
    42  -0.0000  -0.0000   0.0000   0.0000  -0.0000  -0.0000  -0.0000   0.0000   0.0000  -0.0000
    43   0.0000   0.0000  -0.0000  -0.0000   0.0000  -0.0000   0.0000   0.0000  -0.0000  -0.0000
    44  -0.0000  -0.0000   0.0000   0.0000  -0.0000   0.0000  -0.0000  -0.0000  -0.0000   0.0000
    45  -0.0000  -0.0000   0.0000   0.0000  -0.0000  -0.0000   0.0000   0.0000   0.0000   0.0000
    46   0.0000   0.0000  -0.0000   0.0000   0.0000  -0.0000  -0.0000  -0.0000   0.0000  -0.0000
    47   0.0000   0.0000  -0.0000   0.0000   0.0000   0.0000  -0.0000   0.0000   0.0000  -0.0000
    48   0.0000   0.0000  -0.0000   0.0000  -0.0000   0.0000   0.0000  -0.0000  -0.0000  -0.0000
    49   0.0000   0.0000  -0.0000   0.0000   0.0000   0.0000  -0.0000  -0.0000   0.0000  -0.0000
    50  -0.0000   0.0000   0.0000  -0.0000   0.0000  -0.0000  -0.0000   0.0000   0.0000   0.0000
    51   0.0000   0.0000  -0.0000   0.0000   0.0000   0.0000   0.0000  -0.0000  -0.0000  -0.0000
    52   0.0000   0.0000  -0.0000   0.0000  -0.0000   0.0000  -0.0000  -0.0000   0.0000   0.0000
    53  -0.0000  -0.0000   0.0000   0.0000   0.0000  -0.0000  -0.0000  -0.0000  -0.0000   0.0000
    54  -0.0000  -0.0000   0.0000  -0.0000   0.0000  -0.0000  -0.0000   0.0000   0.0000   0.0000
    55   0.0000   0.0000   0.0000   0.0000  -0.0000   0.0000  -0.0000   0.0000  -0.0000  -0.0000
    56  -0.0000  -0.0000  -0.0000   0.0000  -0.0000   0.0000  -0.0000   0.0000  -0.0000   0.0000
    57   0.0000   0.0000  -0.0000  -0.0000  -0.0000   0.0000   0.0000   0.0000  -0.0000   0.0000
    58  -0.0000  -0.0000   0.0000   0.0000   0.0000  -0.0000  -0.0000  -0.0000  -0.0000   0.0000
    59   0.0000  -0.0000  -0.0000  -0.0000   0.0000   0.0000   0.0000  -0.0000  -0.0000   0.0000
    60   0.0000   0.0000  -0.0000  -0.0000  -0.0000   0.0000   0.0000  -0.0000   0.0000  -0.0000
    61  -0.0000  -0.0000  -0.0000  -0.0000   0.0000  -0.0000   0.0000   0.0000  -0.0000   0.0000
    62  -0.0000  -0.0000  -0.0000   0.0000   0.0000  -0.0000  -0.0000   0.0000   0.0000   0.0000
    63   0.0000   0.0000   0.0000   0.0000  -0.0000   0.0000  -0.0000  -0.0000   0.0000  -0.0000
    64  -0.0000  -0.0000  -0.0000   0.0000  -0.0000   0.0000  -0.0000  -0.0000  -0.0000   0.0000
    65  -0.0000  -0.0000  -0.0000  -0.0000   0.0000  -0.0000   0.0000  -0.0000  -0.0000   0.0000
    66  -0.0000   0.0000  -0.0000   0.0000   0.0000  -0.0000   0.0000  -0.0000  -0.0000   0.0000
    67  -0.0000  -0.0000   0.0000  -0.0000  -0.0000  -0.0000   0.0000   0.0000  -0.0000   0.0000
    68   0.0000  -0.0000  -0.0000   0.0000  -0.0000   0.0000   0.0000   0.0000   0.0000   0.0000
    69  -0.0000  -0.0000  -0.0000  -0.0000   0.0000   0.0000   0.0000  -0.0000   0.0000  -0.0000
    70  -0.0000  -0.0000   0.0000   0.0000   0.0000  -0.0000  -0.0000  -0.0000  -0.0000  -0.0000
    71   0.0000   0.0000  -0.0000   0.0000  -0.0000   0.0000   0.0000  -0.0000  -0.0000  -0.0000
    72  -0.0000  -0.0000   0.0000   0.0000  -0.0000  -0.0000  -0.0000  -0.0000   0.0000  -0.0000
    73   0.0000   0.0000  -0.0000   0.0000  -0.0000   0.0000  -0.0000  -0.0000  -0.0000  -0.0000
    74  -0.0000  -0.0000   0.0000  -0.0000   0.0000  -0.0000   0.0000   0.0000  -0.0000   0.0000
    75   0.0000   0.0000   0.0000   0.0000  -0.0000  -0.0000   0.0000   0.0000  -0.0000   0.0000
    76   0.0000  -0.0000  -0.0000  -0.0000   0.0000   0.0000   0.0000   0.0000  -0.0000   0.0000
    77   0.0000  -0.0000  -0.0000   0.0000   0.0000   0.0000  -0.0000  -0.0000  -0.0000  -0.0000
    78   0.0000   0.0000   0.0000   0.0000  -0.0000  -0.0000   0.0000  -0.0000   0.0000   0.0000
    79   0.0000   0.0000   0.0000   0.0000  -0.0000  -0.0000  -0.0000  -0.0000   0.0000   0.0000
    80  -0.0000   0.0000   0.0000  -0.0000  -0.0000  -0.0000  -0.0000  -0.0000  -0.0000   0.0000
    81  -0.0000   0.0000   0.0000  -0.0000  -0.0000  -0.0000  -0.0000   0.0000  -0.0000   0.0000
    82  -0.0000   0.0000   0.0000  -0.0000  -0.0000  -0.0000  -0.0000   0.0000  -0.0000   0.0000
    83  -0.0000  -0.0000  -0.0000  -0.0000  -0.0000  -0.0000   0.0000  -0.0000  -0.0000   0.0000
    84  -0.0000  -0.0000  -0.0000  -0.0000  -0.0000   0.0000   0.0000   0.0000  -0.0000   0.0000
    85  -0.0000   0.0000  -0.0000   0.0000   0.0000   0.0000  -0.0000  -0.0000  -0.0000   0.0000
    86   0.0000  -0.0000  -0.0000   0.0000  -0.0000  -0.0000  -0.0000   0.0000   0.0000  -0.0000
    87  -0.0000   0.0000   0.0000  -0.0000   0.0000   0.0000   0.0000  -0.0000  -0.0000   0.0000
[...]
  158   -2.50516915997825E-16 -1.44619030517300E-16  5.64206118302137E-16  1.45671793209064E-16
  159    9.70604294293295E-16 -4.55001879416675E-16 -1.10932389915165E-15  3.32682162523591E-16
  160   -3.46963704633019E-16 -5.28974537249814E-16 -4.52357700635698E-16 -3.77340242964962E-17
  161   -6.54833118091856E-16  7.33732576149924E-16 -7.84531444867590E-16 -1.09770652464270E-16
  162   -3.79654030506444E-16 -6.68828464808326E-16  4.17479219825816E-16  3.25264781031269E-16
  163    4.64678058310537E-16  1.12467597096521E-16  5.10412160935315E-16  5.01048140772681E-16
  164   -1.89144251276634E-16  9.63352618584363E-16  5.66283023236470E-16  2.73476268465661E-16
  165   -1.81578283744469E-16 -2.38883519000412E-16  2.56119402014841E-16  1.53002313457878E-15
  166   -5.38837428592312E-17  5.79280737194643E-17 -2.58566878900514E-16  6.52279401437029E-17
  167    6.20413730897144E-16  2.72883389656746E-16  1.12530335644056E-16  1.40126569274015E-16
  168    3.32917829588830E-16  6.98768300166908E-17  1.05818132034585E-16  2.77962331970971E-17

 column         157                   158                   159                   160
 row
  157    1.00000000000000E+00
  158    1.02872196442660E-15  1.00000000000000E+00
  159    3.88720704261078E-16 -2.54042478882534E-15  1.00000000000002E+00
  160   -1.39887860988782E-16 -5.68842387880520E-17 -3.74705372861009E-17  1.00000000000000E+00
  161   -2.81013569640108E-16  3.25053062499125E-16 -1.09938576746063E-16 -2.48365729417304E-16
  162    1.82125821475288E-16  1.89710359625795E-16  1.09495313816853E-16 -5.57277147256858E-16
  163    2.17234299854490E-16 -4.08359800072241E-16  3.14896045583137E-17 -5.11811795819894E-16
  164   -8.80715741797460E-19 -2.27734249308830E-16 -3.53854293670694E-16  9.32987839245212E-16
  165   -1.61850980701506E-16 -4.62998948255093E-16  2.55012040439565E-16 -4.23112762959315E-16
  166    1.12594546159491E-15 -1.51739031314987E-15  6.37246192860349E-16  3.87328467059513E-16
  167    1.27020110272523E-15  1.68510416753643E-15 -7.30163985811291E-17  1.05421795022751E-16
  168   -1.27691910864480E-16  3.29516145272657E-16  9.91925725585263E-15  2.89820793232531E-17

 column         161                   162                   163                   164
 row
  161    9.99999999999998E-01
  162    1.43899952484640E-16  1.00000000000000E+00
  163   -9.43132904848914E-17  1.03894308122262E-15  1.00000000000000E+00
  164    1.23340760517078E-16  6.47386461023294E-16  5.02271901962985E-16  1.00000000000000E+00
  165   -3.77922155840497E-16 -1.00063606085079E-16 -5.72906943720320E-16  4.51979495668460E-16
  166   -2.56652564587384E-16 -1.28178915104482E-17 -1.85241529187777E-16 -2.27363015613000E-17
  167   -3.82422874608117E-16  2.78757209733038E-16  6.36871763752888E-16  2.23167410789524E-17
  168   -5.79722901627999E-16 -4.23055687703844E-16  4.42828824824548E-17 -7.42407437609449E-17

 column         165                   166                   167                   168
 row
  165    1.00000000000001E+00
  166    2.03225231038838E-16  1.00000000000001E+00
  167   -1.99702085847963E-18 -5.36315116345749E-15  1.00000000000001E+00
  168   -6.09084451711622E-17  1.62603220818514E-16  4.08354583871298E-18  9.99999999999988E-01


 SFO contributions (%) per orbital
 (multiplication by the orbital occupation yields the SFO Gross Populations)

 Orb.:       44     45     46     47     48     49     50     51     52     53     54     55     56     57
 occup:     2.00   2.00   2.00   2.00   2.00   2.00   2.00   2.00   2.00   2.00   0.00   0.00   0.00   0.00
 CF+SFO     ----   ----   ----   ----   ----   ----   ----   ----   ----   ----   ----   ----   ----   ----
 ------
     29:   25.61   0.10   0.18   0.00   0.00   0.13  -0.00   0.00  -0.00  -0.00   0.11   0.09  -0.03  -0.00
     30:   24.73  64.21   0.37   0.00   0.00   0.36   0.00   0.00   0.00   0.00   0.07  -0.28  -0.03   0.00
     31:    0.42   0.17  71.23   0.00   0.00  25.69   0.00   0.00   0.00   0.00   1.59   0.22  -0.33  -0.00
     32:    0.00   0.00   0.00  67.78   6.76   0.00  22.58   2.70  -0.02  -0.01   0.00   0.00  -0.00   0.10
     33:    0.00   0.00   0.00   6.76  67.78   0.00   2.70  22.58  -0.01  -0.02   0.00   0.00  -0.00   0.06
     34:   -0.00  -0.00   0.00   7.86   0.01   0.00  24.86   0.00  64.47   2.51   0.00  -0.00   0.00  -0.06
     35:    0.00   0.00   0.00   0.01   7.86   0.00   0.00  24.86   2.51  64.47  -0.00  -0.00   0.00  -0.01
     36:    0.39   0.11   2.74   0.00   0.00  25.73   0.00   0.00   0.00   0.00  70.98  -1.46  -0.20   0.00
     37:   -0.08  -0.20   0.07  -0.00   0.00  -0.11  -0.00  -0.00  -0.00  -0.00  -1.19  80.89  18.42   0.00
     38:    0.06   0.03   0.05   0.00   0.00  -0.12   0.00   0.00   0.00  -0.00   0.37  -0.18  34.88   0.00
     39:   -0.00   0.00   0.00   0.03   0.07  -0.00  -0.05  -0.12   0.00   0.03  -0.00   0.00   0.00   3.79
     40:    0.00   0.00   0.00   0.07   0.03  -0.00  -0.12  -0.05   0.03   0.00  -0.00  -0.00   0.00  64.90
     45:   -0.15   0.03  -0.04  -0.00  -0.00  -0.24  -0.00  -0.00  -0.00  -0.00  -0.29  -3.21  -0.89   0.00
    127:   48.95  35.14   0.96   0.00   0.00  -0.00   0.00   0.00   0.00   0.00   0.54  -0.63   0.11  -0.00
    128:    0.05   0.31  20.72   2.00   0.33  40.73   5.78   0.82   4.23   0.11  23.52  -0.56   1.74  -0.03
    129:    0.00   0.01   0.60   0.02  16.98   1.18   0.17  47.92   2.06  29.55   0.68  -0.02   0.05  -0.03
    130:    0.01   0.04   2.60  15.42   0.12   5.12  43.37   0.59  26.14   2.77   2.95  -0.07   0.22  -0.18
    131:    0.00  -0.11  -0.04  -0.00  -0.01   0.80   0.00   0.00   0.00   0.01  -0.48  31.37  41.85   0.12
    132:    0.00  -0.00  -0.00  -0.36  -0.00   0.00   0.20   0.00   0.43   0.01  -0.00   0.03   0.04  28.63
    133:    0.00  -0.00  -0.00  -0.00  -0.35   0.01   0.00   0.19   0.01   0.42  -0.01   0.55   0.73   2.18
    134:   -0.00   0.05  -0.03   0.00  -0.00   0.06   0.00   0.00   0.00   0.00  -0.42  -7.66  -0.05  -0.00
    137:    0.02  -0.00   0.29   0.06   0.02   0.00   0.00   0.00   0.03   0.03   0.82   0.17   1.59  -0.01


 Summation over all MOs, multiplied by occupation: Total SFO Gross Populations in this Irrep
 ===========================================================================================

     2.00    2.00    2.00    2.00    2.00    2.00    2.00    2.00    2.00    2.00    2.00    2.00
     2.00    2.00    2.00    2.00    2.00    2.00    2.00    2.00    2.00    2.00    2.00    2.00
     2.00    2.00    2.00    2.00    2.00    2.00    1.96    2.00    2.00    1.99    1.99    0.58
    -0.01    0.00   -0.00   -0.00    0.00    0.00    0.01    0.01   -0.01    0.00    0.00    0.00
     0.00    0.01    0.01    0.00    0.00    0.00    0.00    0.00    0.00    0.00    0.00   -0.00
     0.00    0.00    0.00    0.00    0.00    0.00    0.00    0.00    0.00    0.00   -0.00    0.00
     0.00   -0.00    0.00   -0.00   -0.00    0.00    0.00    0.00    0.00    0.00   -0.00   -0.00
    -0.00   -0.00   -0.00   -0.00    0.00   -0.00   -0.00   -0.00    0.00    0.00   -0.00   -0.00
     0.00    0.00    0.00    0.00   -0.00   -0.00   -0.00   -0.00    0.00    0.00    0.00    0.00
     0.00    0.00   -0.00   -0.00    2.00    2.00    2.00    2.00    2.00    2.00    2.00    2.00
     2.00    2.00    2.00    2.00    2.00    2.00    1.99    1.52    1.97    1.93    0.01    0.01
     0.01   -0.00    0.01    0.01    0.01    0.00    0.01    0.00    0.00    0.00    0.00    0.00
     0.00    0.00    0.00   -0.00    0.00    0.00   -0.00   -0.00   -0.00   -0.00   -0.00   -0.00
    -0.00   -0.00    0.00   -0.00   -0.00   -0.00   -0.00   -0.00    0.00    0.00    0.00   -0.00



 List of all MOs, ordered by energy, with the most significant SFO gross populations
 ===================================================================================

 Each percentage contribution in the table below corresponds to the indicated SFO.
 In general, a SFO may be a linear combination of several Fragment Orbitals on the same,
 or on symmetry-related Fragments. Only the first 'member' of such a combination is
 specified here. A full definition of all SFOs is given in an earlier part of the output.
 The numbering of the SFOs in this table does NOT include the Core Orbitals, and starts
 from one for each symmetry representation, as in the SFO definition list earlier.

       E(eV)  Occ       MO           %     SFO (first member)   E(eV)  Occ   Fragment
 -------------------------------------------------------------------------------------

     -15.293  2.00    43 A         74.01%    29 A             -20.185  2.00     1 BrBr
                                   14.63%    15 A             -10.500  2.00     2 Br
                                   10.22%    30 A             -18.880  2.00     1 BrBr
     -14.083  2.00    44 A         48.95%    15 A             -10.500  2.00     2 Br
                                   25.61%    29 A             -20.185  2.00     1 BrBr
                                   24.73%    30 A             -18.880  2.00     1 BrBr
     -13.344  2.00    45 A         64.21%    30 A             -18.880  2.00     1 BrBr
                                   35.14%    15 A             -10.500  2.00     2 Br
      -5.490  2.00    46 A         71.23%    31 A             -10.045  2.00     1 BrBr
                                   20.72%    16 A               0.447  2.00     2 Br
                                    2.74%    36 A              -6.222  0.00     1 BrBr
                                    2.60%    18 A               0.447  2.00     2 Br
      -3.575  2.00    47 A         67.78%    32 A              -8.238  2.00     1 BrBr
                                   15.42%    18 A               0.447  2.00     2 Br
                                    7.86%    34 A              -7.207  2.00     1 BrBr
                                    6.76%    33 A              -8.238  2.00     1 BrBr
                                    2.00%    16 A               0.447  2.00     2 Br
      -3.575  2.00    48 A         67.78%    33 A              -8.238  2.00     1 BrBr
                                   16.98%    17 A               0.447  2.00     2 Br
                                    7.86%    35 A              -7.207  2.00     1 BrBr
                                    6.76%    32 A              -8.238  2.00     1 BrBr
      -2.741  2.00    49 A         40.73%    16 A               0.447  2.00     2 Br
                                   25.73%    36 A              -6.222  0.00     1 BrBr
                                   25.69%    31 A             -10.045  2.00     1 BrBr
                                    5.12%    18 A               0.447  2.00     2 Br
                                    1.18%    17 A               0.447  2.00     2 Br
      -2.642  2.00    50 A         43.37%    18 A               0.447  2.00     2 Br
                                   24.86%    34 A              -7.207  2.00     1 BrBr
                                   22.58%    32 A              -8.238  2.00     1 BrBr
                                    5.78%    16 A               0.447  2.00     2 Br
                                    2.70%    33 A              -8.238  2.00     1 BrBr
      -2.642  2.00    51 A         47.92%    17 A               0.447  2.00     2 Br
                                   24.86%    35 A              -7.207  2.00     1 BrBr
                                   22.58%    33 A              -8.238  2.00     1 BrBr
                                    2.70%    32 A              -8.238  2.00     1 BrBr
      -2.014  2.00    52 A         64.47%    34 A              -7.207  2.00     1 BrBr
                                   26.14%    18 A               0.447  2.00     2 Br
                                    4.23%    16 A               0.447  2.00     2 Br
                                    2.51%    35 A              -7.207  2.00     1 BrBr
                                    2.06%    17 A               0.447  2.00     2 Br
      -2.014  2.00    53 A         64.47%    35 A              -7.207  2.00     1 BrBr
                                   29.55%    17 A               0.447  2.00     2 Br
                                    2.77%    18 A               0.447  2.00     2 Br
                                    2.51%    34 A              -7.207  2.00     1 BrBr
       0.086  0.00    54 A         70.98%    36 A              -6.222  0.00     1 BrBr
                                   23.52%    16 A               0.447  2.00     2 Br
                                    2.95%    18 A               0.447  2.00     2 Br
                                    1.59%    31 A             -10.045  2.00     1 BrBr
                                   -1.19%    37 A               2.512  0.00     1 BrBr



 =======================================================================
 Electrostatic potential at the Nuclei due to electrons and other nuclei
 =======================================================================
  
         Atom                  Potential
         ----                  ---------
     1)   Br                176.09889336
     2)   Br                176.13358213
     3)   Br                176.13358207
 
 
 ========================
 No memory problems found
 ========================
 
 Maximum number of active allocate calls:         740
 
 *******************************************************************************

                             A D F   E X I T
 NORMAL TERMINATION



 =================
 Timing Statistics
 =================
  
 Total Used :                     CPU=        5.51      System=        0.17     Elapsed=        5.77

 Calls  Section                     ( Mean, Percentage )
 ---------------------------------------------------------------------------------------------------
     3  ><      ................      0.00    0.00             0.00    0.00             0.00    0.01
     1  INIT    ................      0.43    7.78             0.02   11.05             0.45    7.76
     1  GEOMET  ................      0.03    0.58             0.01    5.23             0.13    2.20
     1  FRAGM   ................      0.01    0.18             0.01    4.65             0.02    0.31
     1  INPUTA  ................      0.00    0.00             0.00    0.00             0.00    0.00
     1  ATDEN   ................      0.00    0.05             0.00    0.00             0.00    0.06
     1  MAINSY  ................      0.01    0.09             0.00    1.16             0.01    0.12
     1  SYMFIT  ................      0.00    0.02             0.00    0.58             0.00    0.03
     1  CORORT  ................      0.00    0.00             0.00    0.00             0.00    0.00
     1  SYMORB  ................      0.00    0.04             0.00    0.58             0.00    0.04
     1  CLSMAT  ................      0.01    0.20             0.00    1.16             0.01    0.23
     1  ORTHON  ................      0.01    0.18             0.00    1.16             0.01    0.22
     1  GENPT   ................      0.09    1.58             0.01    3.49             0.09    1.61
     1  PTBAS   ................      0.04    0.69             0.00    0.58             0.04    0.67
    17  FOCKY   ................      0.10   29.62             0.00    9.88             0.10   28.47
    17  FOCKTR  ................      0.00    0.49             0.00    0.00             0.00    0.51
    17  SDIIS   ................      0.00    0.71             0.00    0.58             0.00    0.79
     1  COREPS  ................      0.07    1.25             0.00    0.58             0.07    1.21
     1  TOTEN   ................      0.29    5.22             0.00    2.91             0.29    5.07
     1  POPAN   ................      0.00    0.04             0.00    0.58             0.00    0.06
     1  DEBYE   ................      0.01    0.16             0.00    0.58             0.01    0.16
     1  INPUTE  ................      0.00    0.00             0.00    0.00             0.00    0.01
     1  SYMORE  ................      0.00    0.02             0.00    0.00             0.00    0.01
     1  METS    ................      0.00    0.02             0.00    0.00             0.00    0.02
     1  CETS    ................      0.03    0.53             0.00    1.74             0.03    0.56
     1  POPUL   ................      2.77   50.23             0.09   51.74             2.86   49.51
     1  EXIT PROCEDURE .........      0.02    0.33             0.00    1.74             0.02    0.36


 Currently Open Files (EXIT00)
 ====================

 Unit    Access Format  Status   Type       Ident (file)
 -------------------------------------------------------
   3      SEQ    FORM   TRANSP  NORMAL      LOGFILE
                                          ( logfile )


 Buffered I/O statistics
 =======================
 Memory available:                     67108864
 Number of records fitting in memory:     16131
 Input :   1.0% of                        61551  *4k bytes
 Output:  15.2% of                         5201  *4k bytes
 Records from serial files evicted:           0
                    others evicted:           0
 Hash table lookups:     176900 with          0 conflicts (  0.00%)

 ***************************************************************************************************
 (LOGFILE)
 <May09-2019> <17:11:56>  ADF 2017  RunTime: May09-2019 17:11:56  Nodes: 1  Procs: 12
 <May09-2019> <17:11:57>  *** (NO TITLE) ***
 <May09-2019> <17:11:57>  RunType   : SINGLE POINT
 <May09-2019> <17:11:57>  Net Charge: -1 (Nuclei minus Electrons)
 <May09-2019> <17:11:57>  Symmetry  : NOSYM
 <May09-2019> <17:11:57>  >>>> FRAGM
  Coordinates
    Atom         X           Y           Z   (Angstrom)
    1.Br       -4.925127    3.099640   -0.045734
    2.Br       -3.744205    0.733961    0.329149
    3.Br       -6.106049    5.465319   -0.420616
 <May09-2019> <17:11:57>  >>>> CORORT
 <May09-2019> <17:11:57>  >>>> CLSMAT
 <May09-2019> <17:11:57>  >>>> ORTHON
 <May09-2019> <17:11:57>  >>>> GENPT
 <May09-2019> <17:11:57>  Block Length= 128
 <May09-2019> <17:11:57>  >>>> PTBAS
 <May09-2019> <17:11:57>  >>>> CYCLE
 <May09-2019> <17:11:57>              |Error|         MaxErr       Wt(A-DIIS)
 <May09-2019> <17:11:57>      1      1.73229606      0.72194793
 <May09-2019> <17:11:57>      2      0.86164627      0.37820728    100.0
 <May09-2019> <17:11:57>      3      0.57672374      0.27948509    100.0
 <May09-2019> <17:11:58>      4      0.55160946      0.27381797    100.0
 <May09-2019> <17:11:58>      5      1.51183672      0.45596692    100.0
 <May09-2019> <17:11:58>      6      0.46732022      0.15503370    100.0
 <May09-2019> <17:11:58>      7      0.27626356      0.09532486     95.3
 <May09-2019> <17:11:58>      8      0.41096085      0.13797361    100.0
 <May09-2019> <17:11:58>      9      0.11490266      0.03803026     37.4
 <May09-2019> <17:11:58>     10      0.09364059      0.04123858     37.4
 <May09-2019> <17:11:58>     11      0.03246407      0.01341736     12.5
 <May09-2019> <17:11:58>     12      0.00891617      0.00374164      2.8
 <May09-2019> <17:11:58>     13      0.00044877      0.00018505      0.0
 <May09-2019> <17:11:58>     14      0.00007453      0.00002323      0.0
 <May09-2019> <17:11:59>     15      0.00001145      0.00000484      0.0
 <May09-2019> <17:11:59>     16      0.00000143      0.00000042      0.0
 <May09-2019> <17:11:59>  SCF converged
 <May09-2019> <17:11:59>     17      0.00000062      0.00000022      0.0
 <May09-2019> <17:11:59>  >>>> TOTEN
 <May09-2019> <17:11:59>  >>>> POPAN
 <May09-2019> <17:11:59>  >>>> DEBYE
 <May09-2019> <17:11:59>  >>>> AMETS
 <May09-2019> <17:12:02>   Bond Energy          -0.08102815 a.u.
 <May09-2019> <17:12:02>   Bond Energy          -2.20488810 eV
 <May09-2019> <17:12:02>   Bond Energy         -50.85       kcal/mol
 <May09-2019> <17:12:02>  >>>> POPUL
 <May09-2019> <17:12:02>  NORMAL TERMINATION
 <May09-2019> <17:12:02>  END
