
Create F   file=TZ2P-F
XC
  GGA blyp
  DISPERSION Grimme3 BJDAMP
End
End Input

 *******************************************************************************
 *                                                                             *
 *  -------------------------------------                                      *
 *   Amsterdam Density Functional  (ADF)         2017                          *
 *  -------------------------------------                                      *
 *                                               r58813 2017-04-12             *
 *                                                                             *
 *                                                                             *
 *                              =================                              *
 *                              |               |                              *
 *                              |     A D F     |                              *
 *                              |               |                              *
 *                              =================                              *
 *                                                                             *
 *                                                                             *
 *   Online information and documentation:  https://www.scm.com/support/       *
 *   E-mail:  support@scm.com   info@scm.com                                   *
 *                                                                             *
 *   Scientific publications using ADF results must be properly referenced     *
 *   See the User Manuals (or the web site) for recommended citations          *
 *   The terms and conditions of the End User License Agreement apply to       *
 *   the use of ADF, https://www.scm.com/license-terms/                        *
 *                                                                             *
 **********************  x86_64_linux_intel / intelmpi  ************************
 
 Licensed to: VU/FEW (+ SARA) / ALGEMEEN / Amsterdam / THE NETHERLANDS
 SCM User ID: u7668
  
 ADF 2017  RunTime: May09-2019 16:32:25  Nodes: 1  Procs: 1

 Temporary files are created in /local/datastore0/tcst25/189686/kid_0.7VDxP1

 Fluorine (TZ2P)



 ===========================
 A T T A C H E D   F I L E S
 ===========================
  
 CREATE - Data File:    TZ2P-F
                        Fluorine (TZ2P)



 ===============================
 M O D E L   P A R A M E T E R S
 ===============================
  
 DENSITY FUNCTIONAL POTENTIAL (scf)
    LDA:                               Exchange only                           == Not Default ==
    Gradient Corrections:              Becke88 LYP                             == Not Default ==

 SPIN  (restricted / unrestr.)
    Molecule:                          Restricted                               

 OTHER ASPECTS
    Relativistic Corrections:          ---                                      

    Nuclear Charge Density Model:      Point Charge Nuclei                      
    Core Treatment:                    Frozen Orbital(s)                        

    Hyperfine or Zeeman Interaction:   ---                                      

 Settings for Grimme 3 dispersion correction

      damping                        BJ
      s6                          1.000
      a1                          0.430
      s8                          2.700
      a2                          4.236

 Other (technical) parameters

      alpha                      14.000
      version                         4
 



 =====================================
 S Y M M E T R Y ,   E L E C T R O N S
 =====================================
  
 Symmetry: ATOM

 Irreducible Representations, including subspecies
 -------------------------------------------------
 S
 P:x  P:y  P:z
 D:z2  D:x2-y2  D:xy  D:xz  D:yz
 F:z3  F:z  F:xyz  F:z2x  F:z2y  F:x  F:y


 Configuration of Valence Electrons
 ==================================

          Occupation Numbers
          -------------------------------------------------
 S        2*2
 P        5
 D        0
 F        0
          -------------------------------------------------

 Total:   9

 Net Charge: 0 (Nuclei minus Electrons)

 Preset values for MO occupations will be applied through SCF cycle no. 1000000
 Thereafter, the program will assign electrons to MOs that are spatially
 similar to the occupied MOs in a "reference" cycle ("KeepOrbitals").
 The reference cycle is always the PREVIOUS cycle: it will evolve with
 the SCF procedure.



 ================================
 (Slater-type)  F U N C T I O N S  ***  (Basis and Fit)  ***
 ================================
  

 Atom Type    1  (F)
 ==============

 Valence Basis Sets:  10
 -----------------------
   1 S   10.880000
   1 S    7.700000
   2 S    3.240000
   2 S    1.940000
   2 S    0.740000
   2 P    4.540000
   2 P    2.300000
   2 P    1.240000
   3 D    2.000000
   4 F    3.000000


 BAS: List of all Elementary Cartesian Basis Functions
 =====================================================

 The numbering in the list below (to the right of the function characteristics) is referred
 to in print-outs of MO eigenvectors and Mulliken populations in the BAS representation
 (as contrasted to the SFO representation).

 Notes:
 1. The functions are characterized by a polynomial prefactor (powers of x,y,z and r) and
    an exponential decay factor alpha.
 2. Since the basis sets are specific for an atom TYPE, the individual functions occur on
    all atoms of that type.
 3. The word 'Core' in the left margin signals that it is a Core Function (CF) : not a
    degree of freedom in the valence set, but only used to ensure orthogonalization of
    the other valence basis functions on the frozen Core Orbitals.


 (power of) X  Y  Z  R     Alpha  on Atom
            ==========     =====     ==========

 F                                    1
                                  ---------------------------------------------------------------------------
            0  0  0  0    10.880      1
            0  0  0  0     7.700      2
            0  0  0  1     3.240      3
            0  0  0  1     1.940      4
            0  0  0  1     0.740      5
            1  0  0  0     4.540      6
            0  1  0  0     4.540      7
            0  0  1  0     4.540      8
            1  0  0  0     2.300      9
            0  1  0  0     2.300     10
            0  0  1  0     2.300     11
            1  0  0  0     1.240     12
            0  1  0  0     1.240     13
            0  0  1  0     1.240     14
            2  0  0  0     2.000     15
            1  1  0  0     2.000     16
            1  0  1  0     2.000     17
            0  2  0  0     2.000     18
            0  1  1  0     2.000     19
            0  0  2  0     2.000     20
            3  0  0  0     3.000     21
            2  1  0  0     3.000     22
            2  0  1  0     3.000     23
            1  2  0  0     3.000     24
            1  1  1  0     3.000     25
            1  0  2  0     3.000     26
            0  3  0  0     3.000     27
            0  2  1  0     3.000     28
            0  1  2  0     3.000     29
            0  0  3  0     3.000     30

 Total number of charge fitting functions (nprimf)        85
 Total number of Cartesian basis functions (naos)         30
 Total number of Cartesian core functions  (ncos)          0



 BAS: List of all Elementary Cartesian Basis Functions
 =====================================================

 The numbering in the list below (to the right of the function characteristics) is referred
 to in print-outs of MO eigenvectors and Mulliken populations in the BAS representation
 (as contrasted to the SFO representation).

 Notes:
 1. The functions are characterized by a polynomial prefactor (powers of x,y,z and r) and
    an exponential decay factor alpha.
 2. Since the basis sets are specific for an atom TYPE, the individual functions occur on
    all atoms of that type.
 3. The word 'Core' in the left margin signals that it is a Core Function (CF) : not a
    degree of freedom in the valence set, but only used to ensure orthogonalization of
    the other valence basis functions on the frozen Core Orbitals.


 (power of) X  Y  Z  R     Alpha  on Atom
            ==========     =====     ==========

 F                                    1
                                  ---------------------------------------------------------------------------
            0  0  0  0    10.880      1
            0  0  0  0     7.700      2
            0  0  0  1     3.240      3
            0  0  0  1     1.940      4
            0  0  0  1     0.740      5
            1  0  0  0     4.540      6
            0  1  0  0     4.540      7
            0  0  1  0     4.540      8
            1  0  0  0     2.300      9
            0  1  0  0     2.300     10
            0  0  1  0     2.300     11
            1  0  0  0     1.240     12
            0  1  0  0     1.240     13
            0  0  1  0     1.240     14
            2  0  0  0     2.000     15
            1  1  0  0     2.000     16
            1  0  1  0     2.000     17
            0  2  0  0     2.000     18
            0  1  1  0     2.000     19
            0  0  2  0     2.000     20
            3  0  0  0     3.000     21
            2  1  0  0     3.000     22
            2  0  1  0     3.000     23
            1  2  0  0     3.000     24
            1  1  1  0     3.000     25
            1  0  2  0     3.000     26
            0  3  0  0     3.000     27
            0  2  1  0     3.000     28
            0  1  2  0     3.000     29
            0  0  3  0     3.000     30
1
 ***************************************************************************************************



                                              ***********************
                                              *  T E C H N I C A L  *
                                              ***********************
  



 =============================================================
 P A R A L L E L I Z A T I O N  and  V E C T O R I Z A T I O N
 =============================================================
  
 Nr of parallel processes:                                1
 Maximum vector length in NumInt loops:                 128

 IO buffersize (Mb):                                     64.000000



 =====================
 S C F   U P D A T E S
 =====================
  
 Max. nr. of cycles:                               300
 Convergence criterion:                              0.0000000100
   secondary criterion:                              0.0000000100

 Mix parameter (when DIIS does not apply):           0.2000000000
 Special mix parameter for the first cycle:          1.0000000000
 Mixed ADIIS+DIIS will be used
    Max number of expansion vectors:                10
    Pure ADIIS when Max([F,P]) is above              0.1000000000
    Pure DIIS when Max([F,P]) is below               0.0010000000
 Automatic ElectronSmearing (in case of problematic SCF convergence) disabled



 =================
 P R E C I S I O N  ***  (General: NumInt, NeglectFunctionTails, ...)  ***
 =================
  

 NumInt:           Target precision:                12.0000000000
 -------           Initial precision:               10.0000000000
                   Min. precision (optimization):   10.0000000000

 Neglect Functions:          Basis functions:        0.1000000000E-13
 ------------------          Fit functions:          0.1000000000E-13



 ===========================
 L I N E A R   S C A L I N G
 ===========================
  

 Cut-off radii density fit:                        0.1000000000E-97
 Overlap cut-off criterion AO matrix elements:     0.1000000000E-97
 Cut-offs for Coulomb potential and fitted density:0.1000000000E-97
 Cut-off criterion for Coulomb multipole terms:    0.1000000000E-97
 Progressive Convergence parameter:                 0.000000000    
1
 ***************************************************************************************************



                                            ***************************
                                            *  C O M P U T A T I O N  *
                                            ***************************
  

 Number of elements of the density matrix on this node (used, total):       465       465



 ===========================================
 Numerical Integration : Fuzzy Cells (Becke)
 ===========================================
  
 Becke grid quality: VERYGOOD       
  
 Lebedev angular grid order:             min:  13 max:  41
 Nr. of radial points:                   min:  76 max:  76

 Total nr. of points:         76
 Nr. of blocks:                1
 Block length:                76
 Nr. of dummy points:          0


 Test of Precision of the Numerical Integration Grid
 ===================================================

 Integral of the Total Core Density:                   0.00000000000000



 ========================
 Density Fitting (zlmFit)
 ========================
  
 ZlmFit Fit Quality: VERYGOOD       
  
 Max L-expansion:                        min:   0 max:   0
 Nr. of radial interpolation points:     min: 170 max: 170



 =====
 S C F  ***  ScaSCF  ***
 =====
  

 CYCLE    1
 SCF Error: norm([F,P])=      0.000000000000, max([F,P])=      0.000000000000
 orbitals (Q,E):
 ---------------
 S :1...5            ( 2.00   -40.4878)  ( 2.00   -10.0106)  ( 0.00    -4.4145)  ( 0.00    -2.1243)
                     ( 0.00    34.3132)
 P :1...3            ( 5.00   -10.1248)  ( 0.00    -4.4262)  ( 0.00    -2.4124)
 D :1...1            ( 0.00    -4.0000)
 F :1...1            ( 0.00    -2.2500)

 CYCLE    2
  SDIIS (wt  0.000):  1.0000 -0.0000
 A-DIIS (wt  1.000):  0.0000  1.0000
  DIIS coefficients:  0.0000  1.0000
 SCF Error: norm([F,P])=     11.373794780581, max([F,P])=      4.777759414031
 orbitals (Q,E):
 ---------------
 S :1...3            ( 2.00   -18.8794)  ( 2.00    -0.0304)  ( 0.00     0.3093)
 P :1...2            ( 5.00     0.3553)  ( 0.00     1.5643)
 D :1...1            ( 0.00     1.6494)
 F :1...1            ( 0.00     4.0453)

 CYCLE    3
  SDIIS (wt  0.000):  0.2302  0.7698
 A-DIIS (wt  1.000):  0.4427  0.5573
  DIIS coefficients:  0.4427  0.5573
 SCF Error: norm([F,P])=      5.107371177545, max([F,P])=      3.125425661947
 orbitals (Q,E):
 ---------------
 S :1...3            ( 2.00   -24.7932)  ( 2.00    -1.7827)  ( 0.00    -0.0636)
 P :1...2            ( 5.00    -1.0793)  ( 0.00     0.2021)
 D :1...1            ( 0.00     0.6865)
 F :1...1            ( 0.00     2.8888)

 CYCLE    4
  SDIIS (wt  0.000): -0.0128  0.1085  0.9043
 A-DIIS (wt  1.000):  0.0000  0.0000  1.0000
  DIIS coefficients:  0.0000  0.0000  1.0000
 SCF Error: norm([F,P])=      0.965884247460, max([F,P])=      0.451655557762
 orbitals (Q,E):
 ---------------
 S :1...3            ( 2.00   -23.6749)  ( 2.00    -0.7847)  ( 0.00     0.0644)
 P :1...2            ( 5.00    -0.1299)  ( 0.00     0.5762)
 D :1...1            ( 0.00     1.2513)
 F :1...1            ( 0.00     3.5825)

 CYCLE    5
  SDIIS (wt  0.000):  0.0122 -0.0391  0.5749  0.4520
 A-DIIS (wt  1.000):  0.0000  0.0000  0.6712  0.3288
  DIIS coefficients:  0.0000  0.0000  0.6712  0.3288
 SCF Error: norm([F,P])=      1.674963411166, max([F,P])=      0.825318021724
 orbitals (Q,E):
 ---------------
 S :1...3            ( 2.00   -24.3044)  ( 2.00    -1.0529)  ( 0.00     0.0313)
 P :1...2            ( 5.00    -0.3714)  ( 0.00     0.4442)
 D :1...1            ( 0.00     1.1317)
 F :1...1            ( 0.00     3.4351)

 CYCLE    6
  SDIIS (wt  0.024):  0.0029  0.0040  0.0564 -0.0876  1.0243
 A-DIIS (wt  0.976):  0.0000  0.0000  0.0000  0.0000  1.0000
  DIIS coefficients:  0.0001  0.0001  0.0013 -0.0021  1.0006
 SCF Error: norm([F,P])=      0.199607562059, max([F,P])=      0.097634841195
 orbitals (Q,E):
 ---------------
 S :1...3            ( 2.00   -24.5137)  ( 2.00    -1.1478)  ( 0.00     0.0173)
 P :1...2            ( 5.00    -0.4644)  ( 0.00     0.4071)
 D :1...1            ( 0.00     1.0935)
 F :1...1            ( 0.00     3.3875)

 CYCLE    7
  SDIIS (wt  0.000): -0.0005  0.0010  0.0222 -0.0066  0.6116  0.3724
 A-DIIS (wt  1.000):  0.0000  0.0000  0.0000  0.0000  0.6122  0.3878
  DIIS coefficients:  0.0000  0.0000  0.0000  0.0000  0.6122  0.3878
 SCF Error: norm([F,P])=      0.266507541610, max([F,P])=      0.126514736478
 orbitals (Q,E):
 ---------------
 S :1...3            ( 2.00   -24.3946)  ( 2.00    -1.0985)  ( 0.00     0.0225)
 P :1...2            ( 5.00    -0.4159)  ( 0.00     0.4255)
 D :1...1            ( 0.00     1.1136)
 F :1...1            ( 0.00     3.4123)

 CYCLE    8
  SDIIS (wt  0.859):  0.0000 -0.0000 -0.0010  0.0023  0.0294 -0.0834  1.0527
 A-DIIS (wt  0.141):  0.0000  0.0000  0.0000  0.0000  0.0000  0.0000  1.0000
  DIIS coefficients:  0.0000 -0.0000 -0.0009  0.0020  0.0252 -0.0716  1.0453
 SCF Error: norm([F,P])=      0.030968782311, max([F,P])=      0.014981503364
 orbitals (Q,E):
 ---------------
 S :1...3            ( 2.00   -24.3770)  ( 2.00    -1.0904)  ( 0.00     0.0233)
 P :1...2            ( 5.00    -0.4080)  ( 0.00     0.4287)
 D :1...1            ( 0.00     1.1172)
 F :1...1            ( 0.00     3.4167)

 CYCLE    9
  SDIIS (wt  0.981): -0.0000  0.0000 -0.0001 -0.0004  0.0017  0.0154  0.0457  0.9377
 A-DIIS (wt  0.019):  0.0000  0.0000  0.0000  0.0000  0.0000  0.0000  0.0000  1.0000
  DIIS coefficients: -0.0000  0.0000 -0.0001 -0.0004  0.0017  0.0151  0.0448  0.9389
 SCF Error: norm([F,P])=      0.006059807168, max([F,P])=      0.002904332574
 orbitals (Q,E):
 ---------------
 S :1...3            ( 2.00   -24.3801)  ( 2.00    -1.0917)  ( 0.00     0.0232)
 P :1...2            ( 5.00    -0.4093)  ( 0.00     0.4282)
 D :1...1            ( 0.00     1.1167)
 F :1...1            ( 0.00     3.4160)

 CYCLE   10
  SDIIS (wt  1.000): -0.0000  0.0000  0.0000 -0.0000 -0.0005 -0.0009  1.0014
  DIIS coefficients: -0.0000  0.0000  0.0000 -0.0000 -0.0005 -0.0009  1.0014
 SCF Error: norm([F,P])=      0.000165576139, max([F,P])=      0.000079184914
 orbitals (Q,E):
 ---------------
 S :1...3            ( 2.00   -24.3800)  ( 2.00    -1.0917)  ( 0.00     0.0232)
 P :1...2            ( 5.00    -0.4092)  ( 0.00     0.4282)
 D :1...1            ( 0.00     1.1167)
 F :1...1            ( 0.00     3.4160)

 CYCLE   11
  SDIIS (wt  1.000): -0.0000  0.0000 -0.0000 -0.0003 -0.0117  1.0121
  DIIS coefficients: -0.0000  0.0000 -0.0000 -0.0003 -0.0117  1.0121
 SCF Error: norm([F,P])=      0.000000045105, max([F,P])=      0.000000021900
 orbitals (Q,E):
 ---------------
 S :1...3            ( 2.00   -24.3800)  ( 2.00    -1.0917)  ( 0.00     0.0232)
 P :1...2            ( 5.00    -0.4092)  ( 0.00     0.4282)
 D :1...1            ( 0.00     1.1167)
 F :1...1            ( 0.00     3.4160)

 CYCLE   12
  SDIIS (wt  1.000): -0.0000  0.0075  0.9925
  DIIS coefficients: -0.0000  0.0075  0.9925
 SCF Error: norm([F,P])=      0.000000000769, max([F,P])=      0.000000000377
 orbitals (Q,E):
 ---------------
 S :1...3            ( 2.00   -24.3800)  ( 2.00    -1.0917)  ( 0.00     0.0232)
 P :1...2            ( 5.00    -0.4092)  ( 0.00     0.4282)
 D :1...1            ( 0.00     1.1167)
 F :1...1            ( 0.00     3.4160)

 SCF CONVERGED

 CYCLE   13
1
 ***************************************************************************************************



                                                *******************
                                                *  R E S U L T S  *
                                                *******************
  
 *** Setting up for NEW gradients in Focky
 *** Using FIT density in Focky

 Orbital Energies, per Irrep and Spin:
 ======================================
                        Occup              E (au)              E (eV)       Diff (eV) with prev. cycle
                        -----      --------------------        ------       --------------------------
 S
               1        2.000     -0.24380013662793E+02      -663.414              -5.71E-10
               2        2.000     -0.10916696572490E+01       -29.706              -4.12E-10
               3        0.000      0.23171521938636E-01         0.631
               4        0.000      0.15801599788495E+01        42.998
               5        0.000      0.48367571090262E+02      1316.149
 P
               1        5.000     -0.40924594303695E+00       -11.136              -3.95E-10
               2        0.000      0.42818717158446E+00        11.652
               3        0.000      0.45634501130520E+01       124.178
 D
               1        0.000      0.11166683619357E+01        30.386
 F
               1        0.000      0.34160293329535E+01        92.955


 Partially Occupied:
               1 P                -0.40924594303695E+00
  
 HOMO :        2 S                -0.10916696572490E+01
 LUMO :        3 S                 0.23171521938636E-01
  


 Orbital Energies, all Irreps
 ========================================

 Irrep        no.  (spin)   Occup              E (au)                E (eV)
 ---------------------------------------------------------------------------
 S             1             2.00       -0.24380013662793E+02      -663.4139
 S             2             2.00       -0.10916696572490E+01       -29.7058
 P             1             5.00       -0.40924594303695E+00       -11.1361
 S             3             0.00        0.23171521938636E-01         0.6305
 P             2             0.00        0.42818717158446E+00        11.6516
 D             1             0.00        0.11166683619357E+01        30.3861
 S             4             0.00        0.15801599788495E+01        42.9983
 F             1             0.00        0.34160293329535E+01        92.9549
 P             3             0.00        0.45634501130520E+01       124.1778
 S             5             0.00        0.48367571090262E+02      1316.1486


 All Electron Calculation, thus no Orbital Energies of the Core Orbitals are calculated



 =======================================
 M U L L I K E N   P O P U L A T I O N S
 =======================================
  
 The survey below gives for each atom:
 a) the total charge (Z minus electrons)
 b) the net spin polarization (nr of electrons spin-A minus spin-B)
 c) for each spin the atomic electron valence density (integrated) per L-value.

 Atom              Charge    Spin density          S         P         D         F
 ----              ------    ------------       ------    ------    ------    ------
 1 F              -0.0000                       4.0000    5.0000    0.0000    0.0000

 Populations of individual BAS functions
 ----------------------------------------
 1 F            0.5735  1.4020  1.1462  0.8789 -0.0006  0.3652  0.3652  0.3652  0.9146  0.9146
                0.9146  0.3869  0.3869  0.3869  0.0000  0.0000  0.0000  0.0000  0.0000  0.0000
                0.0000  0.0000  0.0000  0.0000  0.0000  0.0000  0.0000  0.0000  0.0000  0.0000

 Gross Charges per Atom (Z minus electrons)
 ==========================================
            -0.0000
 Net Total: -0.00000000



 =======================================================================
 Electrostatic potential at the Nuclei due to electrons and other nuclei
 =======================================================================
  
         Atom                  Potential
         ----                  ---------
     1)   F                  26.51041126
 
 
 ========================
 No memory problems found
 ========================
 
 Maximum number of active allocate calls:         447
 
 *******************************************************************************

                             A D F   E X I T
 NORMAL TERMINATION



 =================
 Timing Statistics
 =================
  
 Total Used :                     CPU=        0.76      System=        0.04     Elapsed=        0.83

 Calls  Section                     ( Mean, Percentage )
 ---------------------------------------------------------------------------------------------------
     3  ><      ................      0.00    0.00             0.00    0.00             0.00    0.10
     1  INIT    ................      0.02    2.23             0.02   44.45             0.06    7.41
     1  GEOMET  ................      0.01    1.05             0.01   16.67             0.01    1.61
     1  INPUTA  ................      0.00    0.53             0.00    0.00             0.00    0.37
     1  MAINSY  ................      0.01    0.79             0.00    2.78             0.01    0.96
     1  SYMFIT  ................      0.00    0.26             0.00    0.00             0.00    0.15
     1  CORORT  ................      0.00    0.00             0.00    0.00             0.00    0.05
     1  SYMORB  ................      0.00    0.13             0.00    2.78             0.00    0.19
     1  CLSMAT  ................      0.01    1.18             0.00    0.00             0.01    1.11
     1  ORTHON  ................      0.00    0.39             0.00    0.00             0.00    0.36
     1  GENPT   ................      0.02    2.76             0.00    0.00             0.02    2.56
     1  PTBAS   ................      0.00    0.66             0.00    2.78             0.01    0.75
    13  FOCKY   ................      0.04   74.02             0.00   19.44             0.04   68.92
    13  FOCKTR  ................      0.00    1.97             0.00    2.78             0.00    2.21
    13  SDIIS   ................      0.00    4.59             0.00    2.78             0.00    4.32
     1  COREPS  ................      0.03    4.59             0.00    0.00             0.03    4.21
     1  POPAN   ................      0.01    1.18             0.00    0.00             0.01    1.11
     1  DEBYE   ................      0.00    0.13             0.00    0.00             0.00    0.11
     1  EXIT PROCEDURE .........      0.03    3.54             0.00    5.56             0.03    3.51


 Currently Open Files (EXIT00)
 ====================

 Unit    Access Format  Status   Type       Ident (file)
 -------------------------------------------------------
   3      SEQ    FORM   TRANSP  NORMAL      LOGFILE
                                          ( logfile )


 Buffered I/O statistics
 =======================
 Memory available:                     67108864
 Number of records fitting in memory:     16131
 Input :   0.1% of                        27805  *4k bytes
 Output:  13.5% of                         1382  *4k bytes
 Records from serial files evicted:           0
                    others evicted:           0
 Hash table lookups:      71840 with          0 conflicts (  0.00%)

 ***************************************************************************************************
 (LOGFILE)
 <May09-2019> <16:32:25>  ADF 2017  RunTime: May09-2019 16:32:25  Nodes: 1  Procs: 1
 <May09-2019> <16:32:25>  Fluorine (TZ2P)
 <May09-2019> <16:32:25>  RunType   : CREATE
 <May09-2019> <16:32:25>  Net Charge: 0 (Nuclei minus Electrons)
 <May09-2019> <16:32:25>  Symmetry  : ATOM
  Coordinates
    Atom         X           Y           Z   (Angstrom)
    1.F         0.000000    0.000000    0.000000
 <May09-2019> <16:32:25>  >>>> CORORT
 <May09-2019> <16:32:25>  >>>> CLSMAT
 <May09-2019> <16:32:25>  >>>> ORTHON
 <May09-2019> <16:32:25>  >>>> GENPT
 <May09-2019> <16:32:25>  Block Length=  76
 <May09-2019> <16:32:25>  >>>> PTBAS
 <May09-2019> <16:32:25>  >>>> CYCLE
 <May09-2019> <16:32:25>              |Error|         MaxErr       Wt(A-DIIS)
 <May09-2019> <16:32:25>      1      0.00000000      0.00000000
 <May09-2019> <16:32:25>      2     11.37379478      4.77775941    100.0
 <May09-2019> <16:32:25>      3      5.10737118      3.12542566    100.0
 <May09-2019> <16:32:25>      4      0.96588425      0.45165556    100.0
 <May09-2019> <16:32:25>      5      1.67496341      0.82531802    100.0
 <May09-2019> <16:32:25>      6      0.19960756      0.09763484     97.6
 <May09-2019> <16:32:25>      7      0.26650754      0.12651474    100.0
 <May09-2019> <16:32:25>      8      0.03096878      0.01498150     14.1
 <May09-2019> <16:32:25>      9      0.00605981      0.00290433      1.9
 <May09-2019> <16:32:25>     10      0.00016558      0.00007918      0.0
 <May09-2019> <16:32:25>     11      0.00000005      0.00000002      0.0
 <May09-2019> <16:32:25>     12      0.00000000      0.00000000      0.0
 <May09-2019> <16:32:25>  SCF converged
 <May09-2019> <16:32:25>     13      0.00000000      0.00000000      0.0
 <May09-2019> <16:32:25>  >>>> POPAN
 <May09-2019> <16:32:25>  >>>> DEBYE
 <May09-2019> <16:32:26>  NORMAL TERMINATION
 <May09-2019> <16:32:26>  END

Create Cl   file=TZ2P-Cl
XC
  GGA blyp
  DISPERSION Grimme3 BJDAMP
End
End Input

 *******************************************************************************
 *                                                                             *
 *  -------------------------------------                                      *
 *   Amsterdam Density Functional  (ADF)         2017                          *
 *  -------------------------------------                                      *
 *                                               r58813 2017-04-12             *
 *                                                                             *
 *                                                                             *
 *                              =================                              *
 *                              |               |                              *
 *                              |     A D F     |                              *
 *                              |               |                              *
 *                              =================                              *
 *                                                                             *
 *                                                                             *
 *   Online information and documentation:  https://www.scm.com/support/       *
 *   E-mail:  support@scm.com   info@scm.com                                   *
 *                                                                             *
 *   Scientific publications using ADF results must be properly referenced     *
 *   See the User Manuals (or the web site) for recommended citations          *
 *   The terms and conditions of the End User License Agreement apply to       *
 *   the use of ADF, https://www.scm.com/license-terms/                        *
 *                                                                             *
 **********************  x86_64_linux_intel / intelmpi  ************************
 
 Licensed to: VU/FEW (+ SARA) / ALGEMEEN / Amsterdam / THE NETHERLANDS
 SCM User ID: u7668
  
 ADF 2017  RunTime: May09-2019 16:32:26  Nodes: 1  Procs: 1

 Temporary files are created in /local/datastore0/tcst25/189686/kid_0.UvZxJU

 Chlorine (TZ2P)



 ===========================
 A T T A C H E D   F I L E S
 ===========================
  
 CREATE - Data File:    TZ2P-Cl
                        Chlorine (TZ2P)



 ===============================
 M O D E L   P A R A M E T E R S
 ===============================
  
 DENSITY FUNCTIONAL POTENTIAL (scf)
    LDA:                               Exchange only                           == Not Default ==
    Gradient Corrections:              Becke88 LYP                             == Not Default ==

 SPIN  (restricted / unrestr.)
    Molecule:                          Restricted                               

 OTHER ASPECTS
    Relativistic Corrections:          ---                                      

    Nuclear Charge Density Model:      Point Charge Nuclei                      
    Core Treatment:                    Frozen Orbital(s)                        

    Hyperfine or Zeeman Interaction:   ---                                      

 Settings for Grimme 3 dispersion correction

      damping                        BJ
      s6                          1.000
      a1                          0.430
      s8                          2.700
      a2                          4.236

 Other (technical) parameters

      alpha                      14.000
      version                         4
 



 =====================================
 S Y M M E T R Y ,   E L E C T R O N S
 =====================================
  
 Symmetry: ATOM

 Irreducible Representations, including subspecies
 -------------------------------------------------
 S
 P:x  P:y  P:z
 D:z2  D:x2-y2  D:xy  D:xz  D:yz
 F:z3  F:z  F:xyz  F:z2x  F:z2y  F:x  F:y


 Configuration of Valence Electrons
 ==================================

          Occupation Numbers
          -------------------------------------------------
 S        3*2
 P        6 5
 D        0
 F        0
          -------------------------------------------------

 Total:   17

 Net Charge: 0 (Nuclei minus Electrons)

 Preset values for MO occupations will be applied through SCF cycle no. 1000000
 Thereafter, the program will assign electrons to MOs that are spatially
 similar to the occupied MOs in a "reference" cycle ("KeepOrbitals").
 The reference cycle is always the PREVIOUS cycle: it will evolve with
 the SCF procedure.



 ================================
 (Slater-type)  F U N C T I O N S  ***  (Basis and Fit)  ***
 ================================
  

 Atom Type    1  (Cl)
 ==============

 Valence Basis Sets:  14
 -----------------------
   1 S   20.300000
   1 S   15.250000
   2 S    6.250000
   2 S    4.450000
   2 P    8.850000
   2 P    5.050000
   3 S    3.450000
   3 S    2.300000
   3 S    1.600000
   3 P    3.350000
   3 P    2.050000
   3 P    1.200000
   3 D    2.000000
   4 F    2.000000


 BAS: List of all Elementary Cartesian Basis Functions
 =====================================================

 The numbering in the list below (to the right of the function characteristics) is referred
 to in print-outs of MO eigenvectors and Mulliken populations in the BAS representation
 (as contrasted to the SFO representation).

 Notes:
 1. The functions are characterized by a polynomial prefactor (powers of x,y,z and r) and
    an exponential decay factor alpha.
 2. Since the basis sets are specific for an atom TYPE, the individual functions occur on
    all atoms of that type.
 3. The word 'Core' in the left margin signals that it is a Core Function (CF) : not a
    degree of freedom in the valence set, but only used to ensure orthogonalization of
    the other valence basis functions on the frozen Core Orbitals.


 (power of) X  Y  Z  R     Alpha  on Atom
            ==========     =====     ==========

 Cl                                   1
                                  ---------------------------------------------------------------------------
            0  0  0  0    20.300      1
            0  0  0  0    15.250      2
            0  0  0  1     6.250      3
            0  0  0  1     4.450      4
            1  0  0  0     8.850      5
            0  1  0  0     8.850      6
            0  0  1  0     8.850      7
            1  0  0  0     5.050      8
            0  1  0  0     5.050      9
            0  0  1  0     5.050     10
            0  0  0  2     3.450     11
            0  0  0  2     2.300     12
            0  0  0  2     1.600     13
            1  0  0  1     3.350     14
            0  1  0  1     3.350     15
            0  0  1  1     3.350     16
            1  0  0  1     2.050     17
            0  1  0  1     2.050     18
            0  0  1  1     2.050     19
            1  0  0  1     1.200     20
            0  1  0  1     1.200     21
            0  0  1  1     1.200     22
            2  0  0  0     2.000     23
            1  1  0  0     2.000     24
            1  0  1  0     2.000     25
            0  2  0  0     2.000     26
            0  1  1  0     2.000     27
            0  0  2  0     2.000     28
            3  0  0  0     2.000     29
            2  1  0  0     2.000     30
            2  0  1  0     2.000     31
            1  2  0  0     2.000     32
            1  1  1  0     2.000     33
            1  0  2  0     2.000     34
            0  3  0  0     2.000     35
            0  2  1  0     2.000     36
            0  1  2  0     2.000     37
            0  0  3  0     2.000     38

 Total number of charge fitting functions (nprimf)       106
 Total number of Cartesian basis functions (naos)         38
 Total number of Cartesian core functions  (ncos)          0



 BAS: List of all Elementary Cartesian Basis Functions
 =====================================================

 The numbering in the list below (to the right of the function characteristics) is referred
 to in print-outs of MO eigenvectors and Mulliken populations in the BAS representation
 (as contrasted to the SFO representation).

 Notes:
 1. The functions are characterized by a polynomial prefactor (powers of x,y,z and r) and
    an exponential decay factor alpha.
 2. Since the basis sets are specific for an atom TYPE, the individual functions occur on
    all atoms of that type.
 3. The word 'Core' in the left margin signals that it is a Core Function (CF) : not a
    degree of freedom in the valence set, but only used to ensure orthogonalization of
    the other valence basis functions on the frozen Core Orbitals.


 (power of) X  Y  Z  R     Alpha  on Atom
            ==========     =====     ==========

 Cl                                   1
                                  ---------------------------------------------------------------------------
            0  0  0  0    20.300      1
            0  0  0  0    15.250      2
            0  0  0  1     6.250      3
            0  0  0  1     4.450      4
            1  0  0  0     8.850      5
            0  1  0  0     8.850      6
            0  0  1  0     8.850      7
            1  0  0  0     5.050      8
            0  1  0  0     5.050      9
            0  0  1  0     5.050     10
            0  0  0  2     3.450     11
            0  0  0  2     2.300     12
            0  0  0  2     1.600     13
            1  0  0  1     3.350     14
            0  1  0  1     3.350     15
            0  0  1  1     3.350     16
            1  0  0  1     2.050     17
            0  1  0  1     2.050     18
            0  0  1  1     2.050     19
            1  0  0  1     1.200     20
            0  1  0  1     1.200     21
            0  0  1  1     1.200     22
            2  0  0  0     2.000     23
            1  1  0  0     2.000     24
            1  0  1  0     2.000     25
            0  2  0  0     2.000     26
            0  1  1  0     2.000     27
            0  0  2  0     2.000     28
            3  0  0  0     2.000     29
            2  1  0  0     2.000     30
            2  0  1  0     2.000     31
            1  2  0  0     2.000     32
            1  1  1  0     2.000     33
            1  0  2  0     2.000     34
            0  3  0  0     2.000     35
            0  2  1  0     2.000     36
            0  1  2  0     2.000     37
            0  0  3  0     2.000     38
1
 ***************************************************************************************************



                                              ***********************
                                              *  T E C H N I C A L  *
                                              ***********************
  



 =============================================================
 P A R A L L E L I Z A T I O N  and  V E C T O R I Z A T I O N
 =============================================================
  
 Nr of parallel processes:                                1
 Maximum vector length in NumInt loops:                 128

 IO buffersize (Mb):                                     64.000000



 =====================
 S C F   U P D A T E S
 =====================
  
 Max. nr. of cycles:                               300
 Convergence criterion:                              0.0000000100
   secondary criterion:                              0.0000000100

 Mix parameter (when DIIS does not apply):           0.2000000000
 Special mix parameter for the first cycle:          1.0000000000
 Mixed ADIIS+DIIS will be used
    Max number of expansion vectors:                10
    Pure ADIIS when Max([F,P]) is above              0.1000000000
    Pure DIIS when Max([F,P]) is below               0.0010000000
 Automatic ElectronSmearing (in case of problematic SCF convergence) disabled



 =================
 P R E C I S I O N  ***  (General: NumInt, NeglectFunctionTails, ...)  ***
 =================
  

 NumInt:           Target precision:                12.0000000000
 -------           Initial precision:               10.0000000000
                   Min. precision (optimization):   10.0000000000

 Neglect Functions:          Basis functions:        0.1000000000E-13
 ------------------          Fit functions:          0.1000000000E-13



 ===========================
 L I N E A R   S C A L I N G
 ===========================
  

 Cut-off radii density fit:                        0.1000000000E-97
 Overlap cut-off criterion AO matrix elements:     0.1000000000E-97
 Cut-offs for Coulomb potential and fitted density:0.1000000000E-97
 Cut-off criterion for Coulomb multipole terms:    0.1000000000E-97
 Progressive Convergence parameter:                 0.000000000    
1
 ***************************************************************************************************



                                            ***************************
                                            *  C O M P U T A T I O N  *
                                            ***************************
  

 Number of elements of the density matrix on this node (used, total):       741       741



 ===========================================
 Numerical Integration : Fuzzy Cells (Becke)
 ===========================================
  
 Becke grid quality: VERYGOOD       
  
 Lebedev angular grid order:             min:  13 max:  41
 Nr. of radial points:                   min:  93 max:  93

 Total nr. of points:         93
 Nr. of blocks:                1
 Block length:                93
 Nr. of dummy points:          0


 Test of Precision of the Numerical Integration Grid
 ===================================================

 Integral of the Total Core Density:                   0.00000000000000



 ========================
 Density Fitting (zlmFit)
 ========================
  
 ZlmFit Fit Quality: VERYGOOD       
  
 Max L-expansion:                        min:   0 max:   0
 Nr. of radial interpolation points:     min: 200 max: 200



 =====
 S C F  ***  ScaSCF  ***
 =====
  

 CYCLE    1
 SCF Error: norm([F,P])=      0.000000000000, max([F,P])=      0.000000000000
 orbitals (Q,E):
 ---------------
 S :1...7            ( 2.00  -144.4893)  ( 2.00   -36.0966)  ( 2.00   -16.0338)  ( 0.00    -8.9253)
                     ( 0.00    -5.5262)  ( 0.00    -3.6296)  ( 0.00   175.9783)
 P :1...5            ( 6.00   -36.1179)  ( 5.00   -15.7666)  ( 0.00    -8.4199)  ( 0.00    -4.8064)
                     ( 0.00    -2.9092)
 D :1...1            ( 0.00    -9.3333)
 F :1...1            ( 0.00    -6.5000)

 CYCLE    2
  SDIIS (wt  0.000):  1.0000  0.0000
 A-DIIS (wt  1.000):  0.0000  1.0000
  DIIS coefficients:  0.0000  1.0000
 SCF Error: norm([F,P])=     37.918093115371, max([F,P])=     10.754162001971
 orbitals (Q,E):
 ---------------
 S :1...4            ( 2.00   -86.3665)  ( 2.00    -3.0042)  ( 2.00     0.0879)  ( 0.00     0.9074)
 P :1...3            ( 6.00    -0.5941)  ( 5.00     0.2005)  ( 0.00     1.0624)
 D :1...1            ( 0.00     1.3908)
 F :1...1            ( 0.00     1.7118)

 CYCLE    3
  SDIIS (wt  0.000):  0.2468  0.7532
 A-DIIS (wt  1.000):  0.2184  0.7816
  DIIS coefficients:  0.2184  0.7816
 SCF Error: norm([F,P])=     20.757708249348, max([F,P])=      6.871796656039
 orbitals (Q,E):
 ---------------
 S :1...4            ( 2.00  -105.5772)  ( 2.00   -12.2185)  ( 2.00    -1.9200)  ( 0.00    -0.1982)
 P :1...3            ( 6.00   -10.2793)  ( 5.00    -1.3974)  ( 0.00    -0.0873)
 D :1...1            ( 0.00    -0.4679)
 F :1...1            ( 0.00     0.6062)

 CYCLE    4
  SDIIS (wt  0.000): -0.0788  0.1328  0.9460
 A-DIIS (wt  1.000):  0.0000  0.0000  1.0000
  DIIS coefficients:  0.0000  0.0000  1.0000
 SCF Error: norm([F,P])=      6.021405452047, max([F,P])=      2.061487593708
 orbitals (Q,E):
 ---------------
 S :1...4            ( 2.00   -97.6728)  ( 2.00    -7.4155)  ( 2.00    -0.2425)  ( 0.00     0.4293)
 P :1...3            ( 6.00    -5.1248)  ( 5.00     0.0322)  ( 0.00     0.5151)
 D :1...1            ( 0.00     0.8498)
 F :1...1            ( 0.00     1.4674)

 CYCLE    5
  SDIIS (wt  0.000): -0.0198 -0.0624  0.3895  0.6927
 A-DIIS (wt  1.000):  0.0000  0.0000  0.4691  0.5309
  DIIS coefficients:  0.0000  0.0000  0.4691  0.5309
 SCF Error: norm([F,P])=      4.122826282833, max([F,P])=      1.762338952725
 orbitals (Q,E):
 ---------------
 S :1...4            ( 2.00  -100.7640)  ( 2.00    -9.3467)  ( 2.00    -0.9097)  ( 0.00     0.1217)
 P :1...3            ( 6.00    -7.1584)  ( 5.00    -0.4570)  ( 0.00     0.1672)
 D :1...1            ( 0.00     0.2335)
 F :1...1            ( 0.00     1.0657)

 CYCLE    6
  SDIIS (wt  0.000): -0.0001 -0.0138  0.0424  0.0981  0.8734
 A-DIIS (wt  1.000):  0.0000  0.0000  0.0000  0.0000  1.0000
  DIIS coefficients:  0.0000  0.0000  0.0000  0.0000  1.0000
 SCF Error: norm([F,P])=      0.297134459880, max([F,P])=      0.111907135573
 orbitals (Q,E):
 ---------------
 S :1...4            ( 2.00  -100.6199)  ( 2.00    -9.0705)  ( 2.00    -0.6673)  ( 0.00     0.2275)
 P :1...3            ( 6.00    -6.8928)  ( 5.00    -0.2439)  ( 0.00     0.2570)
 D :1...1            ( 0.00     0.4575)
 F :1...1            ( 0.00     1.2382)

 CYCLE    7
  SDIIS (wt  0.000): -0.0002  0.0003  0.0119 -0.0199  0.3831  0.6249
 A-DIIS (wt  1.000):  0.0000  0.0000  0.0000  0.0000  0.4431  0.5569
  DIIS coefficients:  0.0000  0.0000  0.0000  0.0000  0.4431  0.5569
 SCF Error: norm([F,P])=      0.268270877863, max([F,P])=      0.112251171075
 orbitals (Q,E):
 ---------------
 S :1...4            ( 2.00  -100.8158)  ( 2.00    -9.2442)  ( 2.00    -0.7560)  ( 0.00     0.1940)
 P :1...3            ( 6.00    -7.0691)  ( 5.00    -0.3171)  ( 0.00     0.2236)
 D :1...1            ( 0.00     0.3804)
 F :1...1            ( 0.00     1.1860)

 CYCLE    8
  SDIIS (wt  0.746):  0.0001 -0.0001 -0.0028  0.0035  0.0906  0.1300  0.7787
 A-DIIS (wt  0.254):  0.0000  0.0000  0.0000  0.0000  0.0000  0.0000  1.0000
  DIIS coefficients:  0.0000 -0.0001 -0.0021  0.0026  0.0676  0.0969  0.8350
 SCF Error: norm([F,P])=      0.071559445742, max([F,P])=      0.026187079052
 orbitals (Q,E):
 ---------------
 S :1...4            ( 2.00  -100.7523)  ( 2.00    -9.2108)  ( 2.00    -0.7461)  ( 0.00     0.1973)
 P :1...3            ( 6.00    -7.0328)  ( 5.00    -0.3089)  ( 0.00     0.2267)
 D :1...1            ( 0.00     0.3881)
 F :1...1            ( 0.00     1.1908)

 CYCLE    9
  SDIIS (wt  0.957):  0.0000 -0.0000 -0.0001  0.0003  0.0037 -0.0063  0.1578  0.8445
 A-DIIS (wt  0.043):  0.0000  0.0000  0.0000  0.0000  0.0000  0.0000  0.0000  1.0000
  DIIS coefficients:  0.0000 -0.0000 -0.0001  0.0003  0.0036 -0.0060  0.1511  0.8511
 SCF Error: norm([F,P])=      0.013066268530, max([F,P])=      0.005220141314
 orbitals (Q,E):
 ---------------
 S :1...4            ( 2.00  -100.7623)  ( 2.00    -9.2169)  ( 2.00    -0.7484)  ( 0.00     0.1965)
 P :1...3            ( 6.00    -7.0393)  ( 5.00    -0.3108)  ( 0.00     0.2259)
 D :1...1            ( 0.00     0.3862)
 F :1...1            ( 0.00     1.1896)

 CYCLE   10
  SDIIS (wt  1.000):  0.0000  0.0000 -0.0000 -0.0000  0.0002  0.0011 -0.0030  0.0039  0.9977
  DIIS coefficients:  0.0000  0.0000 -0.0000 -0.0000  0.0002  0.0011 -0.0030  0.0039  0.9977
 SCF Error: norm([F,P])=      0.000485727204, max([F,P])=      0.000202934401
 orbitals (Q,E):
 ---------------
 S :1...4            ( 2.00  -100.7620)  ( 2.00    -9.2166)  ( 2.00    -0.7483)  ( 0.00     0.1965)
 P :1...3            ( 6.00    -7.0390)  ( 5.00    -0.3107)  ( 0.00     0.2259)
 D :1...1            ( 0.00     0.3863)
 F :1...1            ( 0.00     1.1896)

 CYCLE   11
  SDIIS (wt  1.000):  0.0000  0.0000  0.0000  0.0000 -0.0002 -0.0009  0.0045  0.9965
  DIIS coefficients:  0.0000  0.0000  0.0000  0.0000 -0.0002 -0.0009  0.0045  0.9965
 SCF Error: norm([F,P])=      0.000002451023, max([F,P])=      0.000000874872
 orbitals (Q,E):
 ---------------
 S :1...4            ( 2.00  -100.7620)  ( 2.00    -9.2166)  ( 2.00    -0.7483)  ( 0.00     0.1965)
 P :1...3            ( 6.00    -7.0390)  ( 5.00    -0.3107)  ( 0.00     0.2259)
 D :1...1            ( 0.00     0.3863)
 F :1...1            ( 0.00     1.1896)

 CYCLE   12
  SDIIS (wt  1.000):  0.0000  0.0000 -0.0000 -0.0000  0.0001  0.0049  0.9950
  DIIS coefficients:  0.0000  0.0000 -0.0000 -0.0000  0.0001  0.0049  0.9950
 SCF Error: norm([F,P])=      0.000000029116, max([F,P])=      0.000000011194
 orbitals (Q,E):
 ---------------
 S :1...4            ( 2.00  -100.7620)  ( 2.00    -9.2166)  ( 2.00    -0.7483)  ( 0.00     0.1965)
 P :1...3            ( 6.00    -7.0390)  ( 5.00    -0.3107)  ( 0.00     0.2259)
 D :1...1            ( 0.00     0.3863)
 F :1...1            ( 0.00     1.1896)

 CYCLE   13
  SDIIS (wt  1.000):  0.0000 -0.0004  0.0111  0.9893
  DIIS coefficients:  0.0000 -0.0004  0.0111  0.9893
 SCF Error: norm([F,P])=      0.000000001289, max([F,P])=      0.000000000494
 orbitals (Q,E):
 ---------------
 S :1...4            ( 2.00  -100.7620)  ( 2.00    -9.2166)  ( 2.00    -0.7483)  ( 0.00     0.1965)
 P :1...3            ( 6.00    -7.0390)  ( 5.00    -0.3107)  ( 0.00     0.2259)
 D :1...1            ( 0.00     0.3863)
 F :1...1            ( 0.00     1.1896)

 SCF CONVERGED

 CYCLE   14
1
 ***************************************************************************************************



                                                *******************
                                                *  R E S U L T S  *
                                                *******************
  
 *** Setting up for NEW gradients in Focky
 *** Using FIT density in Focky

 Orbital Energies, per Irrep and Spin:
 ======================================
                        Occup              E (au)              E (eV)       Diff (eV) with prev. cycle
                        -----      --------------------        ------       --------------------------
 S
               1        2.000     -0.10076196025470E+03     -2741.872               4.81E-10
               2        2.000     -0.92166234791376E+01      -250.797               4.97E-10
               3        2.000     -0.74829309878317E+00       -20.362               4.14E-10
               4        0.000      0.19650378945434E+00         5.347
               5        0.000      0.20105214794378E+01        54.709
               6        0.000      0.12737820956868E+02       346.614
               7        0.000      0.21467502602049E+03      5841.605
 P
               1        6.000     -0.70390087591571E+01      -191.541               4.91E-10
               2        5.000     -0.31074821072058E+00        -8.456               3.59E-10
               3        0.000      0.22590803353600E+00         6.147
               4        0.000      0.21023976914888E+01        57.209
               5        0.000      0.18828233069566E+02       512.342
 D
               1        0.000      0.38627333037826E+00        10.511
 F
               1        0.000      0.11896264283968E+01        32.371


 Partially Occupied:
               2 P                -0.31074821072058E+00
  
 HOMO :        3 S                -0.74829309878317E+00
 LUMO :        4 S                 0.19650378945434E+00
  


 Orbital Energies, all Irreps
 ========================================

 Irrep        no.  (spin)   Occup              E (au)                E (eV)
 ---------------------------------------------------------------------------
 S             1             2.00       -0.10076196025470E+03     -2741.8724
 S             2             2.00       -0.92166234791376E+01      -250.7971
 P             1             6.00       -0.70390087591571E+01      -191.5412
 S             3             2.00       -0.74829309878317E+00       -20.3621
 P             2             5.00       -0.31074821072058E+00        -8.4559
 S             4             0.00        0.19650378945434E+00         5.3471
 P             3             0.00        0.22590803353600E+00         6.1473
 D             1             0.00        0.38627333037826E+00        10.5110
 F             1             0.00        0.11896264283968E+01        32.3714
 S             5             0.00        0.20105214794378E+01        54.7091
 P             4             0.00        0.21023976914888E+01        57.2092
 S             6             0.00        0.12737820956868E+02       346.6137
 P             5             0.00        0.18828233069566E+02       512.3423
 S             7             0.00        0.21467502602049E+03      5841.6047


 All Electron Calculation, thus no Orbital Energies of the Core Orbitals are calculated



 =======================================
 M U L L I K E N   P O P U L A T I O N S
 =======================================
  
 The survey below gives for each atom:
 a) the total charge (Z minus electrons)
 b) the net spin polarization (nr of electrons spin-A minus spin-B)
 c) for each spin the atomic electron valence density (integrated) per L-value.

 Atom              Charge    Spin density          S         P         D         F
 ----              ------    ------------       ------    ------    ------    ------
 1 Cl              0.0000                       6.0000   11.0000    0.0000    0.0000

 Populations of individual BAS functions
 ----------------------------------------
 1 Cl           0.5041  1.4544  1.7124  0.2493  0.7286  0.7286  0.7286  1.2681  1.2681  1.2681
                0.6256  1.0927  0.3615  0.2681  0.2681  0.2681  1.0016  1.0016  1.0016  0.4002
                0.4002  0.4002  0.0000  0.0000  0.0000  0.0000  0.0000  0.0000  0.0000  0.0000
                0.0000  0.0000  0.0000  0.0000  0.0000  0.0000  0.0000  0.0000

 Gross Charges per Atom (Z minus electrons)
 ==========================================
             0.0000
 Net Total:  0.00000000



 =======================================================================
 Electrostatic potential at the Nuclei due to electrons and other nuclei
 =======================================================================
  
         Atom                  Potential
         ----                  ---------
     1)   Cl                 64.38336388
 
 
 ========================
 No memory problems found
 ========================
 
 Maximum number of active allocate calls:         447
 
 *******************************************************************************

                             A D F   E X I T
 NORMAL TERMINATION



 =================
 Timing Statistics
 =================
  
 Total Used :                     CPU=        0.95      System=        0.04     Elapsed=        0.99

 Calls  Section                     ( Mean, Percentage )
 ---------------------------------------------------------------------------------------------------
     3  ><      ................      0.00    0.10             0.00    0.00             0.00    0.08
     1  INIT    ................      0.01    1.36             0.02   54.05             0.03    3.51
     1  GEOMET  ................      0.01    1.26             0.00    2.70             0.01    1.35
     1  INPUTA  ................      0.00    0.21             0.00    2.70             0.00    0.32
     1  MAINSY  ................      0.01    0.84             0.00    0.00             0.01    0.81
     1  SYMFIT  ................      0.00    0.00             0.00    2.70             0.00    0.12
     1  CORORT  ................      0.00    0.10             0.00    0.00             0.00    0.04
     1  SYMORB  ................      0.00    0.00             0.00    2.70             0.00    0.16
     1  CLSMAT  ................      0.01    1.05             0.00    0.00             0.01    0.93
     1  ORTHON  ................      0.00    0.31             0.00    0.00             0.00    0.30
     1  GENPT   ................      0.03    2.73             0.00    0.00             0.03    2.66
     1  PTBAS   ................      0.01    0.63             0.00    0.00             0.01    0.63
    14  FOCKY   ................      0.05   77.23             0.00   24.32             0.05   74.94
    14  FOCKTR  ................      0.00    1.89             0.00    2.70             0.00    2.00
    14  SDIIS   ................      0.00    3.67             0.00    5.41             0.00    3.87
     1  COREPS  ................      0.04    4.51             0.00    0.00             0.04    4.25
     1  POPAN   ................      0.01    0.94             0.00    0.00             0.01    0.93
     1  DEBYE   ................      0.00    0.10             0.00    0.00             0.00    0.10
     1  EXIT PROCEDURE .........      0.03    3.04             0.00    2.70             0.03    3.01


 Currently Open Files (EXIT00)
 ====================

 Unit    Access Format  Status   Type       Ident (file)
 -------------------------------------------------------
   3      SEQ    FORM   TRANSP  NORMAL      LOGFILE
                                          ( logfile )


 Buffered I/O statistics
 =======================
 Memory available:                     67108864
 Number of records fitting in memory:     16131
 Input :   0.1% of                        29179  *4k bytes
 Output:  12.9% of                         1455  *4k bytes
 Records from serial files evicted:           0
                    others evicted:           0
 Hash table lookups:      75511 with          0 conflicts (  0.00%)

 ***************************************************************************************************
 (LOGFILE)
 <May09-2019> <16:32:25>  ADF 2017  RunTime: May09-2019 16:32:25  Nodes: 1  Procs: 1
 <May09-2019> <16:32:25>  Fluorine (TZ2P)
 <May09-2019> <16:32:25>  RunType   : CREATE
 <May09-2019> <16:32:25>  Net Charge: 0 (Nuclei minus Electrons)
 <May09-2019> <16:32:25>  Symmetry  : ATOM
  Coordinates
    Atom         X           Y           Z   (Angstrom)
    1.F         0.000000    0.000000    0.000000
 <May09-2019> <16:32:25>  >>>> CORORT
 <May09-2019> <16:32:25>  >>>> CLSMAT
 <May09-2019> <16:32:25>  >>>> ORTHON
 <May09-2019> <16:32:25>  >>>> GENPT
 <May09-2019> <16:32:25>  Block Length=  76
 <May09-2019> <16:32:25>  >>>> PTBAS
 <May09-2019> <16:32:25>  >>>> CYCLE
 <May09-2019> <16:32:25>              |Error|         MaxErr       Wt(A-DIIS)
 <May09-2019> <16:32:25>      1      0.00000000      0.00000000
 <May09-2019> <16:32:25>      2     11.37379478      4.77775941    100.0
 <May09-2019> <16:32:25>      3      5.10737118      3.12542566    100.0
 <May09-2019> <16:32:25>      4      0.96588425      0.45165556    100.0
 <May09-2019> <16:32:25>      5      1.67496341      0.82531802    100.0
 <May09-2019> <16:32:25>      6      0.19960756      0.09763484     97.6
 <May09-2019> <16:32:25>      7      0.26650754      0.12651474    100.0
 <May09-2019> <16:32:25>      8      0.03096878      0.01498150     14.1
 <May09-2019> <16:32:25>      9      0.00605981      0.00290433      1.9
 <May09-2019> <16:32:25>     10      0.00016558      0.00007918      0.0
 <May09-2019> <16:32:25>     11      0.00000005      0.00000002      0.0
 <May09-2019> <16:32:25>     12      0.00000000      0.00000000      0.0
 <May09-2019> <16:32:25>  SCF converged
 <May09-2019> <16:32:25>     13      0.00000000      0.00000000      0.0
 <May09-2019> <16:32:25>  >>>> POPAN
 <May09-2019> <16:32:25>  >>>> DEBYE
 <May09-2019> <16:32:26>  NORMAL TERMINATION
 <May09-2019> <16:32:26>  END
 <May09-2019> <16:32:26>  ADF 2017  RunTime: May09-2019 16:32:26  Nodes: 1  Procs: 1
 <May09-2019> <16:32:26>  Chlorine (TZ2P)
 <May09-2019> <16:32:26>  RunType   : CREATE
 <May09-2019> <16:32:26>  Net Charge: 0 (Nuclei minus Electrons)
 <May09-2019> <16:32:26>  Symmetry  : ATOM
  Coordinates
    Atom         X           Y           Z   (Angstrom)
    1.Cl        0.000000    0.000000    0.000000
 <May09-2019> <16:32:26>  >>>> CORORT
 <May09-2019> <16:32:26>  >>>> CLSMAT
 <May09-2019> <16:32:26>  >>>> ORTHON
 <May09-2019> <16:32:26>  >>>> GENPT
 <May09-2019> <16:32:26>  Block Length=  93
 <May09-2019> <16:32:26>  >>>> PTBAS
 <May09-2019> <16:32:26>  >>>> CYCLE
 <May09-2019> <16:32:26>              |Error|         MaxErr       Wt(A-DIIS)
 <May09-2019> <16:32:26>      1      0.00000000      0.00000000
 <May09-2019> <16:32:26>      2     37.91809312     10.75416200    100.0
 <May09-2019> <16:32:26>      3     20.75770825      6.87179666    100.0
 <May09-2019> <16:32:26>      4      6.02140545      2.06148759    100.0
 <May09-2019> <16:32:26>      5      4.12282628      1.76233895    100.0
 <May09-2019> <16:32:26>      6      0.29713446      0.11190714    100.0
 <May09-2019> <16:32:26>      7      0.26827088      0.11225117    100.0
 <May09-2019> <16:32:26>      8      0.07155945      0.02618708     25.4
 <May09-2019> <16:32:26>      9      0.01306627      0.00522014      4.3
 <May09-2019> <16:32:26>     10      0.00048573      0.00020293      0.0
 <May09-2019> <16:32:26>     11      0.00000245      0.00000087      0.0
 <May09-2019> <16:32:26>     12      0.00000003      0.00000001      0.0
 <May09-2019> <16:32:26>     13      0.00000000      0.00000000      0.0
 <May09-2019> <16:32:26>  SCF converged
 <May09-2019> <16:32:27>     14      0.00000000      0.00000000      0.0
 <May09-2019> <16:32:27>  >>>> POPAN
 <May09-2019> <16:32:27>  >>>> DEBYE
 <May09-2019> <16:32:27>  NORMAL TERMINATION
 <May09-2019> <16:32:27>  END


 Parallel Execution: Process Information
 ==============================================================================
 Rank   Node Name                              NodeID   MyNodeRank  NodeMaster
    0   BAZIS-cn017                               0          0          0
    1   BAZIS-cn017                               0          1         -1
    2   BAZIS-cn017                               0          2         -1
    3   BAZIS-cn017                               0          3         -1
    4   BAZIS-cn017                               0          4         -1
    5   BAZIS-cn017                               0          5         -1
    6   BAZIS-cn017                               0          6         -1
    7   BAZIS-cn017                               0          7         -1
    8   BAZIS-cn017                               0          8         -1
    9   BAZIS-cn017                               0          9         -1
   10   BAZIS-cn017                               0         10         -1
   11   BAZIS-cn017                               0         11         -1
 ==============================================================================


May use up to 30771MB of RAM as shared memory on node 0


XC
  GGA blyp
  DISPERSION Grimme3 BJDAMP
END

SCF
  iterations 250
END

SYMMETRY nosym
CHARGE 0

ZLMFIT
  Quality normal
END

BECKEGRID
  Quality good
End

ATOMS
    1.F        -4.930175    3.105115   -0.047296
    2.Cl       -3.857100    1.219964    0.110275
END

Fragments
F t21.F
Cl t21.Cl
End
end input

 *******************************************************************************
 *                                                                             *
 *  -------------------------------------                                      *
 *   Amsterdam Density Functional  (ADF)         2017                          *
 *  -------------------------------------                                      *
 *                                               r58813 2017-04-12             *
 *                                                                             *
 *                                                                             *
 *                              =================                              *
 *                              |               |                              *
 *                              |     A D F     |                              *
 *                              |               |                              *
 *                              =================                              *
 *                                                                             *
 *                                                                             *
 *   Online information and documentation:  https://www.scm.com/support/       *
 *   E-mail:  support@scm.com   info@scm.com                                   *
 *                                                                             *
 *   Scientific publications using ADF results must be properly referenced     *
 *   See the User Manuals (or the web site) for recommended citations          *
 *   The terms and conditions of the End User License Agreement apply to       *
 *   the use of ADF, https://www.scm.com/license-terms/                        *
 *                                                                             *
 **********************  x86_64_linux_intel / intelmpi  ************************
 
 Licensed to: VU/FEW (+ SARA) / ALGEMEEN / Amsterdam / THE NETHERLANDS
 SCM User ID: u7668
  
 ADF 2017  RunTime: May09-2019 16:32:27  Nodes: 1  Procs: 12

 Temporary files are created in /local/datastore0/tcst25/189686/kid_0.PPQI0X


Communication costs MPI_COMM_WORLD:      3.860 usec per message,   0.0178 usec per 8-byte item
Communication costs for intra-node:      3.836 usec per message,   0.0176 usec per 8-byte item

 *** (NO TITLE) ***



 ===========================
 A T T A C H E D   F I L E S
 ===========================
  



 ===============================
 M O D E L   P A R A M E T E R S
 ===============================
  
 DENSITY FUNCTIONAL POTENTIAL (scf)
    LDA:                               Exchange only                           == Not Default ==
    Gradient Corrections:              Becke88 LYP                             == Not Default ==

 SPIN  (restricted / unrestr.)
    Molecule:                          Restricted                               
    Fragments:                         Restricted                               

 OTHER ASPECTS
    Relativistic Corrections:          ---                                      

    Nuclear Charge Density Model:      Point Charge Nuclei                      
    Core Treatment:                    Frozen Orbital(s)                        

    Hyperfine or Zeeman Interaction:   ---                                      

 Settings for Grimme 3 dispersion correction

      damping                        BJ
      s6                          1.000
      a1                          0.430
      s8                          2.700
      a2                          4.236

 Other (technical) parameters

      alpha                      14.000
      version                         4
 


 Fragment File(s)
 ----------------
 F:
         file : t21.F
         jobid: ADF 2017  RunTime: May09-2019 16:32:25  Nodes: 1  Procs: 1
         title: Fluorine (TZ2P)
 Cl:
         file : t21.Cl
         jobid: ADF 2017  RunTime: May09-2019 16:32:26  Nodes: 1  Procs: 1
         title: Chlorine (TZ2P)



                                        ************************************
                                        *  R U N   T Y P E : SINGLE POINT  *
                                        ************************************
  



 ===============
 G E O M E T R Y  ***  Linear Molecule  ***
 ===============
  

 ATOMS
 =====                            X Y Z                    CHARGE
                                (Angstrom)             Nucl     +Core       At.Mass
                       --------------------------    ----------------       -------
    1  F              -4.9302    3.1051   -0.0473      9.00      9.00       18.9984
    2  Cl             -3.8571    1.2200    0.1103     17.00     17.00       34.9689


 FRAGMENTS
 =========                                     Atoms in this Fragment     Cart. coord.s (Angstrom)
                                               -------------------------------------------------------
    1  F                                                 1  F           -4.9302    3.1051   -0.0473
    2  Cl                                                2  Cl          -3.8571    1.2200    0.1103


 Interatomic Distance Matrix (Angstrom)
 --------------------------------------

   1)     0.000
   2)     2.175   0.000



 =====================================
 S Y M M E T R Y ,   E L E C T R O N S
 =====================================
  
 Symmetry: NOSYM

 Irreducible Representations, including subspecies
 -------------------------------------------------
 A


 Configuration of Valence Electrons
 ==================================
 ( determined in the SCF procedure )

 Total:   26

 Net Charge: 0 (Nuclei minus Electrons)

 Aufbau principle for MO occupations will be applied through SCF cycle no.     125
 Thereafter, the program will assign electrons to MOs that are spatially
 similar to the occupied MOs in a "reference" cycle ("KeepOrbitals").
 The reference cycle is always the PREVIOUS cycle: it will evolve with
 the SCF procedure.
1
 ***************************************************************************************************



                                      ****************************************
                                      *  B U I L D : (Fragments, Functions)  *
                                      ****************************************
  



 =======
 S F O s  ***  (Symmetrized Fragment Orbitals)  ***
 =======
  
 SFOs are linear combinations of (valence) Fragment Orbitals (FOs), such that the SFOs transform as the
 irreducible representations of the (molecular) symmetry group. Each SFO is therefore characterized by
 an irrep of the molecule and by a few (or only one) generating FOs.
 The SFOs constitute a symmetry-adapted basis for the Fock matrix. The MO eigenvector coefficients in
 this basis provide a direct interpretation of the MOs in terms of Frontier Orbital Theory.

 The SFOs are combined with auxiliary Core Functions (CFs) to ensure orthogonalization on the (frozen)
 Core Orbitals (COs). The Core-orthogonalized SFOs (CSFOs) constitute the true Fock basis.

 The FOs, and hence also the (C)SFOs are combinations of the elementary basis functions (BAS). The basis
 functions that participate in the description of the SFOs depend on the irrep. The indices of the
 involved functions are printed below for each irrep.
 (The complete list of primitive basis functions is printed in another section)

 Total nr. of (C)SFOs (summation over all irreps) :    60

 NOTE: a (C)SFO that is defined as a combination of more than one FO is usually NOT normalized.



                                       === A ===
 Nr. of SFOs :   60
 Cartesian basis functions that participate in this irrep (total number =    68) :
      1     2     3     4     5     6     9    12     7    10
     13     8    11    14    15    16    17    18    19    20
     21    22    23    24    25    26    27    28    29    30
     31    32    33    34    41    42    43    35    38    44
     47    50    36    39    45    48    51    37    40    46
     49    52    53    54    55    56    57    58    59    60
     61    62    63    64    65    66    67    68

    SFO  (index         Fragment          Generating    Expansion in Fragment Orbitals
  indx  incl.CFs)   Occup   Orb.Energy   FragmentType  Coeff.   Orbital     on Fragment
 --------------------------------------------------------------------------------------
     1       1      2.000     -24.380 au  F             1.00      1 S               1
                        (    -663.414 eV)
     2       2      2.000      -1.092 au  F             1.00      2 S               1
                        (     -29.706 eV)
     3       3       --         0.023 au  F             1.00      3 S               1
                        (       0.631 eV)
     4       4       --         1.580 au  F             1.00      4 S               1
                        (      42.998 eV)
     5       5       --        48.368 au  F             1.00      5 S               1
                        (    1316.149 eV)
     6       6      1.667      -0.409 au  F             1.00      1 P:x             1
                        (     -11.136 eV)
     7       7       --         0.428 au  F             1.00      2 P:x             1
                        (      11.652 eV)
     8       8       --         4.563 au  F             1.00      3 P:x             1
                        (     124.178 eV)
     9       9      1.667      -0.409 au  F             1.00      1 P:y             1
                        (     -11.136 eV)
    10      10       --         0.428 au  F             1.00      2 P:y             1
                        (      11.652 eV)
    11      11       --         4.563 au  F             1.00      3 P:y             1
                        (     124.178 eV)
    12      12      1.667      -0.409 au  F             1.00      1 P:z             1
                        (     -11.136 eV)
    13      13       --         0.428 au  F             1.00      2 P:z             1
                        (      11.652 eV)
    14      14       --         4.563 au  F             1.00      3 P:z             1
                        (     124.178 eV)
    15      15       --         1.117 au  F             1.00      1 D:z2            1
                        (      30.386 eV)
    16      16       --         1.117 au  F             1.00      1 D:x2-y2         1
                        (      30.386 eV)
    17      17       --         1.117 au  F             1.00      1 D:xy            1
                        (      30.386 eV)
    18      18       --         1.117 au  F             1.00      1 D:xz            1
                        (      30.386 eV)
    19      19       --         1.117 au  F             1.00      1 D:yz            1
                        (      30.386 eV)
    20      20       --         3.416 au  F             1.00      1 F:z3            1
                        (      92.955 eV)
    21      21       --         3.416 au  F             1.00      1 F:z             1
                        (      92.955 eV)
    22      22       --         3.416 au  F             1.00      1 F:xyz           1
                        (      92.955 eV)
    23      23       --         3.416 au  F             1.00      1 F:z2x           1
                        (      92.955 eV)
    24      24       --         3.416 au  F             1.00      1 F:z2y           1
                        (      92.955 eV)
    25      25       --         3.416 au  F             1.00      1 F:x             1
                        (      92.955 eV)
    26      26       --         3.416 au  F             1.00      1 F:y             1
                        (      92.955 eV)
    27      27      2.000    -100.762 au  Cl            1.00      1 S               2
                        (   -2741.872 eV)
    28      28      2.000      -9.217 au  Cl            1.00      2 S               2
                        (    -250.797 eV)
    29      29      2.000      -0.748 au  Cl            1.00      3 S               2
                        (     -20.362 eV)
    30      30       --         0.197 au  Cl            1.00      4 S               2
                        (       5.347 eV)
    31      31       --         2.011 au  Cl            1.00      5 S               2
                        (      54.709 eV)
    32      32       --        12.738 au  Cl            1.00      6 S               2
                        (     346.614 eV)
    33      33       --       214.675 au  Cl            1.00      7 S               2
                        (    5841.605 eV)
    34      34      2.000      -7.039 au  Cl            1.00      1 P:x             2
                        (    -191.541 eV)
    35      35      1.667      -0.311 au  Cl            1.00      2 P:x             2
                        (      -8.456 eV)
    36      36       --         0.226 au  Cl            1.00      3 P:x             2
                        (       6.147 eV)
    37      37       --         2.102 au  Cl            1.00      4 P:x             2
                        (      57.209 eV)
    38      38       --        18.828 au  Cl            1.00      5 P:x             2
                        (     512.342 eV)
    39      39      2.000      -7.039 au  Cl            1.00      1 P:y             2
                        (    -191.541 eV)
    40      40      1.667      -0.311 au  Cl            1.00      2 P:y             2
                        (      -8.456 eV)
    41      41       --         0.226 au  Cl            1.00      3 P:y             2
                        (       6.147 eV)
    42      42       --         2.102 au  Cl            1.00      4 P:y             2
                        (      57.209 eV)
    43      43       --        18.828 au  Cl            1.00      5 P:y             2
                        (     512.342 eV)
    44      44      2.000      -7.039 au  Cl            1.00      1 P:z             2
                        (    -191.541 eV)
    45      45      1.667      -0.311 au  Cl            1.00      2 P:z             2
                        (      -8.456 eV)
    46      46       --         0.226 au  Cl            1.00      3 P:z             2
                        (       6.147 eV)
    47      47       --         2.102 au  Cl            1.00      4 P:z             2
                        (      57.209 eV)
    48      48       --        18.828 au  Cl            1.00      5 P:z             2
                        (     512.342 eV)
    49      49       --         0.386 au  Cl            1.00      1 D:z2            2
                        (      10.511 eV)
    50      50       --         0.386 au  Cl            1.00      1 D:x2-y2         2
                        (      10.511 eV)
    51      51       --         0.386 au  Cl            1.00      1 D:xy            2
                        (      10.511 eV)
    52      52       --         0.386 au  Cl            1.00      1 D:xz            2
                        (      10.511 eV)
    53      53       --         0.386 au  Cl            1.00      1 D:yz            2
                        (      10.511 eV)
    54      54       --         1.190 au  Cl            1.00      1 F:z3            2
                        (      32.371 eV)
    55      55       --         1.190 au  Cl            1.00      1 F:z             2
                        (      32.371 eV)
    56      56       --         1.190 au  Cl            1.00      1 F:xyz           2
                        (      32.371 eV)
    57      57       --         1.190 au  Cl            1.00      1 F:z2x           2
                        (      32.371 eV)
    58      58       --         1.190 au  Cl            1.00      1 F:z2y           2
                        (      32.371 eV)
    59      59       --         1.190 au  Cl            1.00      1 F:x             2
                        (      32.371 eV)
    60      60       --         1.190 au  Cl            1.00      1 F:y             2
                        (      32.371 eV)



 ================================
 (Slater-type)  F U N C T I O N S  ***  (Basis and Fit)  ***
 ================================
  

 Atom Type    1  (F)
 ==============

 Valence Basis Sets:  10
 -----------------------
   1 S   10.880000
[...]

Total Bonding Energy:                   -0.093271540160170         -2.5380           -58.53          -244.88


Summary of Bonding Energy (energy terms are taken from the energy decomposition above)
======================================================================================

  Electrostatic Energy:                 -0.030725523029047         -0.8361           -19.28           -80.67
  Kinetic Energy:                       -0.143170013937527         -3.8959           -89.84          -375.89
  Coulomb (Steric+OrbInt) Energy:        0.136730807083566          3.7206            85.80           358.99
  XC Energy:                            -0.055156461179712         -1.5009           -34.61          -144.81
  Dispersion Energy:                    -0.000950349097450         -0.0259            -0.60            -2.50
                                      --------------------     -----------       ----------      -----------
  Total Bonding Energy:                 -0.093271540160169         -2.5380           -58.53          -244.88


Correction terms (incorporated in energies above; only for test purposes):

1. Indication of fit-quality: 1st-order fit-correction used in the energy (hartree):  -0.0000226806
2. Electrostatic (Fit correction):   0.0000000000



 =========================================
 F R A G M E N T   E N E R G Y   T E R M S  ***  (summed over all fragments)  ***
 =========================================
  

The energy terms below are (parts of) the Total Energy of the fragments from which the molecule
 is built.

Exchange and Correlation
  Exchange LDA:                        -34.341217604761219       -934.4721        -21549.44        -90162.85
  Exchange GGA:                         -3.089502660798987        -84.0696         -1938.69         -8111.49
  Correlation LDA:                       0.000000000000000          0.0000             0.00             0.00
  Correlation GGA:                      -1.025267935983315        -27.8990          -643.37         -2691.84
                                      --------------------     -----------       ----------      -----------
  Total XC:                            -38.455988201543519      -1046.4407        -24131.50       -100966.18
1



 =======================================================
 S F O   P O P U L A T I O N S ,   M O   A N A L Y S I S
 =======================================================
  
 A Mulliken population analysis is performed on (input-)selected MOs. All populations refer to SFOs.
 BAS populations may have been printed directly after the SCF part.


                                       === A ===


 SFO contributions (%) per orbital
 (multiplication by the orbital occupation yields the SFO Gross Populations)

 Orb.:        4      5      6      7      8      9     10     11     12     13     14     15     16     17
 occup:     2.00   2.00   2.00   2.00   2.00   2.00   2.00   2.00   2.00   2.00   0.00   0.00   0.00   0.00
 CF+SFO     ----   ----   ----   ----   ----   ----   ----   ----   ----   ----   ----   ----   ----   ----
 ------
      2:   -0.00  -0.00  -0.00  98.45   1.05   0.52   0.00   0.00   0.00  -0.00   0.10  -0.06  -0.06  -0.00
      3:   -0.00  -0.00  -0.00   0.02  -0.10  -0.05   0.00  -0.00   0.00   0.00  -0.44 108.11   1.26   0.00
      6:   -0.00  -0.00  -0.00   0.04   0.26  14.73  39.44  17.68  15.59   2.72   9.22   0.04  -0.01   0.02
      7:   -0.00  -0.00  -0.00   0.00  -0.03  -0.00   0.07   0.03  -0.12  -0.02  -0.17  -0.34   1.04   1.32
      9:   -0.00  -0.00  -0.00   0.12   0.80  45.45  15.62   3.15   5.71   0.31  28.46   0.13  -0.02   0.01
     10:   -0.00  -0.00  -0.00   0.00  -0.08  -0.00   0.03   0.01  -0.04  -0.00  -0.52  -1.06   3.20   0.45
     12:   -0.00  -0.00  -0.00   0.00   0.01   0.32  20.43  54.67   2.91  21.18   0.20   0.00  -0.00   0.00
     29:   -0.00   0.00   0.00   0.91  97.95   0.74   0.00   0.00   0.00   0.00   0.50  -0.25  -0.00   0.00
     30:    0.00  -0.00   0.00  -0.08   0.03  -0.10  -0.00  -0.00   0.00   0.00   0.03  -1.24  25.15   0.00
     34:   24.35  63.25  12.40   0.00  -0.00   0.00  -0.00  -0.00   0.00   0.00  -0.00   0.00   0.00   0.00
     35:    0.00   0.00   0.00   0.12   0.00   9.22  12.60   5.65  48.85   8.54  15.10  -0.20   0.04   0.02
     36:   -0.00   0.00   0.00  -0.05   0.00   0.01  -0.05  -0.02   0.06   0.01  -0.00  -1.18  16.68  71.10
     39:   75.13  17.29   7.58   0.00  -0.00   0.00  -0.00  -0.00   0.00   0.00  -0.00   0.00   0.00   0.00
     40:    0.00   0.00   0.00   0.38   0.00  28.46   4.99   1.01  17.90   0.96  46.61  -0.62   0.12   0.01
     41:   -0.00   0.00   0.00  -0.15   0.01   0.02  -0.02  -0.00   0.02   0.00  -0.00  -3.63  51.49  24.34
     44:    0.53  19.45  80.02   0.00  -0.00   0.00  -0.00  -0.00   0.00   0.00  -0.00   0.00   0.00   0.00
     45:    0.00   0.00   0.00   0.00   0.00   0.20   6.53  17.46   9.10  66.35   0.33  -0.00   0.00   0.00
     46:   -0.00   0.00   0.00  -0.00   0.00   0.00  -0.03  -0.07   0.01   0.08  -0.00  -0.03   0.36   2.55


 Summation over all MOs, multiplied by occupation: Total SFO Gross Populations in this Irrep
 ===========================================================================================

     2.00    2.00   -0.00   -0.00   -0.00    1.81   -0.00   -0.00    1.42   -0.00   -0.00    1.99
    -0.00   -0.00    0.00    0.00    0.00    0.00    0.00    0.00    0.00    0.00    0.00    0.00
     0.00    0.00    2.00    2.00    1.99   -0.00   -0.00   -0.00   -0.00    2.00    1.70   -0.00
    -0.00   -0.00    2.00    1.07   -0.00   -0.00   -0.00    2.00    1.99   -0.00   -0.00   -0.00
     0.00    0.00    0.01    0.00    0.00    0.00    0.00    0.00    0.00    0.00    0.00    0.00



 List of all MOs, ordered by energy, with the most significant SFO gross populations
 ===================================================================================

 Each percentage contribution in the table below corresponds to the indicated SFO.
 In general, a SFO may be a linear combination of several Fragment Orbitals on the same,
 or on symmetry-related Fragments. Only the first 'member' of such a combination is
 specified here. A full definition of all SFOs is given in an earlier part of the output.
 The numbering of the SFOs in this table does NOT include the Core Orbitals, and starts
 from one for each symmetry representation, as in the SFO definition list earlier.

       E(eV)  Occ       MO           %     SFO (first member)   E(eV)  Occ   Fragment
 -------------------------------------------------------------------------------------

     -21.408  2.00     8 A         97.95%     3 S             -20.362  2.00     2 Cl
                                    1.05%     2 S             -29.706  2.00     1 F
     -11.814  2.00     9 A         45.45%     1 P:y           -11.136  1.67     1 F
                                   28.46%     2 P:y            -8.456  1.67     2 Cl
                                   14.73%     1 P:x           -11.136  1.67     1 F
                                    9.22%     2 P:x            -8.456  1.67     2 Cl
      -9.998  2.00    10 A         39.44%     1 P:x           -11.136  1.67     1 F
                                   20.43%     1 P:z           -11.136  1.67     1 F
                                   15.62%     1 P:y           -11.136  1.67     1 F
                                   12.60%     2 P:x            -8.456  1.67     2 Cl
                                    6.53%     2 P:z            -8.456  1.67     2 Cl
                                    4.99%     2 P:y            -8.456  1.67     2 Cl
      -9.998  2.00    11 A         54.67%     1 P:z           -11.136  1.67     1 F
                                   17.68%     1 P:x           -11.136  1.67     1 F
                                   17.46%     2 P:z            -8.456  1.67     2 Cl
                                    5.65%     2 P:x            -8.456  1.67     2 Cl
                                    3.15%     1 P:y           -11.136  1.67     1 F
                                    1.01%     2 P:y            -8.456  1.67     2 Cl
      -8.839  2.00    12 A         48.85%     2 P:x            -8.456  1.67     2 Cl
                                   17.90%     2 P:y            -8.456  1.67     2 Cl
                                   15.59%     1 P:x           -11.136  1.67     1 F
                                    9.10%     2 P:z            -8.456  1.67     2 Cl
                                    5.71%     1 P:y           -11.136  1.67     1 F
                                    2.91%     1 P:z           -11.136  1.67     1 F
      -8.839  2.00    13 A         66.35%     2 P:z            -8.456  1.67     2 Cl
                                   21.18%     1 P:z           -11.136  1.67     1 F
                                    8.54%     2 P:x            -8.456  1.67     2 Cl
                                    2.72%     1 P:x           -11.136  1.67     1 F
      -8.124  0.00    14 A         46.61%     2 P:y            -8.456  1.67     2 Cl
                                   28.46%     1 P:y           -11.136  1.67     1 F
                                   15.10%     2 P:x            -8.456  1.67     2 Cl
                                    9.22%     1 P:x           -11.136  1.67     1 F



 =======================================================================
 Electrostatic potential at the Nuclei due to electrons and other nuclei
 =======================================================================
  
         Atom                  Potential
         ----                  ---------
     1)   F                  26.55783661
     2)   Cl                 64.31974870
 
 
 ========================
 No memory problems found
 ========================
 
 Maximum number of active allocate calls:         882
 
 *******************************************************************************

                             A D F   E X I T
 NORMAL TERMINATION



 =================
 Timing Statistics
 =================
  
 Total Used :                     CPU=        1.61      System=        0.07     Elapsed=        1.73

 Calls  Section                     ( Mean, Percentage )
 ---------------------------------------------------------------------------------------------------
     3  ><      ................      0.00    0.06             0.00    0.00             0.00    0.09
     1  INIT    ................      0.42   25.98             0.03   36.49             0.45   26.04
     1  GEOMET  ................      0.04    2.29             0.01   13.51             0.05    2.86
     1  FRAGM   ................      0.02    0.99             0.01    8.11             0.03    1.78
     1  INPUTA  ................      0.00    0.00             0.00    0.00             0.00    0.03
     1  ATDEN   ................      0.01    0.50             0.00    2.70             0.01    0.63
     1  MAINSY  ................      0.01    0.56             0.00    1.35             0.01    0.69
     1  SYMFIT  ................      0.00    0.12             0.00    0.00             0.00    0.11
     1  CORORT  ................      0.00    0.06             0.00    0.00             0.00    0.03
     1  SYMORB  ................      0.00    0.25             0.00    0.00             0.00    0.25
     1  CLSMAT  ................      0.01    0.37             0.00    1.35             0.01    0.45
     1  ORTHON  ................      0.00    0.31             0.00    1.35             0.01    0.34
     1  GENPT   ................      0.08    5.21             0.00    2.70             0.09    5.03
     1  PTBAS   ................      0.02    1.05             0.00    0.00             0.02    0.94
    12  FOCKY   ................      0.06   44.08             0.00   10.81             0.06   41.80
    12  FOCKTR  ................      0.00    0.56             0.00    1.35             0.00    0.94
    12  SDIIS   ................      0.00    2.79             0.00    1.35             0.00    2.56
     1  COREPS  ................      0.05    3.29             0.00    0.00             0.05    3.12
     1  TOTEN   ................      0.14    8.43             0.01   12.16             0.15    8.39
     1  POPAN   ................      0.00    0.19             0.00    0.00             0.01    0.50
     1  DEBYE   ................      0.00    0.06             0.00    0.00             0.00    0.07
     1  INPUTE  ................      0.00    0.06             0.00    0.00             0.00    0.08
     1  SYMORE  ................      0.00    0.06             0.00    0.00             0.00    0.09
     1  METS    ................      0.00    0.00             0.00    1.35             0.00    0.04
     1  CETS    ................      0.00    0.19             0.00    0.00             0.00    0.16
     1  ELNRGY  ................      0.00    0.19             0.00    0.00             0.00    0.20
     1  POPUL   ................      0.01    0.74             0.00    1.35             0.02    1.02
     1  EXIT PROCEDURE .........      0.03    1.61             0.00    4.05             0.03    1.76


 Currently Open Files (EXIT00)
 ====================

 Unit    Access Format  Status   Type       Ident (file)
 -------------------------------------------------------
   3      SEQ    FORM   TRANSP  NORMAL      LOGFILE
                                          ( logfile )


 Buffered I/O statistics
 =======================
 Memory available:                     67108864
 Number of records fitting in memory:     16131
 Input :   1.8% of                        40794  *4k bytes
 Output:  11.0% of                         3136  *4k bytes
 Records from serial files evicted:           0
                    others evicted:           0
 Hash table lookups:     113472 with          0 conflicts (  0.00%)

 ***************************************************************************************************
 (LOGFILE)
 <May09-2019> <16:32:25>  ADF 2017  RunTime: May09-2019 16:32:25  Nodes: 1  Procs: 1
 <May09-2019> <16:32:25>  Fluorine (TZ2P)
 <May09-2019> <16:32:25>  RunType   : CREATE
 <May09-2019> <16:32:25>  Net Charge: 0 (Nuclei minus Electrons)
 <May09-2019> <16:32:25>  Symmetry  : ATOM
  Coordinates
    Atom         X           Y           Z   (Angstrom)
    1.F         0.000000    0.000000    0.000000
 <May09-2019> <16:32:25>  >>>> CORORT
 <May09-2019> <16:32:25>  >>>> CLSMAT
 <May09-2019> <16:32:25>  >>>> ORTHON
 <May09-2019> <16:32:25>  >>>> GENPT
 <May09-2019> <16:32:25>  Block Length=  76
 <May09-2019> <16:32:25>  >>>> PTBAS
 <May09-2019> <16:32:25>  >>>> CYCLE
 <May09-2019> <16:32:25>              |Error|         MaxErr       Wt(A-DIIS)
 <May09-2019> <16:32:25>      1      0.00000000      0.00000000
 <May09-2019> <16:32:25>      2     11.37379478      4.77775941    100.0
 <May09-2019> <16:32:25>      3      5.10737118      3.12542566    100.0
 <May09-2019> <16:32:25>      4      0.96588425      0.45165556    100.0
 <May09-2019> <16:32:25>      5      1.67496341      0.82531802    100.0
 <May09-2019> <16:32:25>      6      0.19960756      0.09763484     97.6
 <May09-2019> <16:32:25>      7      0.26650754      0.12651474    100.0
 <May09-2019> <16:32:25>      8      0.03096878      0.01498150     14.1
 <May09-2019> <16:32:25>      9      0.00605981      0.00290433      1.9
 <May09-2019> <16:32:25>     10      0.00016558      0.00007918      0.0
 <May09-2019> <16:32:25>     11      0.00000005      0.00000002      0.0
 <May09-2019> <16:32:25>     12      0.00000000      0.00000000      0.0
 <May09-2019> <16:32:25>  SCF converged
 <May09-2019> <16:32:25>     13      0.00000000      0.00000000      0.0
 <May09-2019> <16:32:25>  >>>> POPAN
 <May09-2019> <16:32:25>  >>>> DEBYE
 <May09-2019> <16:32:26>  NORMAL TERMINATION
 <May09-2019> <16:32:26>  END
 <May09-2019> <16:32:26>  ADF 2017  RunTime: May09-2019 16:32:26  Nodes: 1  Procs: 1
 <May09-2019> <16:32:26>  Chlorine (TZ2P)
 <May09-2019> <16:32:26>  RunType   : CREATE
 <May09-2019> <16:32:26>  Net Charge: 0 (Nuclei minus Electrons)
 <May09-2019> <16:32:26>  Symmetry  : ATOM
  Coordinates
    Atom         X           Y           Z   (Angstrom)
    1.Cl        0.000000    0.000000    0.000000
 <May09-2019> <16:32:26>  >>>> CORORT
 <May09-2019> <16:32:26>  >>>> CLSMAT
 <May09-2019> <16:32:26>  >>>> ORTHON
 <May09-2019> <16:32:26>  >>>> GENPT
 <May09-2019> <16:32:26>  Block Length=  93
 <May09-2019> <16:32:26>  >>>> PTBAS
 <May09-2019> <16:32:26>  >>>> CYCLE
 <May09-2019> <16:32:26>              |Error|         MaxErr       Wt(A-DIIS)
 <May09-2019> <16:32:26>      1      0.00000000      0.00000000
 <May09-2019> <16:32:26>      2     37.91809312     10.75416200    100.0
 <May09-2019> <16:32:26>      3     20.75770825      6.87179666    100.0
 <May09-2019> <16:32:26>      4      6.02140545      2.06148759    100.0
 <May09-2019> <16:32:26>      5      4.12282628      1.76233895    100.0
 <May09-2019> <16:32:26>      6      0.29713446      0.11190714    100.0
 <May09-2019> <16:32:26>      7      0.26827088      0.11225117    100.0
 <May09-2019> <16:32:26>      8      0.07155945      0.02618708     25.4
 <May09-2019> <16:32:26>      9      0.01306627      0.00522014      4.3
 <May09-2019> <16:32:26>     10      0.00048573      0.00020293      0.0
 <May09-2019> <16:32:26>     11      0.00000245      0.00000087      0.0
 <May09-2019> <16:32:26>     12      0.00000003      0.00000001      0.0
 <May09-2019> <16:32:26>     13      0.00000000      0.00000000      0.0
 <May09-2019> <16:32:26>  SCF converged
 <May09-2019> <16:32:27>     14      0.00000000      0.00000000      0.0
 <May09-2019> <16:32:27>  >>>> POPAN
 <May09-2019> <16:32:27>  >>>> DEBYE
 <May09-2019> <16:32:27>  NORMAL TERMINATION
 <May09-2019> <16:32:27>  END
 <May09-2019> <16:32:27>  ADF 2017  RunTime: May09-2019 16:32:27  Nodes: 1  Procs: 12
 <May09-2019> <16:32:27>  *** (NO TITLE) ***
 <May09-2019> <16:32:27>  RunType   : SINGLE POINT
 <May09-2019> <16:32:27>  Net Charge: 0 (Nuclei minus Electrons)
 <May09-2019> <16:32:27>  Symmetry  : NOSYM
 <May09-2019> <16:32:27>  >>>> FRAGM
  Coordinates
    Atom         X           Y           Z   (Angstrom)
    1.F        -4.930175    3.105115   -0.047296
    2.Cl       -3.857100    1.219964    0.110275
 <May09-2019> <16:32:27>  >>>> CORORT
 <May09-2019> <16:32:27>  >>>> CLSMAT
 <May09-2019> <16:32:27>  >>>> ORTHON
 <May09-2019> <16:32:27>  >>>> GENPT
 <May09-2019> <16:32:28>  Block Length= 128
 <May09-2019> <16:32:28>  >>>> PTBAS
 <May09-2019> <16:32:28>  >>>> CYCLE
 <May09-2019> <16:32:28>              |Error|         MaxErr       Wt(A-DIIS)
 <May09-2019> <16:32:28>      1      0.65300669      0.40098024
 <May09-2019> <16:32:28>      2      0.67879365      0.28066034    100.0
 <May09-2019> <16:32:28>      3      0.49524867      0.21632448    100.0
 <May09-2019> <16:32:28>      4      0.18505063      0.07826543     78.0
 <May09-2019> <16:32:28>      5      0.13405776      0.06070974     60.3
 <May09-2019> <16:32:28>      6      0.01986262      0.00991831      9.0
 <May09-2019> <16:32:28>      7      0.00656581      0.00321395      2.2
 <May09-2019> <16:32:28>      8      0.00033285      0.00007326      0.0
 <May09-2019> <16:32:28>      9      0.00002110      0.00001121      0.0
 <May09-2019> <16:32:28>     10      0.00000750      0.00000358      0.0
 <May09-2019> <16:32:28>     11      0.00000172      0.00000042      0.0
 <May09-2019> <16:32:28>  SCF converged
 <May09-2019> <16:32:28>     12      0.00000039      0.00000017      0.0
 <May09-2019> <16:32:28>  >>>> TOTEN
 <May09-2019> <16:32:29>  >>>> POPAN
 <May09-2019> <16:32:29>  >>>> DEBYE
 <May09-2019> <16:32:29>  >>>> AMETS
 <May09-2019> <16:32:29>   Bond Energy          -0.09327154 a.u.
 <May09-2019> <16:32:29>   Bond Energy          -2.53804774 eV
 <May09-2019> <16:32:29>   Bond Energy         -58.53       kcal/mol
 <May09-2019> <16:32:29>  >>>> POPUL
 <May09-2019> <16:32:29>  NORMAL TERMINATION
 <May09-2019> <16:32:29>  END
