
Create O   file=TZ2P-O
XC
  GGA blyp
End
End Input

 *******************************************************************************
 *                                                                             *
 *  -------------------------------------                                      *
 *   Amsterdam Density Functional  (ADF)         development version           *
 *  -------------------------------------                                      *
 *                                               r61132 2017-09-08             *
 *                                                                             *
 *                                                                             *
 *                              =================                              *
 *                              |               |                              *
 *                              |     A D F     |                              *
 *                              |               |                              *
 *                              =================                              *
 *                                                                             *
 *                                                                             *
 *   Online information and documentation:  https://www.scm.com/support/       *
 *   E-mail:  support@scm.com   info@scm.com                                   *
 *                                                                             *
 *   Scientific publications using ADF results must be properly referenced     *
 *   See the User Manuals (or the web site) for recommended citations          *
 *   The terms and conditions of the End User License Agreement apply to       *
 *   the use of ADF, https://www.scm.com/license-terms/                        *
 *                                                                             *
 **********************  x86_64_linux_intel / intelmpi  ************************
 
 Licensed to: VU/FEW (+ SARA) / ALGEMEEN / Amsterdam / THE NETHERLANDS
 SCM User ID: u7668
  
 ADF development version  RunTime: May02-2019 16:47:21  Nodes: 1  Procs: 1

 Temporary files are created in /local/datastore0/tcst25/188721/kid_0.Qjxvaa

 Oxygen (TZ2P)



 ===========================
 A T T A C H E D   F I L E S
 ===========================
  
 CREATE - Data File:    TZ2P-O
                        Oxygen (TZ2P)



 ===============================
 M O D E L   P A R A M E T E R S
 ===============================
  
 DENSITY FUNCTIONAL POTENTIAL (scf)
    LDA:                               Exchange only                           == Not Default ==
    Gradient Corrections:              Becke88 LYP                             == Not Default ==

 SPIN  (restricted / unrestr.)
    Molecule:                          Restricted                               

 OTHER ASPECTS
    Relativistic Corrections:          ---                                      

    Nuclear Charge Density Model:      Point Charge Nuclei                      
    Core Treatment:                    Frozen Orbital(s)                        

    Hyperfine or Zeeman Interaction:   ---                                      



 =====================================
 S Y M M E T R Y ,   E L E C T R O N S
 =====================================
  
 Symmetry: ATOM

 Irreducible Representations, including subspecies
 -------------------------------------------------
 S
 P:x  P:y  P:z
 D:z2  D:x2-y2  D:xy  D:xz  D:yz
 F:z3  F:z  F:xyz  F:z2x  F:z2y  F:x  F:y


 Configuration of Valence Electrons
 ==================================

          Occupation Numbers
          -------------------------------------------------
 S        2*2
 P        4
 D        0
 F        0
          -------------------------------------------------

 Total:   8

 Net Charge: 0 (Nuclei minus Electrons)

 Preset values for MO occupations will be applied through SCF cycle no. 1000000
 Thereafter, the program will assign electrons to MOs that are spatially
 similar to the occupied MOs in a "reference" cycle ("KeepOrbitals").
 The reference cycle is always the PREVIOUS cycle: it will evolve with
 the SCF procedure.



 ================================
 (Slater-type)  F U N C T I O N S  ***  (Basis and Fit)  ***
 ================================
  

 Atom Type    1  (O)
 ==============

 Valence Basis Sets:  10
 -----------------------
   1 S    9.800000
   1 S    6.800000
   2 S    7.580000
   2 S    2.880000
   2 S    1.720000
   2 P    4.080000
   2 P    2.080000
   2 P    1.120000
   3 D    2.000000
   4 F    3.000000


 BAS: List of all Elementary Cartesian Basis Functions
 =====================================================

 The numbering in the list below (to the right of the function characteristics) is referred
 to in print-outs of MO eigenvectors and Mulliken populations in the BAS representation
 (as contrasted to the SFO representation).

 Notes:
 1. The functions are characterized by a polynomial prefactor (powers of x,y,z and r) and
    an exponential decay factor alpha.
 2. Since the basis sets are specific for an atom TYPE, the individual functions occur on
    all atoms of that type.
 3. The word 'Core' in the left margin signals that it is a Core Function (CF) : not a
    degree of freedom in the valence set, but only used to ensure orthogonalization of
    the other valence basis functions on the frozen Core Orbitals.


 (power of) X  Y  Z  R     Alpha  on Atom
            ==========     =====     ==========

 O                                    1
                                  ---------------------------------------------------------------------------
            0  0  0  0     9.800      1
            0  0  0  0     6.800      2
            0  0  0  1     7.580      3
            0  0  0  1     2.880      4
            0  0  0  1     1.720      5
            1  0  0  0     4.080      6
            0  1  0  0     4.080      7
            0  0  1  0     4.080      8
            1  0  0  0     2.080      9
            0  1  0  0     2.080     10
            0  0  1  0     2.080     11
            1  0  0  0     1.120     12
            0  1  0  0     1.120     13
            0  0  1  0     1.120     14
            2  0  0  0     2.000     15
            1  1  0  0     2.000     16
            1  0  1  0     2.000     17
            0  2  0  0     2.000     18
            0  1  1  0     2.000     19
            0  0  2  0     2.000     20
            3  0  0  0     3.000     21
            2  1  0  0     3.000     22
            2  0  1  0     3.000     23
            1  2  0  0     3.000     24
            1  1  1  0     3.000     25
            1  0  2  0     3.000     26
            0  3  0  0     3.000     27
            0  2  1  0     3.000     28
            0  1  2  0     3.000     29
            0  0  3  0     3.000     30

 Total number of charge fitting functions (nprimf)        84
 Total number of Cartesian basis functions (naos)         30
 Total number of Cartesian core functions  (ncos)          0



 BAS: List of all Elementary Cartesian Basis Functions
 =====================================================

 The numbering in the list below (to the right of the function characteristics) is referred
 to in print-outs of MO eigenvectors and Mulliken populations in the BAS representation
 (as contrasted to the SFO representation).

 Notes:
 1. The functions are characterized by a polynomial prefactor (powers of x,y,z and r) and
    an exponential decay factor alpha.
 2. Since the basis sets are specific for an atom TYPE, the individual functions occur on
    all atoms of that type.
 3. The word 'Core' in the left margin signals that it is a Core Function (CF) : not a
    degree of freedom in the valence set, but only used to ensure orthogonalization of
    the other valence basis functions on the frozen Core Orbitals.


 (power of) X  Y  Z  R     Alpha  on Atom
            ==========     =====     ==========

 O                                    1
                                  ---------------------------------------------------------------------------
            0  0  0  0     9.800      1
            0  0  0  0     6.800      2
            0  0  0  1     7.580      3
            0  0  0  1     2.880      4
            0  0  0  1     1.720      5
            1  0  0  0     4.080      6
            0  1  0  0     4.080      7
            0  0  1  0     4.080      8
            1  0  0  0     2.080      9
            0  1  0  0     2.080     10
            0  0  1  0     2.080     11
            1  0  0  0     1.120     12
            0  1  0  0     1.120     13
            0  0  1  0     1.120     14
            2  0  0  0     2.000     15
            1  1  0  0     2.000     16
            1  0  1  0     2.000     17
            0  2  0  0     2.000     18
            0  1  1  0     2.000     19
            0  0  2  0     2.000     20
            3  0  0  0     3.000     21
            2  1  0  0     3.000     22
            2  0  1  0     3.000     23
            1  2  0  0     3.000     24
            1  1  1  0     3.000     25
            1  0  2  0     3.000     26
            0  3  0  0     3.000     27
            0  2  1  0     3.000     28
            0  1  2  0     3.000     29
            0  0  3  0     3.000     30
1
 ***************************************************************************************************



                                              ***********************
                                              *  T E C H N I C A L  *
                                              ***********************
  



 =============================================================
 P A R A L L E L I Z A T I O N  and  V E C T O R I Z A T I O N
 =============================================================
  
 Nr of parallel processes:                                1
 Maximum vector length in NumInt loops:                 128

 IO buffersize (Mb):                                     64.000000



 =====================
 S C F   U P D A T E S
 =====================
  
 Max. nr. of cycles:                               300
 Convergence criterion:                              0.0000000100
   secondary criterion:                              0.0000000100

 Mix parameter (when DIIS does not apply):           0.2000000000
 Special mix parameter for the first cycle:          1.0000000000
 Mixed ADIIS+DIIS will be used
    Max number of expansion vectors:                10
    Pure ADIIS when Max([F,P]) is above              0.1000000000
    Pure DIIS when Max([F,P]) is below               0.0010000000
 Automatic ElectronSmearing (in case of problematic SCF convergence) disabled



 =================
 P R E C I S I O N  ***  (General: NumInt, NeglectFunctionTails, ...)  ***
 =================
  

 NumInt:           Target precision:                12.0000000000
 -------           Initial precision:               10.0000000000
                   Min. precision (optimization):   10.0000000000

 Neglect Functions:          Basis functions:        0.1000000000E-13
 ------------------          Fit functions:          0.1000000000E-13



 ===========================
 L I N E A R   S C A L I N G
 ===========================
  

 Cut-off radii density fit:                        0.1000000000E-97
 Overlap cut-off criterion AO matrix elements:     0.1000000000E-97
 Cut-offs for Coulomb potential and fitted density:0.1000000000E-97
 Cut-off criterion for Coulomb multipole terms:    0.1000000000E-97
 Progressive Convergence parameter:                 0.000000000    
1
 ***************************************************************************************************



                                            ***************************
                                            *  C O M P U T A T I O N  *
                                            ***************************
  

 Number of elements of the density matrix on this node (used, total):       465       465



 ===========================================
 Numerical Integration : Fuzzy Cells (Becke)
 ===========================================
  
 Becke grid quality: VERYGOOD       
  
 Lebedev angular grid order:             min:  13 max:  41
 Nr. of radial points:                   min:  68 max:  68

 Total nr. of points:         68
 Nr. of blocks:                1
 Block length:                68
 Nr. of dummy points:          0


 Test of Precision of the Numerical Integration Grid
 ===================================================

 Integral of the Total Core Density:                   0.00000000000000



 ========================
 Density Fitting (zlmFit)
 ========================
  
 ZlmFit Fit Quality: VERYGOOD       
  
 Max L-expansion:                        min:   0 max:   0
 Nr. of radial interpolation points:     min: 180 max: 180



 =====
 S C F  ***  ScaSCF  ***
 =====
  

 CYCLE    1
 SCF Error: norm([F,P])=      0.000000000000, max([F,P])=      0.000000000000
 orbitals (Q,E):
 ---------------
 S :1...5            ( 2.00   -31.9999)  ( 2.00    -7.9363)  ( 0.00    -3.4636)  ( 0.00     4.3191)
                     ( 0.00   110.5486)
 P :1...3            ( 4.00    -7.9991)  ( 0.00    -3.4855)  ( 0.00    -1.8903)
 D :1...1            ( 0.00    -3.3333)
 F :1...1            ( 0.00    -1.5000)

 CYCLE    2
  SDIIS (wt  0.000):  1.0000 -0.0000
 A-DIIS (wt  1.000):  0.0000  1.0000
  DIIS coefficients:  0.0000  1.0000
 SCF Error: norm([F,P])=      8.765745414074, max([F,P])=      5.518031311555
 orbitals (Q,E):
 ---------------
 S :1...3            ( 2.00   -14.5579)  ( 2.00    -0.0124)  ( 0.00     1.8192)
 P :1...2            ( 4.00     0.2183)  ( 0.00     1.2385)
 D :1...1            ( 0.00     1.5388)
 F :1...1            ( 0.00     3.9464)

 CYCLE    3
  SDIIS (wt  0.000):  0.2278  0.7722
 A-DIIS (wt  1.000):  0.3148  0.6852
  DIIS coefficients:  0.3148  0.6852
 SCF Error: norm([F,P])=      3.585499450444, max([F,P])=      2.499410108106
 orbitals (Q,E):
 ---------------
 S :1...3            ( 2.00   -19.8063)  ( 2.00    -1.5198)  ( 0.00     0.3996)
 P :1...2            ( 4.00    -0.9763)  ( 0.00     0.1325)
 D :1...1            ( 0.00     0.6540)
 F :1...1            ( 0.00     2.8642)

 CYCLE    4
  SDIIS (wt  0.000): -0.0456  0.1707  0.8749
 A-DIIS (wt  1.000):  0.0000  0.0000  1.0000
  DIIS coefficients:  0.0000  0.0000  1.0000
 SCF Error: norm([F,P])=      1.147919112368, max([F,P])=      0.583019620058
 orbitals (Q,E):
 ---------------
 S :1...3            ( 2.00   -18.0523)  ( 2.00    -0.5465)  ( 0.00     1.0349)
 P :1...2            ( 4.00    -0.0477)  ( 0.00     0.5307)
 D :1...1            ( 0.00     1.2443)
 F :1...1            ( 0.00     3.5731)

 CYCLE    5
  SDIIS (wt  0.000): -0.0195 -0.0760  0.5845  0.5110
 A-DIIS (wt  1.000):  0.0000  0.0000  0.6414  0.3586
  DIIS coefficients:  0.0000  0.0000  0.6414  0.3586
 SCF Error: norm([F,P])=      1.519585468023, max([F,P])=      0.840542006159
 orbitals (Q,E):
 ---------------
 S :1...3            ( 2.00   -18.8182)  ( 2.00    -0.8502)  ( 0.00     0.8091)
 P :1...2            ( 4.00    -0.3077)  ( 0.00     0.3582)
 D :1...1            ( 0.00     1.0753)
 F :1...1            ( 0.00     3.3669)

 CYCLE    6
  SDIIS (wt  0.000):  0.0038 -0.0006  0.0668 -0.0496  0.9795
 A-DIIS (wt  1.000):  0.0000  0.0000  0.0000  0.0000  1.0000
  DIIS coefficients:  0.0000  0.0000  0.0000  0.0000  1.0000
 SCF Error: norm([F,P])=      0.178828926625, max([F,P])=      0.104242033505
 orbitals (Q,E):
 ---------------
 S :1...3            ( 2.00   -19.0541)  ( 2.00    -0.9245)  ( 0.00     0.7610)
 P :1...2            ( 4.00    -0.3806)  ( 0.00     0.3267)
 D :1...1            ( 0.00     1.0451)
 F :1...1            ( 0.00     3.3284)

 CYCLE    7
  SDIIS (wt  0.000): -0.0003  0.0004 -0.0182  0.0130  0.4190  0.5861
 A-DIIS (wt  1.000):  0.0000  0.0000  0.0000  0.0000  0.5807  0.4193
  DIIS coefficients:  0.0000  0.0000  0.0000  0.0000  0.5807  0.4193
 SCF Error: norm([F,P])=      0.200125290981, max([F,P])=      0.113649127569
 orbitals (Q,E):
 ---------------
 S :1...3            ( 2.00   -18.9379)  ( 2.00    -0.8781)  ( 0.00     0.7909)
 P :1...2            ( 4.00    -0.3354)  ( 0.00     0.3452)
 D :1...1            ( 0.00     1.0687)
 F :1...1            ( 0.00     3.3572)

 CYCLE    8
  SDIIS (wt  0.910): -0.0000  0.0002  0.0044 -0.0011 -0.0192 -0.1454  1.1612
 A-DIIS (wt  0.090):  0.0000  0.0000  0.0000  0.0000  0.0000  0.0000  1.0000
  DIIS coefficients: -0.0000  0.0002  0.0040 -0.0010 -0.0175 -0.1323  1.1466
 SCF Error: norm([F,P])=      0.016951777154, max([F,P])=      0.009947196225
 orbitals (Q,E):
 ---------------
 S :1...3            ( 2.00   -18.9255)  ( 2.00    -0.8739)  ( 0.00     0.7936)
 P :1...2            ( 4.00    -0.3314)  ( 0.00     0.3469)
 D :1...1            ( 0.00     1.0707)
 F :1...1            ( 0.00     3.3597)

 CYCLE    9
  SDIIS (wt  1.000): -0.0000  0.0000  0.0000 -0.0001  0.0003  0.0067  0.0145  0.9786
  DIIS coefficients: -0.0000  0.0000  0.0000 -0.0001  0.0003  0.0067  0.0145  0.9786
 SCF Error: norm([F,P])=      0.001748429775, max([F,P])=      0.000984374868
 orbitals (Q,E):
 ---------------
 S :1...3            ( 2.00   -18.9266)  ( 2.00    -0.8743)  ( 0.00     0.7933)
 P :1...2            ( 4.00    -0.3318)  ( 0.00     0.3467)
 D :1...1            ( 0.00     1.0705)
 F :1...1            ( 0.00     3.3595)

 CYCLE   10
  SDIIS (wt  1.000): -0.0000 -0.0000 -0.0000 -0.0000  0.0000  0.0001 -0.0011 -0.0034  1.0043
  DIIS coefficients: -0.0000 -0.0000 -0.0000 -0.0000  0.0000  0.0001 -0.0011 -0.0034  1.0043
 SCF Error: norm([F,P])=      0.000001425750, max([F,P])=      0.000000713890
 orbitals (Q,E):
 ---------------
 S :1...3            ( 2.00   -18.9266)  ( 2.00    -0.8743)  ( 0.00     0.7933)
 P :1...2            ( 4.00    -0.3318)  ( 0.00     0.3467)
 D :1...1            ( 0.00     1.0705)
 F :1...1            ( 0.00     3.3595)

 CYCLE   11
  SDIIS (wt  1.000):  0.0000 -0.0000 -0.0000 -0.0001 -0.0046  1.0047
  DIIS coefficients:  0.0000 -0.0000 -0.0000 -0.0001 -0.0046  1.0047
 SCF Error: norm([F,P])=      0.000000048697, max([F,P])=      0.000000022967
 orbitals (Q,E):
 ---------------
 S :1...3            ( 2.00   -18.9266)  ( 2.00    -0.8743)  ( 0.00     0.7933)
 P :1...2            ( 4.00    -0.3318)  ( 0.00     0.3467)
 D :1...1            ( 0.00     1.0705)
 F :1...1            ( 0.00     3.3595)

 CYCLE   12
  SDIIS (wt  1.000):  0.0000  0.0003  0.0049  0.9948
  DIIS coefficients:  0.0000  0.0003  0.0049  0.9948
 SCF Error: norm([F,P])=      0.000000002390, max([F,P])=      0.000000001167
 orbitals (Q,E):
 ---------------
 S :1...3            ( 2.00   -18.9266)  ( 2.00    -0.8743)  ( 0.00     0.7933)
 P :1...2            ( 4.00    -0.3318)  ( 0.00     0.3467)
 D :1...1            ( 0.00     1.0705)
 F :1...1            ( 0.00     3.3595)

 SCF CONVERGED

 CYCLE   13
1
 ***************************************************************************************************



                                                *******************
                                                *  R E S U L T S  *
                                                *******************
  
 *** Setting up for NEW gradients in Focky
 *** Using FIT density in Focky

 Orbital Energies, per Irrep and Spin:
 ======================================
                        Occup              E (au)              E (eV)       Diff (eV) with prev. cycle
                        -----      --------------------        ------       --------------------------
 S
               1        2.000     -0.18926622910087E+02      -515.020               5.76E-10
               2        2.000     -0.87432318445324E+00       -23.792               3.91E-10
               3        0.000      0.79334608634550E+00        21.588
               4        0.000      0.13459763470982E+02       366.259
               5        0.000      0.12310776301335E+03      3349.933
 P
               1        4.000     -0.33177161342559E+00        -9.028               3.71E-10
               2        0.000      0.34673871865826E+00         9.435
               3        0.000      0.38246989192600E+01       104.075
 D
               1        0.000      0.10704889823391E+01        29.129
 F
               1        0.000      0.33594552407685E+01        91.415


 Partially Occupied:
               1 P                -0.33177161342559E+00
  
 HOMO :        2 S                -0.87432318445324E+00
 LUMO :        2 P                 0.34673871865826E+00
  


 Orbital Energies, all Irreps
 ========================================

 Irrep        no.  (spin)   Occup              E (au)                E (eV)
 ---------------------------------------------------------------------------
 S             1             2.00       -0.18926622910087E+02      -515.0196
 S             2             2.00       -0.87432318445324E+00       -23.7915
 P             1             4.00       -0.33177161342559E+00        -9.0280
 P             2             0.00        0.34673871865826E+00         9.4352
 S             3             0.00        0.79334608634550E+00        21.5880
 D             1             0.00        0.10704889823391E+01        29.1295
 F             1             0.00        0.33594552407685E+01        91.4154
 P             3             0.00        0.38246989192600E+01       104.0754
 S             4             0.00        0.13459763470982E+02       366.2588
 S             5             0.00        0.12310776301335E+03      3349.9327


 All Electron Calculation, thus no Orbital Energies of the Core Orbitals are calculated



 =======================================
 M U L L I K E N   P O P U L A T I O N S
 =======================================
  
 The survey below gives for each atom:
 a) the total charge (Z minus electrons)
 b) the net spin polarization (nr of electrons spin-A minus spin-B)
 c) for each spin the atomic electron valence density (integrated) per L-value.

 Atom              Charge    Spin density          S         P         D         F
 ----              ------    ------------       ------    ------    ------    ------
 1 O               0.0000                       4.0000    4.0000    0.0000    0.0000

 Populations of individual BAS functions
 ----------------------------------------
 1 O            0.6447  1.3214  0.0008  1.1425  0.8905  0.2537  0.2537  0.2537  0.7364  0.7364
                0.7364  0.3432  0.3432  0.3432  0.0000  0.0000  0.0000  0.0000  0.0000  0.0000
                0.0000  0.0000  0.0000  0.0000  0.0000  0.0000  0.0000  0.0000  0.0000  0.0000

 Gross Charges per Atom (Z minus electrons)
 ==========================================
             0.0000
 Net Total:  0.00000000



 =======================================================================
 Electrostatic potential at the Nuclei due to electrons and other nuclei
 =======================================================================
  
         Atom                  Potential
         ----                  ---------
     1)   O                  22.23872615
 
 
 ========================
 No memory problems found
 ========================
 
 Maximum number of active allocate calls:         447
 
 *******************************************************************************

                             A D F   E X I T
 NORMAL TERMINATION



 =================
 Timing Statistics
 =================
  
 Total Used :                     CPU=        0.82      System=        0.03     Elapsed=        0.86

 Calls  Section                     ( Mean, Percentage )
 ---------------------------------------------------------------------------------------------------
     3  ><      ................      0.00    0.12             0.00    0.00             0.00    0.16
     1  INIT    ................      0.01    1.82             0.02   58.06             0.03    4.04
     1  GEOMET  ................      0.01    1.09             0.00   12.91             0.01    1.46
     1  INPUTA  ................      0.00    0.36             0.00    0.00             0.00    0.29
     1  MAINSY  ................      0.01    0.97             0.00    3.23             0.01    1.08
     1  SYMFIT  ................      0.00    0.00             0.00    3.22             0.00    0.14
     1  CORORT  ................      0.00    0.12             0.00    0.00             0.00    0.05
     1  SYMORB  ................      0.00    0.12             0.00    0.00             0.00    0.12
     1  CLSMAT  ................      0.01    1.09             0.00    0.00             0.01    1.05
     1  ORTHON  ................      0.00    0.24             0.00    0.00             0.00    0.28
     1  GENPT   ................      0.02    2.43             0.00    3.23             0.02    2.44
     1  PTBAS   ................      0.01    0.73             0.00    0.00             0.01    0.72
    13  FOCKY   ................      0.05   75.73             0.00    6.45             0.05   72.88
    13  FOCKTR  ................      0.00    1.70             0.00    3.23             0.00    2.16
    13  SDIIS   ................      0.00    4.37             0.00    3.23             0.00    4.13
     1  COREPS  ................      0.04    4.61             0.00    0.00             0.04    4.45
     1  POPAN   ................      0.01    1.09             0.00    0.00             0.01    1.05
     1  DEBYE   ................      0.00    0.12             0.00    0.00             0.00    0.11
     1  EXIT PROCEDURE .........      0.03    3.28             0.00    6.45             0.03    3.39


 Currently Open Files (EXIT00)
 ====================

 Unit    Access Format  Status   Type       Ident (file)
 -------------------------------------------------------
   3      SEQ    FORM   TRANSP  NORMAL      LOGFILE
                                          ( logfile )


 Buffered I/O statistics
 =======================
 Memory available:                     67108864
 Number of records fitting in memory:     16131
 Input :   0.1% of                        27846  *4k bytes
 Output:  13.4% of                         1391  *4k bytes
 Records from serial files evicted:           0
                    others evicted:           0
 Hash table lookups:      71928 with          0 conflicts (  0.00%)

 ***************************************************************************************************
 (LOGFILE)
 <May02-2019> <16:47:21>  ADF development version  RunTime: May02-2019 16:47:21  Nodes: 1  Procs: 1
 <May02-2019> <16:47:21>  Oxygen (TZ2P)
 <May02-2019> <16:47:21>  RunType   : CREATE
 <May02-2019> <16:47:21>  Net Charge: 0 (Nuclei minus Electrons)
 <May02-2019> <16:47:21>  Symmetry  : ATOM
  Coordinates
    Atom         X           Y           Z   (Angstrom)
    1.O         0.000000    0.000000    0.000000
 <May02-2019> <16:47:21>  >>>> CORORT
 <May02-2019> <16:47:21>  >>>> CLSMAT
 <May02-2019> <16:47:21>  >>>> ORTHON
 <May02-2019> <16:47:21>  >>>> GENPT
 <May02-2019> <16:47:21>  Block Length=  68
 <May02-2019> <16:47:21>  >>>> PTBAS
 <May02-2019> <16:47:21>  >>>> CYCLE
 <May02-2019> <16:47:21>              |Error|         MaxErr       Wt(A-DIIS)
 <May02-2019> <16:47:21>      1      0.00000000      0.00000000
 <May02-2019> <16:47:21>      2      8.76574541      5.51803131    100.0
 <May02-2019> <16:47:21>      3      3.58549945      2.49941011    100.0
 <May02-2019> <16:47:21>      4      1.14791911      0.58301962    100.0
 <May02-2019> <16:47:21>      5      1.51958547      0.84054201    100.0
 <May02-2019> <16:47:21>      6      0.17882893      0.10424203    100.0
 <May02-2019> <16:47:21>      7      0.20012529      0.11364913    100.0
 <May02-2019> <16:47:21>      8      0.01695178      0.00994720      9.0
 <May02-2019> <16:47:21>      9      0.00174843      0.00098437      0.0
 <May02-2019> <16:47:21>     10      0.00000143      0.00000071      0.0
 <May02-2019> <16:47:22>     11      0.00000005      0.00000002      0.0
 <May02-2019> <16:47:22>     12      0.00000000      0.00000000      0.0
 <May02-2019> <16:47:22>  SCF converged
 <May02-2019> <16:47:22>     13      0.00000000      0.00000000      0.0
 <May02-2019> <16:47:22>  >>>> POPAN
 <May02-2019> <16:47:22>  >>>> DEBYE
 <May02-2019> <16:47:22>  NORMAL TERMINATION
 <May02-2019> <16:47:22>  END

Create C   file=TZ2P-C
XC
  GGA blyp
End
End Input

 *******************************************************************************
 *                                                                             *
 *  -------------------------------------                                      *
 *   Amsterdam Density Functional  (ADF)         development version           *
 *  -------------------------------------                                      *
 *                                               r61132 2017-09-08             *
 *                                                                             *
 *                                                                             *
 *                              =================                              *
 *                              |               |                              *
 *                              |     A D F     |                              *
 *                              |               |                              *
 *                              =================                              *
 *                                                                             *
 *                                                                             *
 *   Online information and documentation:  https://www.scm.com/support/       *
 *   E-mail:  support@scm.com   info@scm.com                                   *
 *                                                                             *
 *   Scientific publications using ADF results must be properly referenced     *
 *   See the User Manuals (or the web site) for recommended citations          *
 *   The terms and conditions of the End User License Agreement apply to       *
 *   the use of ADF, https://www.scm.com/license-terms/                        *
 *                                                                             *
 **********************  x86_64_linux_intel / intelmpi  ************************
 
 Licensed to: VU/FEW (+ SARA) / ALGEMEEN / Amsterdam / THE NETHERLANDS
 SCM User ID: u7668
  
 ADF development version  RunTime: May02-2019 16:47:22  Nodes: 1  Procs: 1

 Temporary files are created in /local/datastore0/tcst25/188721/kid_0.dMTx77

 Carbon (TZ2P)



 ===========================
 A T T A C H E D   F I L E S
 ===========================
  
 CREATE - Data File:    TZ2P-C
                        Carbon (TZ2P)



 ===============================
 M O D E L   P A R A M E T E R S
 ===============================
  
 DENSITY FUNCTIONAL POTENTIAL (scf)
    LDA:                               Exchange only                           == Not Default ==
    Gradient Corrections:              Becke88 LYP                             == Not Default ==

 SPIN  (restricted / unrestr.)
    Molecule:                          Restricted                               

 OTHER ASPECTS
    Relativistic Corrections:          ---                                      

    Nuclear Charge Density Model:      Point Charge Nuclei                      
    Core Treatment:                    Frozen Orbital(s)                        

    Hyperfine or Zeeman Interaction:   ---                                      



 =====================================
 S Y M M E T R Y ,   E L E C T R O N S
 =====================================
  
 Symmetry: ATOM

 Irreducible Representations, including subspecies
 -------------------------------------------------
 S
 P:x  P:y  P:z
 D:z2  D:x2-y2  D:xy  D:xz  D:yz
 F:z3  F:z  F:xyz  F:z2x  F:z2y  F:x  F:y


 Configuration of Valence Electrons
 ==================================

          Occupation Numbers
          -------------------------------------------------
 S        2*2
 P        2
 D        0
 F        0
          -------------------------------------------------

 Total:   6

 Net Charge: 0 (Nuclei minus Electrons)

 Preset values for MO occupations will be applied through SCF cycle no. 1000000
 Thereafter, the program will assign electrons to MOs that are spatially
 similar to the occupied MOs in a "reference" cycle ("KeepOrbitals").
 The reference cycle is always the PREVIOUS cycle: it will evolve with
 the SCF procedure.



 ================================
 (Slater-type)  F U N C T I O N S  ***  (Basis and Fit)  ***
 ================================
  

 Atom Type    1  (C)
 ==============

 Valence Basis Sets:  10
 -----------------------
   1 S    7.680000
   1 S    5.000000
   2 S    1.280000
   2 S    2.100000
   2 S    4.600000
   2 P    0.820000
   2 P    1.480000
   2 P    2.940000
   3 D    2.200000
   4 F    3.300000


 BAS: List of all Elementary Cartesian Basis Functions
 =====================================================

 The numbering in the list below (to the right of the function characteristics) is referred
 to in print-outs of MO eigenvectors and Mulliken populations in the BAS representation
 (as contrasted to the SFO representation).

 Notes:
 1. The functions are characterized by a polynomial prefactor (powers of x,y,z and r) and
    an exponential decay factor alpha.
 2. Since the basis sets are specific for an atom TYPE, the individual functions occur on
    all atoms of that type.
 3. The word 'Core' in the left margin signals that it is a Core Function (CF) : not a
    degree of freedom in the valence set, but only used to ensure orthogonalization of
    the other valence basis functions on the frozen Core Orbitals.


 (power of) X  Y  Z  R     Alpha  on Atom
            ==========     =====     ==========

 C                                    1
                                  ---------------------------------------------------------------------------
            0  0  0  0     7.680      1
            0  0  0  0     5.000      2
            0  0  0  1     1.280      3
            0  0  0  1     2.100      4
            0  0  0  1     4.600      5
            1  0  0  0     0.820      6
            0  1  0  0     0.820      7
            0  0  1  0     0.820      8
            1  0  0  0     1.480      9
            0  1  0  0     1.480     10
            0  0  1  0     1.480     11
            1  0  0  0     2.940     12
            0  1  0  0     2.940     13
            0  0  1  0     2.940     14
            2  0  0  0     2.200     15
            1  1  0  0     2.200     16
            1  0  1  0     2.200     17
            0  2  0  0     2.200     18
            0  1  1  0     2.200     19
            0  0  2  0     2.200     20
            3  0  0  0     3.300     21
            2  1  0  0     3.300     22
            2  0  1  0     3.300     23
            1  2  0  0     3.300     24
            1  1  1  0     3.300     25
            1  0  2  0     3.300     26
            0  3  0  0     3.300     27
            0  2  1  0     3.300     28
            0  1  2  0     3.300     29
            0  0  3  0     3.300     30

 Total number of charge fitting functions (nprimf)        84
 Total number of Cartesian basis functions (naos)         30
 Total number of Cartesian core functions  (ncos)          0



 BAS: List of all Elementary Cartesian Basis Functions
 =====================================================

 The numbering in the list below (to the right of the function characteristics) is referred
 to in print-outs of MO eigenvectors and Mulliken populations in the BAS representation
 (as contrasted to the SFO representation).

 Notes:
 1. The functions are characterized by a polynomial prefactor (powers of x,y,z and r) and
    an exponential decay factor alpha.
 2. Since the basis sets are specific for an atom TYPE, the individual functions occur on
    all atoms of that type.
 3. The word 'Core' in the left margin signals that it is a Core Function (CF) : not a
    degree of freedom in the valence set, but only used to ensure orthogonalization of
    the other valence basis functions on the frozen Core Orbitals.


 (power of) X  Y  Z  R     Alpha  on Atom
            ==========     =====     ==========

 C                                    1
                                  ---------------------------------------------------------------------------
            0  0  0  0     7.680      1
            0  0  0  0     5.000      2
            0  0  0  1     1.280      3
            0  0  0  1     2.100      4
            0  0  0  1     4.600      5
            1  0  0  0     0.820      6
            0  1  0  0     0.820      7
            0  0  1  0     0.820      8
            1  0  0  0     1.480      9
            0  1  0  0     1.480     10
            0  0  1  0     1.480     11
            1  0  0  0     2.940     12
            0  1  0  0     2.940     13
            0  0  1  0     2.940     14
            2  0  0  0     2.200     15
            1  1  0  0     2.200     16
            1  0  1  0     2.200     17
            0  2  0  0     2.200     18
            0  1  1  0     2.200     19
            0  0  2  0     2.200     20
            3  0  0  0     3.300     21
            2  1  0  0     3.300     22
            2  0  1  0     3.300     23
            1  2  0  0     3.300     24
            1  1  1  0     3.300     25
            1  0  2  0     3.300     26
            0  3  0  0     3.300     27
            0  2  1  0     3.300     28
            0  1  2  0     3.300     29
            0  0  3  0     3.300     30
1
 ***************************************************************************************************



                                              ***********************
                                              *  T E C H N I C A L  *
                                              ***********************
  



 =============================================================
 P A R A L L E L I Z A T I O N  and  V E C T O R I Z A T I O N
 =============================================================
  
 Nr of parallel processes:                                1
 Maximum vector length in NumInt loops:                 128

 IO buffersize (Mb):                                     64.000000



 =====================
 S C F   U P D A T E S
 =====================
  
 Max. nr. of cycles:                               300
 Convergence criterion:                              0.0000000100
   secondary criterion:                              0.0000000100

 Mix parameter (when DIIS does not apply):           0.2000000000
 Special mix parameter for the first cycle:          1.0000000000
 Mixed ADIIS+DIIS will be used
    Max number of expansion vectors:                10
    Pure ADIIS when Max([F,P]) is above              0.1000000000
    Pure DIIS when Max([F,P]) is below               0.0010000000
 Automatic ElectronSmearing (in case of problematic SCF convergence) disabled



 =================
 P R E C I S I O N  ***  (General: NumInt, NeglectFunctionTails, ...)  ***
 =================
  

 NumInt:           Target precision:                12.0000000000
 -------           Initial precision:               10.0000000000
                   Min. precision (optimization):   10.0000000000

 Neglect Functions:          Basis functions:        0.1000000000E-13
 ------------------          Fit functions:          0.1000000000E-13



 ===========================
 L I N E A R   S C A L I N G
 ===========================
  

 Cut-off radii density fit:                        0.1000000000E-97
 Overlap cut-off criterion AO matrix elements:     0.1000000000E-97
 Cut-offs for Coulomb potential and fitted density:0.1000000000E-97
 Cut-off criterion for Coulomb multipole terms:    0.1000000000E-97
 Progressive Convergence parameter:                 0.000000000    
1
 ***************************************************************************************************



                                            ***************************
                                            *  C O M P U T A T I O N  *
                                            ***************************
  

 Number of elements of the density matrix on this node (used, total):       465       465



 ===========================================
 Numerical Integration : Fuzzy Cells (Becke)
 ===========================================
  
 Becke grid quality: VERYGOOD       
  
 Lebedev angular grid order:             min:  13 max:  41
 Nr. of radial points:                   min:  72 max:  72

 Total nr. of points:         72
 Nr. of blocks:                1
 Block length:                72
 Nr. of dummy points:          0


 Test of Precision of the Numerical Integration Grid
 ===================================================

 Integral of the Total Core Density:                   0.00000000000000



 ========================
 Density Fitting (zlmFit)
 ========================
  
 ZlmFit Fit Quality: VERYGOOD       
  
 Max L-expansion:                        min:   0 max:   0
 Nr. of radial interpolation points:     min: 160 max: 160



 =====
 S C F  ***  ScaSCF  ***
 =====
  

 CYCLE    1
 SCF Error: norm([F,P])=      0.000000000000, max([F,P])=      0.000000000000
 orbitals (Q,E):
 ---------------
 S :1...5            ( 2.00   -17.9995)  ( 2.00    -4.4761)  ( 0.00    -1.9482)  ( 0.00     0.6812)
                     ( 0.00    42.8100)
 P :1...3            ( 2.00    -4.4994)  ( 0.00    -1.9807)  ( 0.00    -1.0849)
 D :1...1            ( 0.00    -1.9800)
 F :1...1            ( 0.00     0.4950)

 CYCLE    2
  SDIIS (wt  0.000):  1.0000 -0.0000
 A-DIIS (wt  1.000):  0.0000  1.0000
  DIIS coefficients:  0.0000  1.0000
 SCF Error: norm([F,P])=      4.480319744476, max([F,P])=      3.328841325837
 orbitals (Q,E):
 ---------------
 S :1...3            ( 2.00    -7.7917)  ( 2.00    -0.0500)  ( 0.00     0.8490)
 P :1...2            ( 2.00     0.1033)  ( 0.00     0.5895)
 D :1...1            ( 0.00     1.7552)
 F :1...1            ( 0.00     4.6366)

 CYCLE    3
  SDIIS (wt  0.000):  0.2185  0.7815
 A-DIIS (wt  1.000):  0.1233  0.8767
  DIIS coefficients:  0.1233  0.8767
 SCF Error: norm([F,P])=      1.636788894664, max([F,P])=      1.315295345514
 orbitals (Q,E):
 ---------------
 S :1...3            ( 2.00   -10.9862)  ( 2.00    -0.9428)  ( 0.00     0.1231)
 P :1...2            ( 2.00    -0.6386)  ( 0.00     0.0246)
 D :1...1            ( 0.00     0.8395)
 F :1...1            ( 0.00     3.5625)

 CYCLE    4
  SDIIS (wt  0.000): -0.0629  0.2184  0.8445
 A-DIIS (wt  1.000):  0.0000  0.0872  0.9128
  DIIS coefficients:  0.0000  0.0872  0.9128
 SCF Error: norm([F,P])=      0.722267649759, max([F,P])=      0.580815510644
 orbitals (Q,E):
 ---------------
 S :1...3            ( 2.00    -9.6419)  ( 2.00    -0.3647)  ( 0.00     0.4682)
 P :1...2            ( 2.00    -0.0765)  ( 0.00     0.2450)
 D :1...1            ( 0.00     1.3742)
 F :1...1            ( 0.00     4.1720)

 CYCLE    5
  SDIIS (wt  0.000): -0.0214 -0.0561  0.3847  0.6927
 A-DIIS (wt  1.000):  0.0000  0.0000  0.2646  0.7354
  DIIS coefficients:  0.0000  0.0000  0.2646  0.7354
 SCF Error: norm([F,P])=      0.412794757847, max([F,P])=      0.328642040749
 orbitals (Q,E):
 ---------------
 S :1...3            ( 2.00   -10.1968)  ( 2.00    -0.5643)  ( 0.00     0.3336)
 P :1...2            ( 2.00    -0.2533)  ( 0.00     0.1428)
 D :1...1            ( 0.00     1.1818)
 F :1...1            ( 0.00     3.9467)

 CYCLE    6
  SDIIS (wt  0.032):  0.0025 -0.0116 -0.0698  0.2077  0.8712
 A-DIIS (wt  0.968):  0.0000  0.0000  0.0000  0.0000  1.0000
  DIIS coefficients:  0.0001 -0.0004 -0.0022  0.0066  0.9959
 SCF Error: norm([F,P])=      0.126643163176, max([F,P])=      0.096847488733
 orbitals (Q,E):
 ---------------
 S :1...3            ( 2.00    -9.9458)  ( 2.00    -0.4545)  ( 0.00     0.4037)
 P :1...2            ( 2.00    -0.1511)  ( 0.00     0.1903)
 D :1...1            ( 0.00     1.2866)
 F :1...1            ( 0.00     4.0669)

 CYCLE    7
  SDIIS (wt  0.100): -0.0001  0.0030  0.0073 -0.1526  0.2846  0.8578
 A-DIIS (wt  0.900):  0.0000  0.0000  0.0000  0.0000  0.4446  0.5554
  DIIS coefficients: -0.0000  0.0003  0.0007 -0.0152  0.4286  0.5856
 SCF Error: norm([F,P])=      0.115568228223, max([F,P])=      0.090123764632
 orbitals (Q,E):
 ---------------
 S :1...3            ( 2.00   -10.0697)  ( 2.00    -0.5032)  ( 0.00     0.3719)
 P :1...2            ( 2.00    -0.1955)  ( 0.00     0.1673)
 D :1...1            ( 0.00     1.2400)
 F :1...1            ( 0.00     4.0128)

 CYCLE    8
  SDIIS (wt  0.958): -0.0001  0.0006  0.0026 -0.0162 -0.0129  0.1023  0.9238
 A-DIIS (wt  0.042):  0.0000  0.0000  0.0000  0.0000  0.0000  0.0000  1.0000
  DIIS coefficients: -0.0001  0.0005  0.0025 -0.0155 -0.0124  0.0980  0.9270
 SCF Error: norm([F,P])=      0.006629277795, max([F,P])=      0.005140885246
 orbitals (Q,E):
 ---------------
 S :1...3            ( 2.00   -10.0626)  ( 2.00    -0.5000)  ( 0.00     0.3739)
 P :1...2            ( 2.00    -0.1926)  ( 0.00     0.1686)
 D :1...1            ( 0.00     1.2431)
 F :1...1            ( 0.00     4.0163)

 CYCLE    9
  SDIIS (wt  1.000): -0.0000 -0.0000 -0.0000 -0.0000  0.0023 -0.0004 -0.0164  1.0145
  DIIS coefficients: -0.0000 -0.0000 -0.0000 -0.0000  0.0023 -0.0004 -0.0164  1.0145
 SCF Error: norm([F,P])=      0.000215737590, max([F,P])=      0.000163422092
 orbitals (Q,E):
 ---------------
 S :1...3            ( 2.00   -10.0628)  ( 2.00    -0.5001)  ( 0.00     0.3739)
 P :1...2            ( 2.00    -0.1927)  ( 0.00     0.1686)
 D :1...1            ( 0.00     1.2430)
 F :1...1            ( 0.00     4.0162)

 CYCLE   10
  SDIIS (wt  1.000):  0.0000 -0.0000 -0.0000  0.0001  0.0000 -0.0011  0.0167  0.9843
  DIIS coefficients:  0.0000 -0.0000 -0.0000  0.0001  0.0000 -0.0011  0.0167  0.9843
 SCF Error: norm([F,P])=      0.000001946475, max([F,P])=      0.000001322855
 orbitals (Q,E):
 ---------------
 S :1...3            ( 2.00   -10.0628)  ( 2.00    -0.5001)  ( 0.00     0.3739)
 P :1...2            ( 2.00    -0.1927)  ( 0.00     0.1686)
 D :1...1            ( 0.00     1.2430)
 F :1...1            ( 0.00     4.0162)

 CYCLE   11
  SDIIS (wt  1.000):  0.0000 -0.0000 -0.0002 -0.0078  1.0079
  DIIS coefficients:  0.0000 -0.0000 -0.0002 -0.0078  1.0079
 SCF Error: norm([F,P])=      0.000000018012, max([F,P])=      0.000000015017
 orbitals (Q,E):
 ---------------
 S :1...3            ( 2.00   -10.0628)  ( 2.00    -0.5001)  ( 0.00     0.3739)
 P :1...2            ( 2.00    -0.1927)  ( 0.00     0.1686)
 D :1...1            ( 0.00     1.2430)
 F :1...1            ( 0.00     4.0162)

 CYCLE   12
  SDIIS (wt  1.000):  0.0000 -0.0001  0.0057  0.9944
  DIIS coefficients:  0.0000 -0.0001  0.0057  0.9944
 SCF Error: norm([F,P])=      0.000000000214, max([F,P])=      0.000000000163
 orbitals (Q,E):
 ---------------
 S :1...3            ( 2.00   -10.0628)  ( 2.00    -0.5001)  ( 0.00     0.3739)
 P :1...2            ( 2.00    -0.1927)  ( 0.00     0.1686)
 D :1...1            ( 0.00     1.2430)
 F :1...1            ( 0.00     4.0162)

 SCF CONVERGED

 CYCLE   13
1
 ***************************************************************************************************



                                                *******************
                                                *  R E S U L T S  *
                                                *******************
  
 *** Setting up for NEW gradients in Focky
 *** Using FIT density in Focky

 Orbital Energies, per Irrep and Spin:
 ======================================
                        Occup              E (au)              E (eV)       Diff (eV) with prev. cycle
                        -----      --------------------        ------       --------------------------
 S
               1        2.000     -0.10062819482682E+02      -273.823              -1.46E-09
               2        2.000     -0.50012405867784E+00       -13.609              -9.06E-10
               3        0.000      0.37386666571790E+00        10.173
               4        0.000      0.54114616881925E+01       147.253
               5        0.000      0.50154618712634E+02      1364.777
 P
               1        2.000     -0.19265861396330E+00        -5.243              -8.46E-10
               2        0.000      0.16859720175392E+00         4.588
               3        0.000      0.20146797119588E+01        54.822
 D
               1        0.000      0.12429821924707E+01        33.823
 F
               1        0.000      0.40162441326384E+01       109.288


 Partially Occupied:
               1 P                -0.19265861396330E+00
  
 HOMO :        2 S                -0.50012405867784E+00
 LUMO :        2 P                 0.16859720175392E+00
  


 Orbital Energies, all Irreps
 ========================================

 Irrep        no.  (spin)   Occup              E (au)                E (eV)
 ---------------------------------------------------------------------------
 S             1             2.00       -0.10062819482682E+02      -273.8233
 S             2             2.00       -0.50012405867784E+00       -13.6091
 P             1             2.00       -0.19265861396330E+00        -5.2425
 P             2             0.00        0.16859720175392E+00         4.5878
 S             3             0.00        0.37386666571790E+00        10.1734
 D             1             0.00        0.12429821924707E+01        33.8233
 P             3             0.00        0.20146797119588E+01        54.8222
 F             1             0.00        0.40162441326384E+01       109.2876
 S             4             0.00        0.54114616881925E+01       147.2534
 S             5             0.00        0.50154618712634E+02      1364.7766


 All Electron Calculation, thus no Orbital Energies of the Core Orbitals are calculated



 =======================================
 M U L L I K E N   P O P U L A T I O N S
 =======================================
  
 The survey below gives for each atom:
 a) the total charge (Z minus electrons)
 b) the net spin polarization (nr of electrons spin-A minus spin-B)
 c) for each spin the atomic electron valence density (integrated) per L-value.

 Atom              Charge    Spin density          S         P         D         F
 ----              ------    ------------       ------    ------    ------    ------
 1 C              -0.0000                       4.0000    2.0000    0.0000    0.0000

 Populations of individual BAS functions
 ----------------------------------------
 1 C            0.4900  1.5029  0.9348  1.1161 -0.0439  0.1802  0.1802  0.1802  0.3776  0.3776
                0.3776  0.1089  0.1089  0.1089  0.0000  0.0000  0.0000  0.0000  0.0000  0.0000
                0.0000  0.0000  0.0000  0.0000  0.0000  0.0000  0.0000  0.0000  0.0000  0.0000

 Gross Charges per Atom (Z minus electrons)
 ==========================================
            -0.0000
 Net Total: -0.00000000



 =======================================================================
 Electrostatic potential at the Nuclei due to electrons and other nuclei
 =======================================================================
  
         Atom                  Potential
         ----                  ---------
     1)   C                  14.67487189
 
 
 ========================
 No memory problems found
 ========================
 
 Maximum number of active allocate calls:         447
 
 *******************************************************************************

                             A D F   E X I T
 NORMAL TERMINATION



 =================
 Timing Statistics
 =================
  
 Total Used :                     CPU=        0.76      System=        0.04     Elapsed=        0.80

 Calls  Section                     ( Mean, Percentage )
 ---------------------------------------------------------------------------------------------------
     3  ><      ................      0.00    0.13             0.00    0.00             0.00    0.17
     1  INIT    ................      0.01    1.83             0.02   48.72             0.03    4.34
     1  GEOMET  ................      0.01    0.92             0.01   15.38             0.01    1.56
     1  INPUTA  ................      0.00    0.39             0.00    0.00             0.00    0.32
     1  MAINSY  ................      0.01    0.92             0.00    5.13             0.01    1.16
     1  SYMFIT  ................      0.00    0.00             0.00    2.56             0.00    0.15
     1  CORORT  ................      0.00    0.13             0.00    0.00             0.00    0.05
     1  SYMORB  ................      0.00    0.13             0.00    0.00             0.00    0.13
     1  CLSMAT  ................      0.01    1.05             0.00    2.56             0.01    1.12
     1  ORTHON  ................      0.00    0.26             0.00    0.00             0.00    0.30
     1  GENPT   ................      0.02    2.75             0.00    0.00             0.02    2.60
     1  PTBAS   ................      0.01    0.79             0.00    0.00             0.01    0.77
    13  FOCKY   ................      0.04   74.84             0.00   10.26             0.04   71.45
    13  FOCKTR  ................      0.00    2.36             0.00    2.56             0.00    2.29
    13  SDIIS   ................      0.00    4.06             0.00    7.69             0.00    4.42
     1  COREPS  ................      0.03    4.59             0.00    0.00             0.03    4.33
     1  POPAN   ................      0.01    1.05             0.00    2.56             0.01    1.12
     1  DEBYE   ................      0.00    0.13             0.00    0.00             0.00    0.11
     1  EXIT PROCEDURE .........      0.03    3.67             0.00    2.56             0.03    3.61


 Currently Open Files (EXIT00)
 ====================

 Unit    Access Format  Status   Type       Ident (file)
 -------------------------------------------------------
   3      SEQ    FORM   TRANSP  NORMAL      LOGFILE
                                          ( logfile )


 Buffered I/O statistics
 =======================
 Memory available:                     67108864
 Number of records fitting in memory:     16131
 Input :   0.1% of                        27803  *4k bytes
 Output:  13.6% of                         1374  *4k bytes
 Records from serial files evicted:           0
                    others evicted:           0
 Hash table lookups:      71867 with          0 conflicts (  0.00%)

 ***************************************************************************************************
 (LOGFILE)
 <May02-2019> <16:47:21>  ADF development version  RunTime: May02-2019 16:47:21  Nodes: 1  Procs: 1
 <May02-2019> <16:47:21>  Oxygen (TZ2P)
 <May02-2019> <16:47:21>  RunType   : CREATE
 <May02-2019> <16:47:21>  Net Charge: 0 (Nuclei minus Electrons)
 <May02-2019> <16:47:21>  Symmetry  : ATOM
  Coordinates
    Atom         X           Y           Z   (Angstrom)
    1.O         0.000000    0.000000    0.000000
 <May02-2019> <16:47:21>  >>>> CORORT
 <May02-2019> <16:47:21>  >>>> CLSMAT
 <May02-2019> <16:47:21>  >>>> ORTHON
 <May02-2019> <16:47:21>  >>>> GENPT
 <May02-2019> <16:47:21>  Block Length=  68
 <May02-2019> <16:47:21>  >>>> PTBAS
 <May02-2019> <16:47:21>  >>>> CYCLE
 <May02-2019> <16:47:21>              |Error|         MaxErr       Wt(A-DIIS)
 <May02-2019> <16:47:21>      1      0.00000000      0.00000000
 <May02-2019> <16:47:21>      2      8.76574541      5.51803131    100.0
 <May02-2019> <16:47:21>      3      3.58549945      2.49941011    100.0
 <May02-2019> <16:47:21>      4      1.14791911      0.58301962    100.0
 <May02-2019> <16:47:21>      5      1.51958547      0.84054201    100.0
 <May02-2019> <16:47:21>      6      0.17882893      0.10424203    100.0
 <May02-2019> <16:47:21>      7      0.20012529      0.11364913    100.0
 <May02-2019> <16:47:21>      8      0.01695178      0.00994720      9.0
 <May02-2019> <16:47:21>      9      0.00174843      0.00098437      0.0
 <May02-2019> <16:47:21>     10      0.00000143      0.00000071      0.0
 <May02-2019> <16:47:22>     11      0.00000005      0.00000002      0.0
 <May02-2019> <16:47:22>     12      0.00000000      0.00000000      0.0
 <May02-2019> <16:47:22>  SCF converged
 <May02-2019> <16:47:22>     13      0.00000000      0.00000000      0.0
 <May02-2019> <16:47:22>  >>>> POPAN
 <May02-2019> <16:47:22>  >>>> DEBYE
 <May02-2019> <16:47:22>  NORMAL TERMINATION
 <May02-2019> <16:47:22>  END
 <May02-2019> <16:47:22>  ADF development version  RunTime: May02-2019 16:47:22  Nodes: 1  Procs: 1
 <May02-2019> <16:47:22>  Carbon (TZ2P)
 <May02-2019> <16:47:22>  RunType   : CREATE
 <May02-2019> <16:47:22>  Net Charge: 0 (Nuclei minus Electrons)
 <May02-2019> <16:47:22>  Symmetry  : ATOM
  Coordinates
    Atom         X           Y           Z   (Angstrom)
    1.C         0.000000    0.000000    0.000000
 <May02-2019> <16:47:22>  >>>> CORORT
 <May02-2019> <16:47:22>  >>>> CLSMAT
 <May02-2019> <16:47:22>  >>>> ORTHON
 <May02-2019> <16:47:22>  >>>> GENPT
 <May02-2019> <16:47:22>  Block Length=  72
 <May02-2019> <16:47:22>  >>>> PTBAS
 <May02-2019> <16:47:22>  >>>> CYCLE
 <May02-2019> <16:47:22>              |Error|         MaxErr       Wt(A-DIIS)
 <May02-2019> <16:47:22>      1      0.00000000      0.00000000
 <May02-2019> <16:47:22>      2      4.48031974      3.32884133    100.0
 <May02-2019> <16:47:22>      3      1.63678889      1.31529535    100.0
 <May02-2019> <16:47:22>      4      0.72226765      0.58081551    100.0
 <May02-2019> <16:47:22>      5      0.41279476      0.32864204    100.0
 <May02-2019> <16:47:22>      6      0.12664316      0.09684749     96.8
 <May02-2019> <16:47:22>      7      0.11556823      0.09012376     90.0
 <May02-2019> <16:47:22>      8      0.00662928      0.00514089      4.2
 <May02-2019> <16:47:22>      9      0.00021574      0.00016342      0.0
 <May02-2019> <16:47:22>     10      0.00000195      0.00000132      0.0
 <May02-2019> <16:47:22>     11      0.00000002      0.00000002      0.0
 <May02-2019> <16:47:22>     12      0.00000000      0.00000000      0.0
 <May02-2019> <16:47:22>  SCF converged
 <May02-2019> <16:47:23>     13      0.00000000      0.00000000      0.0
 <May02-2019> <16:47:23>  >>>> POPAN
 <May02-2019> <16:47:23>  >>>> DEBYE
 <May02-2019> <16:47:23>  NORMAL TERMINATION
 <May02-2019> <16:47:23>  END


 Parallel Execution: Process Information
 ==============================================================================
 Rank   Node Name                              NodeID   MyNodeRank  NodeMaster
    0   BAZIS-cn022                               0          0          0
    1   BAZIS-cn022                               0          1         -1
    2   BAZIS-cn022                               0          2         -1
    3   BAZIS-cn022                               0          3         -1
    4   BAZIS-cn022                               0          4         -1
    5   BAZIS-cn022                               0          5         -1
    6   BAZIS-cn022                               0          6         -1
    7   BAZIS-cn022                               0          7         -1
    8   BAZIS-cn022                               0          8         -1
    9   BAZIS-cn022                               0          9         -1
   10   BAZIS-cn022                               0         10         -1
   11   BAZIS-cn022                               0         11         -1
 ==============================================================================


May use up to 30771MB of RAM as shared memory on node 0


XC
  GGA blyp
END

ANALYTICALFREQ
END

SCF
  iterations 250
END

SYMMETRY C(4v)
CHARGE 0

ZLMFIT
  Quality normal
END

BECKEGRID
  Quality good
End

ATOMS
 C       0.00000000       0.00000000       1.93883000
 O       0.00000000       0.00000000       3.09279000
END

Fragments
O t21.O
C t21.C
End
end input

 *******************************************************************************
 *                                                                             *
 *  -------------------------------------                                      *
 *   Amsterdam Density Functional  (ADF)         development version           *
 *  -------------------------------------                                      *
 *                                               r61132 2017-09-08             *
 *                                                                             *
 *                                                                             *
 *                              =================                              *
 *                              |               |                              *
 *                              |     A D F     |                              *
 *                              |               |                              *
 *                              =================                              *
 *                                                                             *
 *                                                                             *
 *   Online information and documentation:  https://www.scm.com/support/       *
 *   E-mail:  support@scm.com   info@scm.com                                   *
 *                                                                             *
 *   Scientific publications using ADF results must be properly referenced     *
 *   See the User Manuals (or the web site) for recommended citations          *
 *   The terms and conditions of the End User License Agreement apply to       *
 *   the use of ADF, https://www.scm.com/license-terms/                        *
 *                                                                             *
 **********************  x86_64_linux_intel / intelmpi  ************************
 
 Licensed to: VU/FEW (+ SARA) / ALGEMEEN / Amsterdam / THE NETHERLANDS
 SCM User ID: u7668
  
 ADF development version  RunTime: May02-2019 16:47:23  Nodes: 1  Procs: 12

 Temporary files are created in /local/datastore0/tcst25/188721/kid_0.ZGVlKV


Communication costs MPI_COMM_WORLD:      3.915 usec per message,   0.0164 usec per 8-byte item
Communication costs for intra-node:      3.890 usec per message,   0.0163 usec per 8-byte item

 *** (NO TITLE) ***



 ===========================
 A T T A C H E D   F I L E S
 ===========================
  



 ===============================
 M O D E L   P A R A M E T E R S
 ===============================
  
 DENSITY FUNCTIONAL POTENTIAL (scf)
    LDA:                               Exchange only                           == Not Default ==
    Gradient Corrections:              Becke88 LYP                             == Not Default ==

 SPIN  (restricted / unrestr.)
    Molecule:                          Restricted                               
    Fragments:                         Restricted                               

 OTHER ASPECTS
    Relativistic Corrections:          ---                                      

    Nuclear Charge Density Model:      Point Charge Nuclei                      
    Core Treatment:                    Frozen Orbital(s)                        

    Hyperfine or Zeeman Interaction:   ---                                      

 WARNING: the symmetry specified in input ( C(4V) ) is not the full symmetry ( C(LIN) ).
 ADF will NOT adapt the orientation of the molecule. If this leads to an error you should
 specify the coordinates in CARTESIANS (or ZCART) with a suitable orientation.


 Fragment File(s)
 ----------------
 C:
         file : t21.C
         jobid: ADF development version  RunTime: May02-2019 16:47:22  Nodes: 1  Procs: 1
         title: Carbon (TZ2P)
 O:
         file : t21.O
         jobid: ADF development version  RunTime: May02-2019 16:47:21  Nodes: 1  Procs: 1
         title: Oxygen (TZ2P)



                                        ************************************
                                        *  R U N   T Y P E : SINGLE POINT  *
                                        ************************************
  



 ===============
 G E O M E T R Y  ***  Linear Molecule  ***
 ===============
  

 ATOMS
 =====                            X Y Z                    CHARGE
                                (Angstrom)             Nucl     +Core       At.Mass
                       --------------------------    ----------------       -------
    1  C               0.0000    0.0000    1.9388      6.00      6.00       12.0000
    2  O               0.0000    0.0000    3.0928      8.00      8.00       15.9949


 FRAGMENTS
 =========                                     Atoms in this Fragment     Cart. coord.s (Angstrom)
                                               -------------------------------------------------------
    1  C                                                 1  C            0.0000    0.0000    1.9388
    2  O                                                 2  O            0.0000    0.0000    3.0928


 Interatomic Distance Matrix (Angstrom)
 --------------------------------------

   1)     0.000
   2)     1.154   0.000



 =====================================
 S Y M M E T R Y ,   E L E C T R O N S
 =====================================
  
 Symmetry: C(4V)

 Irreducible Representations, including subspecies
 -------------------------------------------------
 A1
 A2
 B1
 B2
 E1:1  E1:2


 Configuration of Valence Electrons
 ==================================
 ( determined in the SCF procedure )

 Total:   14

 Net Charge: 0 (Nuclei minus Electrons)

 Aufbau principle for MO occupations will be applied through SCF cycle no.     125
 Thereafter, the program will assign electrons to MOs that are spatially
 similar to the occupied MOs in a "reference" cycle ("KeepOrbitals").
 The reference cycle is always the PREVIOUS cycle: it will evolve with
 the SCF procedure.
1
 ***************************************************************************************************



                                      ****************************************
                                      *  B U I L D : (Fragments, Functions)  *
                                      ****************************************
  



 =======
 S F O s  ***  (Symmetrized Fragment Orbitals)  ***
 =======
  
 SFOs are linear combinations of (valence) Fragment Orbitals (FOs), such that the SFOs transform as the
 irreducible representations of the (molecular) symmetry group. Each SFO is therefore characterized by
 an irrep of the molecule and by a few (or only one) generating FOs.
 The SFOs constitute a symmetry-adapted basis for the Fock matrix. The MO eigenvector coefficients in
 this basis provide a direct interpretation of the MOs in terms of Frontier Orbital Theory.

 The SFOs are combined with auxiliary Core Functions (CFs) to ensure orthogonalization on the (frozen)
 Core Orbitals (COs). The Core-orthogonalized SFOs (CSFOs) constitute the true Fock basis.

 The FOs, and hence also the (C)SFOs are combinations of the elementary basis functions (BAS). The basis
 functions that participate in the description of the SFOs depend on the irrep. The indices of the
 involved functions are printed below for each irrep.
 (The complete list of primitive basis functions is printed in another section)

 Total nr. of (C)SFOs (summation over all irreps) :    52

 NOTE: a (C)SFO that is defined as a combination of more than one FO is usually NOT normalized.



                                       === A1 ===
 Nr. of SFOs :   20
 Cartesian basis functions that participate in this irrep (total number =    28) :
      1     2     3     4     5     8    11    14    20    15
     18    30    23    28    31    32    33    34    35    38
     41    44    50    45    48    60    53    58

    SFO  (index         Fragment          Generating    Expansion in Fragment Orbitals
  indx  incl.CFs)   Occup   Orb.Energy   FragmentType  Coeff.   Orbital     on Fragment
 --------------------------------------------------------------------------------------
     1       1      2.000     -10.063 au  C             1.00      1 S               1
                        (    -273.823 eV)
     2       2      2.000      -0.500 au  C             1.00      2 S               1
                        (     -13.609 eV)
     3       3       --         0.374 au  C             1.00      3 S               1
                        (      10.173 eV)
     4       4       --         5.411 au  C             1.00      4 S               1
                        (     147.253 eV)
     5       5       --        50.155 au  C             1.00      5 S               1
                        (    1364.777 eV)
     6       6      0.667      -0.193 au  C             1.00      1 P:z             1
                        (      -5.243 eV)
     7       7       --         0.169 au  C             1.00      2 P:z             1
                        (       4.588 eV)
     8       8       --         2.015 au  C             1.00      3 P:z             1
                        (      54.822 eV)
     9       9       --         1.243 au  C             1.00      1 D:z2            1
                        (      33.823 eV)
    10      10       --         4.016 au  C             1.00      1 F:z3            1
                        (     109.288 eV)
    11      11      2.000     -18.927 au  O             1.00      1 S               2
                        (    -515.020 eV)
    12      12      2.000      -0.874 au  O             1.00      2 S               2
                        (     -23.792 eV)
    13      13       --         0.793 au  O             1.00      3 S               2
                        (      21.588 eV)
    14      14       --        13.460 au  O             1.00      4 S               2
                        (     366.259 eV)
    15      15       --       123.108 au  O             1.00      5 S               2
                        (    3349.933 eV)
    16      16      1.333      -0.332 au  O             1.00      1 P:z             2
                        (      -9.028 eV)
    17      17       --         0.347 au  O             1.00      2 P:z             2
                        (       9.435 eV)
    18      18       --         3.825 au  O             1.00      3 P:z             2
                        (     104.075 eV)
    19      19       --         1.070 au  O             1.00      1 D:z2            2
                        (      29.129 eV)
    20      20       --         3.359 au  O             1.00      1 F:z3            2
                        (      91.415 eV)



                                       === B1 ===
 Nr. of SFOs :    4
 Cartesian basis functions that participate in this irrep (total number =     8) :
     15    18    23    28    45    48    53    58

    SFO  (index         Fragment          Generating    Expansion in Fragment Orbitals
  indx  incl.CFs)   Occup   Orb.Energy   FragmentType  Coeff.   Orbital     on Fragment
 --------------------------------------------------------------------------------------
     1       1       --         1.243 au  C             1.00      1 D:x2-y2         1
                        (      33.823 eV)
     2       2       --         4.016 au  C             1.00      1 F:z             1
                        (     109.288 eV)
     3       3       --         1.070 au  O             1.00      1 D:x2-y2         2
                        (      29.129 eV)
     4       4       --         3.359 au  O             1.00      1 F:z             2
                        (      91.415 eV)



                                       === B2 ===
 Nr. of SFOs :    4
 Cartesian basis functions that participate in this irrep (total number =     4) :
     16    25    46    55

    SFO  (index         Fragment          Generating    Expansion in Fragment Orbitals
  indx  incl.CFs)   Occup   Orb.Energy   FragmentType  Coeff.   Orbital     on Fragment
 --------------------------------------------------------------------------------------
     1       1       --         1.243 au  C             1.00      1 D:xy            1
                        (      33.823 eV)
     2       2       --         4.016 au  C             1.00      1 F:xyz           1
                        (     109.288 eV)
     3       3       --         1.070 au  O             1.00      1 D:xy            2
                        (      29.129 eV)
     4       4       --         3.359 au  O             1.00      1 F:xyz           2
                        (      91.415 eV)



                                       === E1:1 ===
 Nr. of SFOs :   12
 Cartesian basis functions that participate in this irrep (total number =    14) :
      6     9    12    17    26    21    24    36    39    42
     47    56    51    54

    SFO  (index         Fragment          Generating    Expansion in Fragment Orbitals
  indx  incl.CFs)   Occup   Orb.Energy   FragmentType  Coeff.   Orbital     on Fragment
 --------------------------------------------------------------------------------------
     1       1      0.667      -0.193 au  C             1.00      1 P:x             1
                        (      -5.243 eV)
     2       2       --         0.169 au  C             1.00      2 P:x             1
                        (       4.588 eV)
     3       3       --         2.015 au  C             1.00      3 P:x             1
                        (      54.822 eV)
     4       4       --         1.243 au  C             1.00      1 D:xz            1
                        (      33.823 eV)
     5       5       --         4.016 au  C             1.00      1 F:z2x           1
                        (     109.288 eV)
     6       6       --         4.016 au  C             1.00      1 F:x             1
                        (     109.288 eV)
     7       7      1.333      -0.332 au  O             1.00      1 P:x             2
                        (      -9.028 eV)
     8       8       --         0.347 au  O             1.00      2 P:x             2
                        (       9.435 eV)
     9       9       --         3.825 au  O             1.00      3 P:x             2
                        (     104.075 eV)
    10      10       --         1.070 au  O             1.00      1 D:xz            2
                        (      29.129 eV)
    11      11       --         3.359 au  O             1.00      1 F:z2x           2
                        (      91.415 eV)
    12      12       --         3.359 au  O             1.00      1 F:x             2
                        (      91.415 eV)



                                       === E1:2 ===
 Nr. of SFOs :   12
 Cartesian basis functions that participate in this irrep (total number =    14) :
      7    10    13    19    29    22    27    37    40    43
     49    59    52    57

    SFO  (index         Fragment          Generating    Expansion in Fragment Orbitals
  indx  incl.CFs)   Occup   Orb.Energy   FragmentType  Coeff.   Orbital     on Fragment
 --------------------------------------------------------------------------------------
     1       1      0.667      -0.193 au  C             1.00      1 P:y             1
                        (      -5.243 eV)
     2       2       --         0.169 au  C             1.00      2 P:y             1
                        (       4.588 eV)
     3       3       --         2.015 au  C             1.00      3 P:y             1
                        (      54.822 eV)
     4       4       --         1.243 au  C             1.00      1 D:yz            1
                        (      33.823 eV)
     5       5       --         4.016 au  C             1.00      1 F:z2y           1
                        (     109.288 eV)
     6       6       --         4.016 au  C            -1.00      1 F:y             1
                        (     109.288 eV)
     7       7      1.333      -0.332 au  O             1.00      1 P:y             2
                        (      -9.028 eV)
     8       8       --         0.347 au  O             1.00      2 P:y             2
                        (       9.435 eV)
     9       9       --         3.825 au  O             1.00      3 P:y             2
                        (     104.075 eV)
    10      10       --         1.070 au  O             1.00      1 D:yz            2
                        (      29.129 eV)
    11      11       --         3.359 au  O             1.00      1 F:z2y           2
                        (      91.415 eV)
    12      12       --         3.359 au  O            -1.00      1 F:y             2
                        (      91.415 eV)



 ================================
 (Slater-type)  F U N C T I O N S  ***  (Basis and Fit)  ***
 ================================
  

 Atom Type    1  (C)
 ==============

 Valence Basis Sets:  10
 -----------------------
   1 S    7.680000
   1 S    5.000000
   2 S    1.280000
   2 S    2.100000
   2 S    4.600000
   2 P    0.820000
   2 P    1.480000
   2 P    2.940000
   3 D    2.200000
   4 F    3.300000

 Atom Type    2  (O)
 ==============

 Valence Basis Sets:  10
 -----------------------
   1 S    9.800000
   1 S    6.800000
   2 S    7.580000
   2 S    2.880000
   2 S    1.720000
   2 P    4.080000
   2 P    2.080000
   2 P    1.120000
   3 D    2.000000
   4 F    3.000000


 BAS: List of all Elementary Cartesian Basis Functions
 =====================================================

 The numbering in the list below (to the right of the function characteristics) is referred
 to in print-outs of MO eigenvectors and Mulliken populations in the BAS representation
 (as contrasted to the SFO representation).

 Notes:
 1. The functions are characterized by a polynomial prefactor (powers of x,y,z and r) and
    an exponential decay factor alpha.
 2. Since the basis sets are specific for an atom TYPE, the individual functions occur on
    all atoms of that type.
 3. The word 'Core' in the left margin signals that it is a Core Function (CF) : not a
    degree of freedom in the valence set, but only used to ensure orthogonalization of
    the other valence basis functions on the frozen Core Orbitals.


 (power of) X  Y  Z  R     Alpha  on Atom
            ==========     =====     ==========

 C                                    1
                                  ---------------------------------------------------------------------------
            0  0  0  0     7.680      1
            0  0  0  0     5.000      2
            0  0  0  1     1.280      3
            0  0  0  1     2.100      4
            0  0  0  1     4.600      5
            1  0  0  0     0.820      6
            0  1  0  0     0.820      7
            0  0  1  0     0.820      8
            1  0  0  0     1.480      9
            0  1  0  0     1.480     10
            0  0  1  0     1.480     11
            1  0  0  0     2.940     12
            0  1  0  0     2.940     13
            0  0  1  0     2.940     14
            2  0  0  0     2.200     15
            1  1  0  0     2.200     16
            1  0  1  0     2.200     17
            0  2  0  0     2.200     18
            0  1  1  0     2.200     19
            0  0  2  0     2.200     20
            3  0  0  0     3.300     21
            2  1  0  0     3.300     22
            2  0  1  0     3.300     23
            1  2  0  0     3.300     24
            1  1  1  0     3.300     25
            1  0  2  0     3.300     26
            0  3  0  0     3.300     27
            0  2  1  0     3.300     28
            0  1  2  0     3.300     29
            0  0  3  0     3.300     30

 O                                    2
[...]
                   U1,    lprint_u1     =  F
                   PARTS, lprint_parts  =  F
 
                 === DEBUG
 
                   ALL        =  F
                   B1         =  F
                   DENSITIES  =  F
                   FIT        =  F
                   HESSIAN    =  F
                   NUMBERS    =  F
                   SYMMETRY   =  F
                   U1         =  F
 
                 === CPKS
 
                   MAX_CPKS_ITERATIONS    =    20
                   U1_ACCURACY PARAMETER  =     5.00
                   U1 ACCURACY            =     0.0000100
 

                 Estimated peak private memory usage    164 MB per process
                                 shared memory usage     30 MB per node

              <><><><><><><><><><><><><><><><><><><><><><><><><>

######## LOOPING OVER NUCLEI ########

==========================
###### NUCLEUS:     1  C  
==========================

====================  solving CPKS equations  ====================

NUCLEUS  COORD.    ITERATION   ACCURACY
-------  ------    ---------   --------
    1       1          1       0.70320094D-01
    1       1          2       0.28187180D-02
    1       1          3       0.30483328D-03
    1       1          4       0.12199695D-04
    1       1          5       0.38148860D-06
*** CPKS converged.
----------------------------------------------
    1       2          1       0.70320094D-01
    1       2          2       0.28187180D-02
    1       2          3       0.30483328D-03
    1       2          4       0.12199695D-04
    1       2          5       0.38148861D-06
*** CPKS converged.
----------------------------------------------
    1       3          1       0.12775049D+00
    1       3          2       0.22960062D-01
    1       3          3       0.12509946D-02
    1       3          4       0.23468790D-03
    1       3          5       0.87853980D-05
*** CPKS converged.
----------------------------------------------

====================  end of solving CPKS equations  ====================

==========================
###### NUCLEUS:     2  O  
==========================

====================  solving CPKS equations  ====================

NUCLEUS  COORD.    ITERATION   ACCURACY
-------  ------    ---------   --------
    2       1          1       0.69349005D-01
    2       1          2       0.28635790D-02
    2       1          3       0.30950861D-03
    2       1          4       0.11981193D-04
    2       1          5       0.39460063D-06
*** CPKS converged.
----------------------------------------------
    2       2          1       0.69349005D-01
    2       2          2       0.28635790D-02
    2       2          3       0.30950861D-03
    2       2          4       0.11981193D-04
    2       2          5       0.39464417D-06
*** CPKS converged.
----------------------------------------------
    2       3          1       0.12743451D+00
    2       3          2       0.23027193D-01
    2       3          3       0.12731929D-02
    2       3          4       0.23303554D-03
    2       3          5       0.87265512D-05
*** CPKS converged.
----------------------------------------------

====================  end of solving CPKS equations  ====================

 ***************************************************************************************************



                                     ******************************************
                                     *  F R E Q U E N C Y    A N A L Y S I S  *
                                     ******************************************
  


 Atomic Masses:
 ---------------
    1. C              12.00000000
    2. O              15.99491400



 ======================================
 Normal Modes in Symmetry Displacements  ***  (cartesians, not mass-weighted)  ***
 ======================================
  


                                       === A1 ===

 Symmetry Displacements


                          1
              ------------------------      ------------------------      ------------------------
    1.C          0.000   0.000   0.218
    2.O          0.000   0.000  -0.164

 Largest computed component in inactive x Dipole derivative=  0.1325E-10
 (symmetry index=  1)
 Deviation may result from numerical integration and/or the non-linearity
 in the transformations between Cartesian and Z-matrix coordinates.

 Largest computed component in inactive y Dipole derivative=  0.5453E-10
 (symmetry index=  1)
 Deviation may result from numerical integration and/or the non-linearity
 in the transformations between Cartesian and Z-matrix coordinates.


 Frequencies and Normal Modes
 ============================

             1

         1984.5090
        ----------
   1    1.00000000


 Intensities
 ===========

               Frequency       Dipole Strength        Absorption Intensity (degeneracy not counted)
                 cm-1           1e-40 esu2 cm2          km/mole
              ----------          ----------          ----------
             1984.508957          142.267546           70.768009



 Zero-Point Energy :      0.004521 a.u.
 ===================      0.123024 eV
                                                   hartree              eV         kcal/mol           kJ/mol
                                      --------------------     -----------       ----------      -----------
              Bond Energy:              -0.529722622161019        -14.4145          -332.41         -1390.79
              Zero-Point Energy:         0.004521044185429          0.1230             2.84            11.87
              Enthalpy (T=0K):          -0.525201577975590        -14.2915          -329.57         -1378.92



 ===========================
 Vibrations and Normal Modes  ***  (cartesian coordinates, NOT mass-weighted)  ***
 ===========================
  
 The headers on the normal mode eigenvectors below give the Frequency in cm-1
 (a negative value means an imaginary frequency, no output for (almost-)zero frequencies)


                      1984.509
              ------------------------      ------------------------      ------------------------
    1.C          0.000   0.000  -0.800
    2.O          0.000   0.000   0.600




 List of All Frequencies:


 Intensities
 ===========

               Frequency       Dipole Strength        Absorption Intensity (degeneracy not counted)
                 cm-1           1e-40 esu2 cm2          km/mole
              ----------          ----------          ----------
             1984.508957          142.267546           70.768009



 ============================
 Statistical Thermal Analysis  ***  ideal gas assumed  ***
 ============================
  
 Pressure:                  1.000000 atm.
 Temperature:             298.150000 K



 Moments of Inertia (and direction vectors)
 ==========================================

           0.0000         32.6034         32.6034
 ------------------------------------------------
           0.0000          0.0000          1.0000
           0.0000          1.0000          0.0000
           1.0000          0.0000          0.0000


 The rotational contribution to the molecular entropy includes
 a term, dependent on the symmetry number sigma. The results 
 reported below were computed using sigma = 1, determined from
 the point group symmetry of the input geometry (C(LIN)). 
 If this is not the correct symmetry, please contact SCM to report a bug.
 Contributions from frequencies below 20 1/cm are not included in
 the vibrational sums. Their contributions, if any, are reported separately.


     Temp                                                       Transl     Rotat    Vibrat     Total
     ----                                                       ------     -----    ------     -----

     298.15   Entropy (cal/mole-K):                             35.923    11.368     0.001    47.292
              Internal Energy (Kcal/mole):                       0.889     0.592     2.837     4.319
              Constant Volume Heat Capacity (cal/mole-K):        2.981     1.987     0.013     4.981

              Summary of energy terms
                                                   hartree              eV         kcal/mol           kJ/mol
                                      --------------------     -----------       ----------      -----------
              Bond Energy:              -0.529722622161019        -14.4145          -332.41         -1390.79
              Internal Energy:           0.006882136042307          0.1873             4.32            18.07
              pV/n = RT:                 0.000944186013486          0.0257             0.59             2.48
              Enthalpy H:               -0.521896300105226        -14.2015          -327.49         -1370.24
              -T*S:                     -0.022470162383899         -0.6114           -14.10           -59.00
              Gibbs free energy:        -0.544366462489124        -14.8130          -341.60         -1429.23
 

 ***************************************************************************************************
 


====================================================================
*** DONE CALCULATING ANALYTICAL SECOND DERIVATIVES OF THE ENERGY ***
====================================================================

 
 
 ========================
 No memory problems found
 ========================
 
 Maximum number of active allocate calls:        1022
 
 *******************************************************************************

                             A D F   E X I T
 NORMAL TERMINATION



 =================
 Timing Statistics
 =================
  
 Total Used :                     CPU=        3.36      System=        0.27     Elapsed=        3.73

 Calls  Section                     ( Mean, Percentage )
 ---------------------------------------------------------------------------------------------------
     3  ><      ................      0.00    0.03             0.00    0.00             0.00    0.07
     1  INIT    ................      0.40   11.96             0.03    9.49             0.43   11.62
     1  GEOMET  ................      0.04    1.10             0.01    2.19             0.05    1.23
     1  FRAGM   ................      0.01    0.42             0.01    3.28             0.04    0.95
     1  INPUTA  ................      0.00    0.00             0.00    0.00             0.00    0.01
     1  ATDEN   ................      0.01    0.27             0.00    0.00             0.01    0.25
     1  MAINSY  ................      0.01    0.33             0.00    1.82             0.02    0.52
     1  SYMFIT  ................      0.00    0.03             0.00    0.37             0.00    0.05
     1  CORORT  ................      0.00    0.00             0.00    0.00             0.00    0.01
     1  SYMORB  ................      0.00    0.12             0.00    0.00             0.00    0.11
     1  CLSMAT  ................      0.01    0.27             0.00    0.00             0.01    0.24
     1  ORTHON  ................      0.01    0.42             0.00    1.09             0.02    0.46
     1  GENPT   ................      0.08    2.50             0.00    1.10             0.09    2.37
     1  PTBAS   ................      0.02    0.51             0.00    1.09             0.02    0.52
    11  FOCKY   ................      0.05   15.03             0.00    7.30             0.05   14.28
    11  FOCKTR  ................      0.00    0.68             0.00    2.92             0.00    0.90
    11  SDIIS   ................      0.00    0.89             0.00    2.55             0.00    1.00
     1  COREPS  ................      0.03    1.01             0.00    1.10             0.04    1.06
     1  TOTEN   ................      0.11    3.36             0.00    0.37             0.12    3.09
     1  POPAN   ................      0.00    0.12             0.00    0.00             0.01    0.21
     1  DEBYE   ................      0.00    0.09             0.00    0.36             0.00    0.12
     1  INPUTE  ................      0.00    0.00             0.00    0.00             0.00    0.03
     1  SYMORE  ................      0.00    0.06             0.00    0.00             0.00    0.05
     1  METS    ................      0.00    0.03             0.00    0.00             0.00    0.02
     1  CETS    ................      0.01    0.21             0.00    0.73             0.01    0.26
     2  ELNRGY  ................      0.03    1.96             0.00    0.73             0.03    1.81
     1  POPUL   ................      0.01    0.42             0.00    0.00             0.02    0.60
     1  ENGRAD  ................      0.00    0.06             0.00    0.00             0.00    0.06
     1  ENHESS  ................      1.93   57.38             0.17   61.68             2.14   57.23
     1  EXIT PROCEDURE .........      0.02    0.74             0.00    1.82             0.03    0.84


 Currently Open Files (EXIT00)
 ====================

 Unit    Access Format  Status   Type       Ident (file)
 -------------------------------------------------------
   3      SEQ    FORM   TRANSP  NORMAL      LOGFILE
                                          ( logfile )


 Buffered I/O statistics
 =======================
 Memory available:                     67108864
 Number of records fitting in memory:     16131
 Input :   0.8% of                       100882  *4k bytes
 Output:   8.8% of                         4146  *4k bytes
 Records from serial files evicted:           0
                    others evicted:           0
 Hash table lookups:     268521 with          0 conflicts (  0.00%)

 ***************************************************************************************************
 (LOGFILE)
 <May02-2019> <16:47:21>  ADF development version  RunTime: May02-2019 16:47:21  Nodes: 1  Procs: 1
 <May02-2019> <16:47:21>  Oxygen (TZ2P)
 <May02-2019> <16:47:21>  RunType   : CREATE
 <May02-2019> <16:47:21>  Net Charge: 0 (Nuclei minus Electrons)
 <May02-2019> <16:47:21>  Symmetry  : ATOM
  Coordinates
    Atom         X           Y           Z   (Angstrom)
    1.O         0.000000    0.000000    0.000000
 <May02-2019> <16:47:21>  >>>> CORORT
 <May02-2019> <16:47:21>  >>>> CLSMAT
 <May02-2019> <16:47:21>  >>>> ORTHON
 <May02-2019> <16:47:21>  >>>> GENPT
 <May02-2019> <16:47:21>  Block Length=  68
 <May02-2019> <16:47:21>  >>>> PTBAS
 <May02-2019> <16:47:21>  >>>> CYCLE
 <May02-2019> <16:47:21>              |Error|         MaxErr       Wt(A-DIIS)
 <May02-2019> <16:47:21>      1      0.00000000      0.00000000
 <May02-2019> <16:47:21>      2      8.76574541      5.51803131    100.0
 <May02-2019> <16:47:21>      3      3.58549945      2.49941011    100.0
 <May02-2019> <16:47:21>      4      1.14791911      0.58301962    100.0
 <May02-2019> <16:47:21>      5      1.51958547      0.84054201    100.0
 <May02-2019> <16:47:21>      6      0.17882893      0.10424203    100.0
 <May02-2019> <16:47:21>      7      0.20012529      0.11364913    100.0
 <May02-2019> <16:47:21>      8      0.01695178      0.00994720      9.0
 <May02-2019> <16:47:21>      9      0.00174843      0.00098437      0.0
 <May02-2019> <16:47:21>     10      0.00000143      0.00000071      0.0
 <May02-2019> <16:47:22>     11      0.00000005      0.00000002      0.0
 <May02-2019> <16:47:22>     12      0.00000000      0.00000000      0.0
 <May02-2019> <16:47:22>  SCF converged
 <May02-2019> <16:47:22>     13      0.00000000      0.00000000      0.0
 <May02-2019> <16:47:22>  >>>> POPAN
 <May02-2019> <16:47:22>  >>>> DEBYE
 <May02-2019> <16:47:22>  NORMAL TERMINATION
 <May02-2019> <16:47:22>  END
 <May02-2019> <16:47:22>  ADF development version  RunTime: May02-2019 16:47:22  Nodes: 1  Procs: 1
 <May02-2019> <16:47:22>  Carbon (TZ2P)
 <May02-2019> <16:47:22>  RunType   : CREATE
 <May02-2019> <16:47:22>  Net Charge: 0 (Nuclei minus Electrons)
 <May02-2019> <16:47:22>  Symmetry  : ATOM
  Coordinates
    Atom         X           Y           Z   (Angstrom)
    1.C         0.000000    0.000000    0.000000
 <May02-2019> <16:47:22>  >>>> CORORT
 <May02-2019> <16:47:22>  >>>> CLSMAT
 <May02-2019> <16:47:22>  >>>> ORTHON
 <May02-2019> <16:47:22>  >>>> GENPT
 <May02-2019> <16:47:22>  Block Length=  72
 <May02-2019> <16:47:22>  >>>> PTBAS
 <May02-2019> <16:47:22>  >>>> CYCLE
 <May02-2019> <16:47:22>              |Error|         MaxErr       Wt(A-DIIS)
 <May02-2019> <16:47:22>      1      0.00000000      0.00000000
 <May02-2019> <16:47:22>      2      4.48031974      3.32884133    100.0
 <May02-2019> <16:47:22>      3      1.63678889      1.31529535    100.0
 <May02-2019> <16:47:22>      4      0.72226765      0.58081551    100.0
 <May02-2019> <16:47:22>      5      0.41279476      0.32864204    100.0
 <May02-2019> <16:47:22>      6      0.12664316      0.09684749     96.8
 <May02-2019> <16:47:22>      7      0.11556823      0.09012376     90.0
 <May02-2019> <16:47:22>      8      0.00662928      0.00514089      4.2
 <May02-2019> <16:47:22>      9      0.00021574      0.00016342      0.0
 <May02-2019> <16:47:22>     10      0.00000195      0.00000132      0.0
 <May02-2019> <16:47:22>     11      0.00000002      0.00000002      0.0
 <May02-2019> <16:47:22>     12      0.00000000      0.00000000      0.0
 <May02-2019> <16:47:22>  SCF converged
 <May02-2019> <16:47:23>     13      0.00000000      0.00000000      0.0
 <May02-2019> <16:47:23>  >>>> POPAN
 <May02-2019> <16:47:23>  >>>> DEBYE
 <May02-2019> <16:47:23>  NORMAL TERMINATION
 <May02-2019> <16:47:23>  END
 <May02-2019> <16:47:23>  ADF development version  RunTime: May02-2019 16:47:23  Nodes: 1  Procs: 12
 <May02-2019> <16:47:23>  *** (NO TITLE) ***
 <May02-2019> <16:47:23>  RunType   : SINGLE POINT
 <May02-2019> <16:47:23>  Net Charge: 0 (Nuclei minus Electrons)
 <May02-2019> <16:47:23>  Symmetry  : C(4V)
 <May02-2019> <16:47:23>  >>>> FRAGM
  Coordinates
    Atom         X           Y           Z   (Angstrom)
    1.C         0.000000    0.000000    1.938830
    2.O         0.000000    0.000000    3.092790
 <May02-2019> <16:47:23>  >>>> CORORT
 <May02-2019> <16:47:23>  >>>> CLSMAT
 <May02-2019> <16:47:23>  >>>> ORTHON
 <May02-2019> <16:47:23>  >>>> GENPT
 <May02-2019> <16:47:24>  Block Length= 127
 <May02-2019> <16:47:24>  >>>> PTBAS
 <May02-2019> <16:47:24>  >>>> CYCLE
 <May02-2019> <16:47:24>              |Error|         MaxErr       Wt(A-DIIS)
 <May02-2019> <16:47:24>      1      2.80816396      1.66925127
 <May02-2019> <16:47:24>      2      0.49358916      0.17377153    100.0
 <May02-2019> <16:47:24>      3      0.16917440      0.03997687    100.0
 <May02-2019> <16:47:24>      4      0.25756138      0.09155608    100.0
 <May02-2019> <16:47:24>      5      0.10856763      0.04992572     49.4
 <May02-2019> <16:47:24>      6      0.08150252      0.03863426     38.0
 <May02-2019> <16:47:24>      7      0.00952770      0.00422200      3.3
 <May02-2019> <16:47:24>      8      0.00106673      0.00048398      0.0
 <May02-2019> <16:47:24>      9      0.00000649      0.00000229      0.0
 <May02-2019> <16:47:24>     10      0.00000042      0.00000015      0.0
 <May02-2019> <16:47:24>  SCF converged
 <May02-2019> <16:47:24>     11      0.00000004      0.00000002      0.0
 <May02-2019> <16:47:24>  >>>> TOTEN
 <May02-2019> <16:47:24>  >>>> POPAN
 <May02-2019> <16:47:24>  >>>> DEBYE
 <May02-2019> <16:47:24>  >>>> AMETS
 <May02-2019> <16:47:24>   Bond Energy          -0.52972262 a.u.
 <May02-2019> <16:47:24>   Bond Energy         -14.41448596 eV
 <May02-2019> <16:47:24>   Bond Energy        -332.41       kcal/mol
 <May02-2019> <16:47:24>  >>>> POPUL
 <May02-2019> <16:47:24>  >>>> ENGRAD
 <May02-2019> <16:47:24>  >>>> ENHESS
 <May02-2019> <16:47:25>  === NUCLEUS:     1
 <May02-2019> <16:47:26>  === NUCLEUS:     2
 <May02-2019> <16:47:26>  >>>> CALC_HESS_PMAT
 <May02-2019> <16:47:27>  >>>> CALC_HESS_WMAT
 <May02-2019> <16:47:27>  NORMAL TERMINATION
 <May02-2019> <16:47:27>  END
