
Create H   file=TZ2P-H
XC
  GGA BP86
End
End Input

 *******************************************************************************
 *                                                                             *
 *  -------------------------------------                                      *
 *   Amsterdam Density Functional  (ADF)         development version           *
 *  -------------------------------------                                      *
 *                                               r61132 2017-09-08             *
 *                                                                             *
 *                                                                             *
 *                              =================                              *
 *                              |               |                              *
 *                              |     A D F     |                              *
 *                              |               |                              *
 *                              =================                              *
 *                                                                             *
 *                                                                             *
 *   Online information and documentation:  https://www.scm.com/support/       *
 *   E-mail:  support@scm.com   info@scm.com                                   *
 *                                                                             *
 *   Scientific publications using ADF results must be properly referenced     *
 *   See the User Manuals (or the web site) for recommended citations          *
 *   The terms and conditions of the End User License Agreement apply to       *
 *   the use of ADF, https://www.scm.com/license-terms/                        *
 *                                                                             *
 **********************  x86_64_linux_intel / intelmpi  ************************
 
 Licensed to: VU/FEW (+ SARA) / ALGEMEEN / Amsterdam / THE NETHERLANDS
 SCM User ID: u7668
  
 ADF development version  RunTime: Apr18-2019 22:12:25  Nodes: 1  Procs: 1

 Temporary files are created in /local/datastore0/tcst25/186819/kid_0.OCmqC8

 Hydrogen (TZ2P)



 ===========================
 A T T A C H E D   F I L E S
 ===========================
  
 CREATE - Data File:    TZ2P-H
                        Hydrogen (TZ2P)



 ===============================
 M O D E L   P A R A M E T E R S
 ===============================
  
 DENSITY FUNCTIONAL POTENTIAL (scf)
    LDA:                               VWN                                      
    Gradient Corrections:              Becke88 Perdew86                        == Not Default ==

 SPIN  (restricted / unrestr.)
    Molecule:                          Restricted                               

 OTHER ASPECTS
    Relativistic Corrections:          ---                                      

    Nuclear Charge Density Model:      Point Charge Nuclei                      
    Core Treatment:                    Frozen Orbital(s)                        

    Hyperfine or Zeeman Interaction:   ---                                      



 =====================================
 S Y M M E T R Y ,   E L E C T R O N S
 =====================================
  
 Symmetry: ATOM

 Irreducible Representations, including subspecies
 -------------------------------------------------
 S
 P:x  P:y  P:z
 D:z2  D:x2-y2  D:xy  D:xz  D:yz
 F:z3  F:z  F:xyz  F:z2x  F:z2y  F:x  F:y


 Configuration of Valence Electrons
 ==================================

          Occupation Numbers
          -------------------------------------------------
 S        1
 P        0
 D        0
 F        0
          -------------------------------------------------

 Total:   1

 Net Charge: 0 (Nuclei minus Electrons)

 Preset values for MO occupations will be applied through SCF cycle no. 1000000
 Thereafter, the program will assign electrons to MOs that are spatially
 similar to the occupied MOs in a "reference" cycle ("KeepOrbitals").
 The reference cycle is always the PREVIOUS cycle: it will evolve with
 the SCF procedure.



 ================================
 (Slater-type)  F U N C T I O N S  ***  (Basis and Fit)  ***
 ================================
  

 Atom Type    1  (H)
 ==============

 Valence Basis Sets:   5
 -----------------------
   1 S    0.690000
   1 S    0.920000
   1 S    1.580000
   2 P    1.250000
   3 D    2.500000


 BAS: List of all Elementary Cartesian Basis Functions
 =====================================================

 The numbering in the list below (to the right of the function characteristics) is referred
 to in print-outs of MO eigenvectors and Mulliken populations in the BAS representation
 (as contrasted to the SFO representation).

 Notes:
 1. The functions are characterized by a polynomial prefactor (powers of x,y,z and r) and
    an exponential decay factor alpha.
 2. Since the basis sets are specific for an atom TYPE, the individual functions occur on
    all atoms of that type.
 3. The word 'Core' in the left margin signals that it is a Core Function (CF) : not a
    degree of freedom in the valence set, but only used to ensure orthogonalization of
    the other valence basis functions on the frozen Core Orbitals.


 (power of) X  Y  Z  R     Alpha  on Atom
            ==========     =====     ==========

 H                                    1
                                  ---------------------------------------------------------------------------
            0  0  0  0     0.690      1
            0  0  0  0     0.920      2
            0  0  0  0     1.580      3
            1  0  0  0     1.250      4
            0  1  0  0     1.250      5
            0  0  1  0     1.250      6
            2  0  0  0     2.500      7
            1  1  0  0     2.500      8
            1  0  1  0     2.500      9
            0  2  0  0     2.500     10
            0  1  1  0     2.500     11
            0  0  2  0     2.500     12

 Total number of charge fitting functions (nprimf)        50
 Total number of Cartesian basis functions (naos)         12
 Total number of Cartesian core functions  (ncos)          0



 BAS: List of all Elementary Cartesian Basis Functions
 =====================================================

 The numbering in the list below (to the right of the function characteristics) is referred
 to in print-outs of MO eigenvectors and Mulliken populations in the BAS representation
 (as contrasted to the SFO representation).

 Notes:
 1. The functions are characterized by a polynomial prefactor (powers of x,y,z and r) and
    an exponential decay factor alpha.
 2. Since the basis sets are specific for an atom TYPE, the individual functions occur on
    all atoms of that type.
 3. The word 'Core' in the left margin signals that it is a Core Function (CF) : not a
    degree of freedom in the valence set, but only used to ensure orthogonalization of
    the other valence basis functions on the frozen Core Orbitals.


 (power of) X  Y  Z  R     Alpha  on Atom
            ==========     =====     ==========

 H                                    1
                                  ---------------------------------------------------------------------------
            0  0  0  0     0.690      1
            0  0  0  0     0.920      2
            0  0  0  0     1.580      3
            1  0  0  0     1.250      4
            0  1  0  0     1.250      5
            0  0  1  0     1.250      6
            2  0  0  0     2.500      7
            1  1  0  0     2.500      8
            1  0  1  0     2.500      9
            0  2  0  0     2.500     10
            0  1  1  0     2.500     11
            0  0  2  0     2.500     12
1
 ***************************************************************************************************



                                              ***********************
                                              *  T E C H N I C A L  *
                                              ***********************
  



 =============================================================
 P A R A L L E L I Z A T I O N  and  V E C T O R I Z A T I O N
 =============================================================
  
 Nr of parallel processes:                                1
 Maximum vector length in NumInt loops:                 128

 IO buffersize (Mb):                                     64.000000



 =====================
 S C F   U P D A T E S
 =====================
  
 Max. nr. of cycles:                               300
 Convergence criterion:                              0.0000000100
   secondary criterion:                              0.0000000100

 Mix parameter (when DIIS does not apply):           0.2000000000
 Special mix parameter for the first cycle:          1.0000000000
 Mixed ADIIS+DIIS will be used
    Max number of expansion vectors:                10
    Pure ADIIS when Max([F,P]) is above              0.1000000000
    Pure DIIS when Max([F,P]) is below               0.0010000000
 Automatic ElectronSmearing (in case of problematic SCF convergence) disabled



 =================
 P R E C I S I O N  ***  (General: NumInt, NeglectFunctionTails, ...)  ***
 =================
  

 NumInt:           Target precision:                12.0000000000
 -------           Initial precision:               10.0000000000
                   Min. precision (optimization):   10.0000000000

 Neglect Functions:          Basis functions:        0.1000000000E-13
 ------------------          Fit functions:          0.1000000000E-13



 ===========================
 L I N E A R   S C A L I N G
 ===========================
  

 Cut-off radii density fit:                        0.1000000000E-97
 Overlap cut-off criterion AO matrix elements:     0.1000000000E-97
 Cut-offs for Coulomb potential and fitted density:0.1000000000E-97
 Cut-off criterion for Coulomb multipole terms:    0.1000000000E-97
 Progressive Convergence parameter:                 0.000000000    
1
 ***************************************************************************************************



                                            ***************************
                                            *  C O M P U T A T I O N  *
                                            ***************************
  

 Number of elements of the density matrix on this node (used, total):        78        78



 ===========================================
 Numerical Integration : Fuzzy Cells (Becke)
 ===========================================
  
 Becke grid quality: VERYGOOD       
  
 Lebedev angular grid order:             min:  13 max:  41
 Nr. of radial points:                   min:  64 max:  64

 Total nr. of points:         64
 Nr. of blocks:                1
 Block length:                64
 Nr. of dummy points:          0


 Test of Precision of the Numerical Integration Grid
 ===================================================

 Integral of the Total Core Density:                   0.00000000000000



 ========================
 Density Fitting (zlmFit)
 ========================
  
 ZlmFit Fit Quality: VERYGOOD       
  
 Max L-expansion:                        min:   0 max:   0
 Nr. of radial interpolation points:     min: 130 max: 130



 =====
 S C F  ***  ScaSCF  ***
 =====
  

 CYCLE    1
 SCF Error: norm([F,P])=      0.000000000000, max([F,P])=      0.000000000000
 orbitals (Q,E):
 ---------------
 S :1...3            ( 1.00    -0.5000)  ( 0.00    -0.0900)  ( 0.00     1.2939)
 P :1...1            ( 0.00     0.1562)
 D :1...1            ( 0.00     2.2917)

 CYCLE    2
 SCF Error: norm([F,P])=      0.030526162244, max([F,P])=      0.029682528591
 orbitals (Q,E):
 ---------------
 S :1...2            ( 1.00    -0.2270)  ( 0.00     0.1038)
 P :1...1            ( 0.00     0.4131)
 D :1...1            ( 0.00     2.5768)

 CYCLE    3
  SDIIS (wt  0.000):  0.1733  0.8267
 A-DIIS (wt  1.000):  0.0000  1.0000
  DIIS coefficients:  0.0000  1.0000
 SCF Error: norm([F,P])=      0.007183061946, max([F,P])=      0.006712148192
 orbitals (Q,E):
 ---------------
 S :1...2            ( 1.00    -0.2462)  ( 0.00     0.0917)
 P :1...1            ( 0.00     0.3973)
 D :1...1            ( 0.00     2.5583)

 CYCLE    4
  SDIIS (wt  0.999):  0.1398  0.8602
 A-DIIS (wt  0.001):  0.0000  1.0000
  DIIS coefficients:  0.1396  0.8604
 SCF Error: norm([F,P])=      0.001175086780, max([F,P])=      0.001143060931
 orbitals (Q,E):
 ---------------
 S :1...2            ( 1.00    -0.2434)  ( 0.00     0.0933)
 P :1...1            ( 0.00     0.3996)
 D :1...1            ( 0.00     2.5611)

 CYCLE    5
  SDIIS (wt  1.000):  0.0219  0.9781
  DIIS coefficients:  0.0219  0.9781
 SCF Error: norm([F,P])=      0.000027525369, max([F,P])=      0.000023543474
 orbitals (Q,E):
 ---------------
 S :1...2            ( 1.00    -0.2435)  ( 0.00     0.0932)
 P :1...1            ( 0.00     0.3996)
 D :1...1            ( 0.00     2.5610)

 CYCLE    6
  SDIIS (wt  1.000): -0.0582  1.0582
  DIIS coefficients: -0.0582  1.0582
 SCF Error: norm([F,P])=      0.000001514450, max([F,P])=      0.000001285214
 orbitals (Q,E):
 ---------------
 S :1...2            ( 1.00    -0.2435)  ( 0.00     0.0932)
 P :1...1            ( 0.00     0.3996)
 D :1...1            ( 0.00     2.5610)

 CYCLE    7
  SDIIS (wt  1.000): -0.0031  1.0031
  DIIS coefficients: -0.0031  1.0031
 SCF Error: norm([F,P])=      0.000000004705, max([F,P])=      0.000000004158
 orbitals (Q,E):
 ---------------
 S :1...2            ( 1.00    -0.2435)  ( 0.00     0.0932)
 P :1...1            ( 0.00     0.3996)
 D :1...1            ( 0.00     2.5610)

 SCF CONVERGED

 CYCLE    8
1
 ***************************************************************************************************



                                                *******************
                                                *  R E S U L T S  *
                                                *******************
  
 *** Setting up for NEW gradients in Focky
 *** Using FIT density in Focky

 Orbital Energies, per Irrep and Spin:
 ======================================
                        Occup              E (au)              E (eV)       Diff (eV) with prev. cycle
                        -----      --------------------        ------       --------------------------
 S
               1        1.000     -0.24350452296405E+00        -6.626               4.48E-09
               2        0.000      0.93233330888585E-01         2.537
               3        0.000      0.15154066862623E+01        41.236
 P
               1        0.000      0.39955072057198E+00        10.872
 D
               1        0.000      0.25610214787646E+01        69.689


 Partially Occupied:
               1 S                -0.24350452296405E+00
  
 LUMO :        2 S                 0.93233330888585E-01
  


 Orbital Energies, all Irreps
 ========================================

 Irrep        no.  (spin)   Occup              E (au)                E (eV)
 ---------------------------------------------------------------------------
 S             1             1.00       -0.24350452296405E+00        -6.6261
 S             2             0.00        0.93233330888585E-01         2.5370
 P             1             0.00        0.39955072057198E+00        10.8723
 S             3             0.00        0.15154066862623E+01        41.2363
 D             1             0.00        0.25610214787646E+01        69.6889


 All Electron Calculation, thus no Orbital Energies of the Core Orbitals are calculated



 =======================================
 M U L L I K E N   P O P U L A T I O N S
 =======================================
  
 The survey below gives for each atom:
 a) the total charge (Z minus electrons)
 b) the net spin polarization (nr of electrons spin-A minus spin-B)
 c) for each spin the atomic electron valence density (integrated) per L-value.

 Atom              Charge    Spin density          S         P         D         F
 ----              ------    ------------       ------    ------    ------    ------
 1 H               0.0000                       1.0000    0.0000    0.0000    0.0000

 Populations of individual BAS functions
 ----------------------------------------
 1 H            0.1853  0.7115  0.1032  0.0000  0.0000  0.0000  0.0000  0.0000  0.0000  0.0000
                0.0000  0.0000

 Gross Charges per Atom (Z minus electrons)
 ==========================================
             0.0000
 Net Total:  0.00000000



 =======================================================================
 Electrostatic potential at the Nuclei due to electrons and other nuclei
 =======================================================================
  
         Atom                  Potential
         ----                  ---------
     1)   H                   0.94550094
 
 
 ========================
 No memory problems found
 ========================
 
 Maximum number of active allocate calls:         363
 
 *******************************************************************************

                             A D F   E X I T
 NORMAL TERMINATION



 =================
 Timing Statistics
 =================
  
 Total Used :                     CPU=        0.30      System=        0.02     Elapsed=        0.32

 Calls  Section                     ( Mean, Percentage )
 ---------------------------------------------------------------------------------------------------
     3  ><      ................      0.00    0.33             0.00    0.00             0.00    0.25
     1  INIT    ................      0.01    3.31             0.01   66.67             0.03    8.00
     1  GEOMET  ................      0.01    2.65             0.00    4.76             0.01    2.56
     1  INPUTA  ................      0.00    0.33             0.00    0.00             0.00    0.45
     1  MAINSY  ................      0.00    0.99             0.00   14.29             0.01    1.73
     1  SYMFIT  ................      0.00    0.00             0.00    0.00             0.00    0.24
     1  CORORT  ................      0.00    0.00             0.00    4.76             0.00    0.08
     1  SYMORB  ................      0.00    0.00             0.00    0.00             0.00    0.16
     1  CLSMAT  ................      0.00    1.32             0.00    0.00             0.00    1.21
     1  ORTHON  ................      0.00    0.33             0.00    0.00             0.00    0.38
     1  GENPT   ................      0.01    3.31             0.00    0.00             0.01    2.99
     1  PTBAS   ................      0.00    0.99             0.00    0.00             0.00    1.03
     8  FOCKY   ................      0.03   68.54             0.00    9.53             0.03   64.36
     8  FOCKTR  ................      0.00    1.99             0.00    0.00             0.00    1.61
     8  SDIIS   ................      0.00    3.64             0.00    0.00             0.00    3.50
     1  COREPS  ................      0.02    5.30             0.00    0.00             0.02    4.82
     1  POPAN   ................      0.00    1.32             0.00    0.00             0.00    1.16
     1  DEBYE   ................      0.00    0.00             0.00    0.00             0.00    0.15
     1  EXIT PROCEDURE .........      0.02    5.63             0.00    0.00             0.02    5.33


 Currently Open Files (EXIT00)
 ====================

 Unit    Access Format  Status   Type       Ident (file)
 -------------------------------------------------------
   3      SEQ    FORM   TRANSP  NORMAL      LOGFILE
                                          ( logfile )


 Buffered I/O statistics
 =======================
 Memory available:                     67108864
 Number of records fitting in memory:     16131
 Input :   0.2% of                        17478  *4k bytes
 Output:  15.2% of                         1046  *4k bytes
 Records from serial files evicted:           0
                    others evicted:           0
 Hash table lookups:      44676 with          0 conflicts (  0.00%)

 ***************************************************************************************************
 (LOGFILE)
 <Apr18-2019> <22:12:25>  ADF development version  RunTime: Apr18-2019 22:12:25  Nodes: 1  Procs: 1
 <Apr18-2019> <22:12:25>  Hydrogen (TZ2P)
 <Apr18-2019> <22:12:25>  RunType   : CREATE
 <Apr18-2019> <22:12:25>  Net Charge: 0 (Nuclei minus Electrons)
 <Apr18-2019> <22:12:25>  Symmetry  : ATOM
  Coordinates
    Atom         X           Y           Z   (Angstrom)
    1.H         0.000000    0.000000    0.000000
 <Apr18-2019> <22:12:25>  >>>> CORORT
 <Apr18-2019> <22:12:25>  >>>> CLSMAT
 <Apr18-2019> <22:12:25>  >>>> ORTHON
 <Apr18-2019> <22:12:25>  >>>> GENPT
 <Apr18-2019> <22:12:25>  Block Length=  64
 <Apr18-2019> <22:12:25>  >>>> PTBAS
 <Apr18-2019> <22:12:25>  >>>> CYCLE
 <Apr18-2019> <22:12:25>              |Error|         MaxErr       Wt(A-DIIS)
 <Apr18-2019> <22:12:25>      1      0.00000000      0.00000000
 <Apr18-2019> <22:12:25>      2      0.03052616      0.02968253
 <Apr18-2019> <22:12:25>      3      0.00718306      0.00671215    100.0
 <Apr18-2019> <22:12:25>      4      0.00117509      0.00114306      0.1
 <Apr18-2019> <22:12:25>      5      0.00002753      0.00002354      0.0
 <Apr18-2019> <22:12:25>      6      0.00000151      0.00000129      0.0
 <Apr18-2019> <22:12:25>      7      0.00000000      0.00000000      0.0
 <Apr18-2019> <22:12:25>  SCF converged
 <Apr18-2019> <22:12:25>      8      0.00000000      0.00000000      0.0
 <Apr18-2019> <22:12:25>  >>>> POPAN
 <Apr18-2019> <22:12:25>  >>>> DEBYE
 <Apr18-2019> <22:12:25>  NORMAL TERMINATION
 <Apr18-2019> <22:12:25>  END

Create B   file=TZ2P-B
XC
  GGA BP86
End
End Input

 *******************************************************************************
 *                                                                             *
 *  -------------------------------------                                      *
 *   Amsterdam Density Functional  (ADF)         development version           *
 *  -------------------------------------                                      *
 *                                               r61132 2017-09-08             *
 *                                                                             *
 *                                                                             *
 *                              =================                              *
 *                              |               |                              *
 *                              |     A D F     |                              *
 *                              |               |                              *
 *                              =================                              *
 *                                                                             *
 *                                                                             *
 *   Online information and documentation:  https://www.scm.com/support/       *
 *   E-mail:  support@scm.com   info@scm.com                                   *
 *                                                                             *
 *   Scientific publications using ADF results must be properly referenced     *
 *   See the User Manuals (or the web site) for recommended citations          *
 *   The terms and conditions of the End User License Agreement apply to       *
 *   the use of ADF, https://www.scm.com/license-terms/                        *
 *                                                                             *
 **********************  x86_64_linux_intel / intelmpi  ************************
 
 Licensed to: VU/FEW (+ SARA) / ALGEMEEN / Amsterdam / THE NETHERLANDS
 SCM User ID: u7668
  
 ADF development version  RunTime: Apr18-2019 22:12:25  Nodes: 1  Procs: 1

 Temporary files are created in /local/datastore0/tcst25/186819/kid_0.EofT9A

 Boron (TZ2P)



 ===========================
 A T T A C H E D   F I L E S
 ===========================
  
 CREATE - Data File:    TZ2P-B
                        Boron (TZ2P)



 ===============================
 M O D E L   P A R A M E T E R S
 ===============================
  
 DENSITY FUNCTIONAL POTENTIAL (scf)
    LDA:                               VWN                                      
    Gradient Corrections:              Becke88 Perdew86                        == Not Default ==

 SPIN  (restricted / unrestr.)
    Molecule:                          Restricted                               

 OTHER ASPECTS
    Relativistic Corrections:          ---                                      

    Nuclear Charge Density Model:      Point Charge Nuclei                      
    Core Treatment:                    Frozen Orbital(s)                        

    Hyperfine or Zeeman Interaction:   ---                                      



 =====================================
 S Y M M E T R Y ,   E L E C T R O N S
 =====================================
  
 Symmetry: ATOM

 Irreducible Representations, including subspecies
 -------------------------------------------------
 S
 P:x  P:y  P:z
 D:z2  D:x2-y2  D:xy  D:xz  D:yz
 F:z3  F:z  F:xyz  F:z2x  F:z2y  F:x  F:y


 Configuration of Valence Electrons
 ==================================

          Occupation Numbers
          -------------------------------------------------
 S        2*2
 P        1
 D        0
 F        0
          -------------------------------------------------

 Total:   5

 Net Charge: 0 (Nuclei minus Electrons)

 Preset values for MO occupations will be applied through SCF cycle no. 1000000
 Thereafter, the program will assign electrons to MOs that are spatially
 similar to the occupied MOs in a "reference" cycle ("KeepOrbitals").
 The reference cycle is always the PREVIOUS cycle: it will evolve with
 the SCF procedure.



 ================================
 (Slater-type)  F U N C T I O N S  ***  (Basis and Fit)  ***
 ================================
  

 Atom Type    1  (B)
 ==============

 Valence Basis Sets:  10
 -----------------------
   1 S    6.500000
   1 S    4.080000
   2 S    2.800000
   2 S    1.700000
   2 S    1.040000
   2 P    2.600000
   2 P    1.260000
   2 P    0.680000
   3 D    2.000000
   4 F    3.000000


 BAS: List of all Elementary Cartesian Basis Functions
 =====================================================

 The numbering in the list below (to the right of the function characteristics) is referred
 to in print-outs of MO eigenvectors and Mulliken populations in the BAS representation
 (as contrasted to the SFO representation).

 Notes:
 1. The functions are characterized by a polynomial prefactor (powers of x,y,z and r) and
    an exponential decay factor alpha.
 2. Since the basis sets are specific for an atom TYPE, the individual functions occur on
    all atoms of that type.
 3. The word 'Core' in the left margin signals that it is a Core Function (CF) : not a
    degree of freedom in the valence set, but only used to ensure orthogonalization of
    the other valence basis functions on the frozen Core Orbitals.


 (power of) X  Y  Z  R     Alpha  on Atom
            ==========     =====     ==========

 B                                    1
                                  ---------------------------------------------------------------------------
            0  0  0  0     6.500      1
            0  0  0  0     4.080      2
            0  0  0  1     2.800      3
            0  0  0  1     1.700      4
            0  0  0  1     1.040      5
            1  0  0  0     2.600      6
            0  1  0  0     2.600      7
            0  0  1  0     2.600      8
            1  0  0  0     1.260      9
            0  1  0  0     1.260     10
            0  0  1  0     1.260     11
            1  0  0  0     0.680     12
            0  1  0  0     0.680     13
            0  0  1  0     0.680     14
            2  0  0  0     2.000     15
            1  1  0  0     2.000     16
            1  0  1  0     2.000     17
            0  2  0  0     2.000     18
            0  1  1  0     2.000     19
            0  0  2  0     2.000     20
            3  0  0  0     3.000     21
            2  1  0  0     3.000     22
            2  0  1  0     3.000     23
            1  2  0  0     3.000     24
            1  1  1  0     3.000     25
            1  0  2  0     3.000     26
            0  3  0  0     3.000     27
            0  2  1  0     3.000     28
            0  1  2  0     3.000     29
            0  0  3  0     3.000     30

 Total number of charge fitting functions (nprimf)        84
 Total number of Cartesian basis functions (naos)         30
 Total number of Cartesian core functions  (ncos)          0



 BAS: List of all Elementary Cartesian Basis Functions
 =====================================================

 The numbering in the list below (to the right of the function characteristics) is referred
 to in print-outs of MO eigenvectors and Mulliken populations in the BAS representation
 (as contrasted to the SFO representation).

 Notes:
 1. The functions are characterized by a polynomial prefactor (powers of x,y,z and r) and
    an exponential decay factor alpha.
 2. Since the basis sets are specific for an atom TYPE, the individual functions occur on
    all atoms of that type.
 3. The word 'Core' in the left margin signals that it is a Core Function (CF) : not a
    degree of freedom in the valence set, but only used to ensure orthogonalization of
    the other valence basis functions on the frozen Core Orbitals.


 (power of) X  Y  Z  R     Alpha  on Atom
            ==========     =====     ==========

 B                                    1
                                  ---------------------------------------------------------------------------
            0  0  0  0     6.500      1
            0  0  0  0     4.080      2
            0  0  0  1     2.800      3
            0  0  0  1     1.700      4
            0  0  0  1     1.040      5
            1  0  0  0     2.600      6
            0  1  0  0     2.600      7
            0  0  1  0     2.600      8
            1  0  0  0     1.260      9
            0  1  0  0     1.260     10
            0  0  1  0     1.260     11
            1  0  0  0     0.680     12
            0  1  0  0     0.680     13
            0  0  1  0     0.680     14
            2  0  0  0     2.000     15
            1  1  0  0     2.000     16
            1  0  1  0     2.000     17
            0  2  0  0     2.000     18
            0  1  1  0     2.000     19
            0  0  2  0     2.000     20
            3  0  0  0     3.000     21
            2  1  0  0     3.000     22
            2  0  1  0     3.000     23
            1  2  0  0     3.000     24
            1  1  1  0     3.000     25
            1  0  2  0     3.000     26
            0  3  0  0     3.000     27
            0  2  1  0     3.000     28
            0  1  2  0     3.000     29
            0  0  3  0     3.000     30
1
 ***************************************************************************************************



                                              ***********************
                                              *  T E C H N I C A L  *
                                              ***********************
  



 =============================================================
 P A R A L L E L I Z A T I O N  and  V E C T O R I Z A T I O N
 =============================================================
  
 Nr of parallel processes:                                1
 Maximum vector length in NumInt loops:                 128

 IO buffersize (Mb):                                     64.000000



 =====================
 S C F   U P D A T E S
 =====================
  
 Max. nr. of cycles:                               300
 Convergence criterion:                              0.0000000100
   secondary criterion:                              0.0000000100

 Mix parameter (when DIIS does not apply):           0.2000000000
 Special mix parameter for the first cycle:          1.0000000000
 Mixed ADIIS+DIIS will be used
    Max number of expansion vectors:                10
    Pure ADIIS when Max([F,P]) is above              0.1000000000
    Pure DIIS when Max([F,P]) is below               0.0010000000
 Automatic ElectronSmearing (in case of problematic SCF convergence) disabled



 =================
 P R E C I S I O N  ***  (General: NumInt, NeglectFunctionTails, ...)  ***
 =================
  

 NumInt:           Target precision:                12.0000000000
 -------           Initial precision:               10.0000000000
                   Min. precision (optimization):   10.0000000000

 Neglect Functions:          Basis functions:        0.1000000000E-13
 ------------------          Fit functions:          0.1000000000E-13



 ===========================
 L I N E A R   S C A L I N G
 ===========================
  

 Cut-off radii density fit:                        0.1000000000E-97
 Overlap cut-off criterion AO matrix elements:     0.1000000000E-97
 Cut-offs for Coulomb potential and fitted density:0.1000000000E-97
 Cut-off criterion for Coulomb multipole terms:    0.1000000000E-97
 Progressive Convergence parameter:                 0.000000000    
1
 ***************************************************************************************************



                                            ***************************
                                            *  C O M P U T A T I O N  *
                                            ***************************
  

 Number of elements of the density matrix on this node (used, total):       465       465



 ===========================================
 Numerical Integration : Fuzzy Cells (Becke)
 ===========================================
  
 Becke grid quality: VERYGOOD       
  
 Lebedev angular grid order:             min:  13 max:  41
 Nr. of radial points:                   min:  76 max:  76

 Total nr. of points:         76
 Nr. of blocks:                1
 Block length:                76
 Nr. of dummy points:          0


 Test of Precision of the Numerical Integration Grid
 ===================================================

 Integral of the Total Core Density:                   0.00000000000000



 ========================
 Density Fitting (zlmFit)
 ========================
  
 ZlmFit Fit Quality: VERYGOOD       
  
 Max L-expansion:                        min:   0 max:   0
 Nr. of radial interpolation points:     min: 160 max: 160



 =====
 S C F  ***  ScaSCF  ***
 =====
  

 CYCLE    1
 SCF Error: norm([F,P])=      0.000000000000, max([F,P])=      0.000000000000
 orbitals (Q,E):
 ---------------
 S :1...5            ( 2.00   -12.4973)  ( 2.00    -3.1204)  ( 0.00    -1.3604)  ( 0.00    -0.2943)
                     ( 0.00    21.5464)
 P :1...3            ( 1.00    -3.1235)  ( 0.00    -1.3596)  ( 0.00    -0.7394)
 D :1...1            ( 0.00    -1.3333)
 F :1...1            ( 0.00     0.7500)

 CYCLE    2
  SDIIS (wt  0.000):  1.0000  0.0000
 A-DIIS (wt  1.000):  0.0000  1.0000
  DIIS coefficients:  0.0000  1.0000
 SCF Error: norm([F,P])=      3.206930624403, max([F,P])=      2.044237717286
 orbitals (Q,E):
 ---------------
 S :1...3            ( 2.00    -5.1374)  ( 2.00    -0.0371)  ( 0.00     0.4555)
 P :1...2            ( 1.00     0.0686)  ( 0.00     0.3929)
 D :1...1            ( 0.00     1.4209)
 F :1...1            ( 0.00     3.7855)

 CYCLE    3
  SDIIS (wt  0.000):  0.1983  0.8017
 A-DIIS (wt  1.000):  0.0000  1.0000
  DIIS coefficients:  0.0000  1.0000
 SCF Error: norm([F,P])=      1.040807263909, max([F,P])=      0.886703810621
 orbitals (Q,E):
 ---------------
 S :1...3            ( 2.00    -7.3692)  ( 2.00    -0.6224)  ( 0.00     0.0443)
 P :1...2            ( 1.00    -0.4031)  ( 0.00     0.0084)
 D :1...1            ( 0.00     0.7598)
 F :1...1            ( 0.00     3.0368)

 CYCLE    4
  SDIIS (wt  0.000): -0.0590  0.2096  0.8494
 A-DIIS (wt  1.000):  0.0000  0.0000  1.0000
  DIIS coefficients:  0.0000  0.0000  1.0000
 SCF Error: norm([F,P])=      0.442042017553, max([F,P])=      0.386566792489
 orbitals (Q,E):
 ---------------
 S :1...3            ( 2.00    -6.3214)  ( 2.00    -0.2478)  ( 0.00     0.2723)
 P :1...2            ( 1.00    -0.0468)  ( 0.00     0.1916)
 D :1...1            ( 0.00     1.1452)
 F :1...1            ( 0.00     3.4686)

 CYCLE    5
  SDIIS (wt  0.000): -0.0164 -0.0293  0.3638  0.6819
 A-DIIS (wt  1.000):  0.0000  0.0000  0.0966  0.9034
  DIIS coefficients:  0.0000  0.0000  0.0966  0.9034
 SCF Error: norm([F,P])=      0.215593907540, max([F,P])=      0.197107993768
 orbitals (Q,E):
 ---------------
 S :1...3            ( 2.00    -6.7835)  ( 2.00    -0.4032)  ( 0.00     0.1648)
 P :1...2            ( 1.00    -0.1843)  ( 0.00     0.0973)
 D :1...1            ( 0.00     0.9774)
 F :1...1            ( 0.00     3.2785)

 CYCLE    6
  SDIIS (wt  0.212):  0.0014 -0.0175 -0.0520  0.2997  0.7685
 A-DIIS (wt  0.788):  0.0000  0.0000  0.0000  0.0000  1.0000
  DIIS coefficients:  0.0003 -0.0037 -0.0110  0.0634  0.9510
 SCF Error: norm([F,P])=      0.087896467660, max([F,P])=      0.079060506992
 orbitals (Q,E):
 ---------------
 S :1...3            ( 2.00    -6.5865)  ( 2.00    -0.3297)  ( 0.00     0.2120)
 P :1...2            ( 1.00    -0.1166)  ( 0.00     0.1383)
 D :1...1            ( 0.00     1.0553)
 F :1...1            ( 0.00     3.3662)

 CYCLE    7
  SDIIS (wt  0.645): -0.0002  0.0016 -0.0012 -0.0706  0.2336  0.8367
 A-DIIS (wt  0.355):  0.0000  0.0000  0.0000  0.0000  0.0000  1.0000
  DIIS coefficients: -0.0001  0.0010 -0.0008 -0.0456  0.1508  0.8946
 SCF Error: norm([F,P])=      0.039810040971, max([F,P])=      0.036102929289
 orbitals (Q,E):
 ---------------
 S :1...3            ( 2.00    -6.6597)  ( 2.00    -0.3558)  ( 0.00     0.1943)
 P :1...2            ( 1.00    -0.1403)  ( 0.00     0.1227)
 D :1...1            ( 0.00     1.0274)
 F :1...1            ( 0.00     3.3347)

 CYCLE    8
  SDIIS (wt  0.936):  0.0000 -0.0000  0.0001  0.0045 -0.0468  0.0722  0.9699
 A-DIIS (wt  0.064):  0.0000  0.0000  0.0000  0.0000  0.0000  0.0000  1.0000
  DIIS coefficients:  0.0000 -0.0000  0.0001  0.0042 -0.0438  0.0676  0.9718
 SCF Error: norm([F,P])=      0.008085664981, max([F,P])=      0.007315306127
 orbitals (Q,E):
 ---------------
 S :1...3            ( 2.00    -6.6469)  ( 2.00    -0.3512)  ( 0.00     0.1973)
 P :1...2            ( 1.00    -0.1360)  ( 0.00     0.1254)
 D :1...1            ( 0.00     1.0323)
 F :1...1            ( 0.00     3.3402)

 CYCLE    9
  SDIIS (wt  1.000): -0.0000 -0.0000  0.0000 -0.0000  0.0014 -0.0057 -0.0076  1.0119
  DIIS coefficients: -0.0000 -0.0000  0.0000 -0.0000  0.0014 -0.0057 -0.0076  1.0119
 SCF Error: norm([F,P])=      0.000296891091, max([F,P])=      0.000268546514
 orbitals (Q,E):
 ---------------
 S :1...3            ( 2.00    -6.6473)  ( 2.00    -0.3513)  ( 0.00     0.1972)
 P :1...2            ( 1.00    -0.1362)  ( 0.00     0.1253)
 D :1...1            ( 0.00     1.0321)
 F :1...1            ( 0.00     3.3400)

 CYCLE   10
  SDIIS (wt  1.000): -0.0000 -0.0000  0.0000  0.0000 -0.0003 -0.0005  0.0184  0.9824
  DIIS coefficients: -0.0000 -0.0000  0.0000  0.0000 -0.0003 -0.0005  0.0184  0.9824
 SCF Error: norm([F,P])=      0.000000323230, max([F,P])=      0.000000256951
 orbitals (Q,E):
 ---------------
 S :1...3            ( 2.00    -6.6473)  ( 2.00    -0.3513)  ( 0.00     0.1972)
 P :1...2            ( 1.00    -0.1362)  ( 0.00     0.1253)
 D :1...1            ( 0.00     1.0321)
 F :1...1            ( 0.00     3.3400)

 CYCLE   11
  SDIIS (wt  1.000): -0.0000  0.0000  0.0002  0.0044  0.9954
  DIIS coefficients: -0.0000  0.0000  0.0002  0.0044  0.9954
 SCF Error: norm([F,P])=      0.000000003188, max([F,P])=      0.000000002647
 orbitals (Q,E):
 ---------------
 S :1...3            ( 2.00    -6.6473)  ( 2.00    -0.3513)  ( 0.00     0.1972)
 P :1...2            ( 1.00    -0.1362)  ( 0.00     0.1253)
 D :1...1            ( 0.00     1.0321)
 F :1...1            ( 0.00     3.3400)

 SCF CONVERGED

 CYCLE   12
1
 ***************************************************************************************************



                                                *******************
                                                *  R E S U L T S  *
                                                *******************
  
 *** Setting up for NEW gradients in Focky
 *** Using FIT density in Focky

 Orbital Energies, per Irrep and Spin:
 ======================================
                        Occup              E (au)              E (eV)       Diff (eV) with prev. cycle
                        -----      --------------------        ------       --------------------------
 S
               1        2.000     -0.66473159094863E+01      -180.883              -6.83E-09
               2        2.000     -0.35134921977183E+00        -9.561              -4.00E-09
               3        0.000      0.19724151702901E+00         5.367
               4        0.000      0.25814438752340E+01        70.245
               5        0.000      0.26826620261348E+02       729.989
 P
               1        1.000     -0.13617927732071E+00        -3.706              -3.70E-09
               2        0.000      0.12531170360136E+00         3.410
               3        0.000      0.16747264371451E+01        45.572
 D
               1        0.000      0.10321145268327E+01        28.085
 F
               1        0.000      0.33400309304585E+01        90.887


 Partially Occupied:
               1 P                -0.13617927732071E+00
  
 HOMO :        2 S                -0.35134921977183E+00
 LUMO :        2 P                 0.12531170360136E+00
  


 Orbital Energies, all Irreps
 ========================================

 Irrep        no.  (spin)   Occup              E (au)                E (eV)
 ---------------------------------------------------------------------------
 S             1             2.00       -0.66473159094863E+01      -180.8827
 S             2             2.00       -0.35134921977183E+00        -9.5607
 P             1             1.00       -0.13617927732071E+00        -3.7056
 P             2             0.00        0.12531170360136E+00         3.4099
 S             3             0.00        0.19724151702901E+00         5.3672
 D             1             0.00        0.10321145268327E+01        28.0853
 P             3             0.00        0.16747264371451E+01        45.5716
 S             4             0.00        0.25814438752340E+01        70.2447
 F             1             0.00        0.33400309304585E+01        90.8869
 S             5             0.00        0.26826620261348E+02       729.9895


 All Electron Calculation, thus no Orbital Energies of the Core Orbitals are calculated



 =======================================
 M U L L I K E N   P O P U L A T I O N S
 =======================================
  
 The survey below gives for each atom:
 a) the total charge (Z minus electrons)
 b) the net spin polarization (nr of electrons spin-A minus spin-B)
 c) for each spin the atomic electron valence density (integrated) per L-value.

 Atom              Charge    Spin density          S         P         D         F
 ----              ------    ------------       ------    ------    ------    ------
 1 B              -0.0000                       4.0000    1.0000    0.0000    0.0000

 Populations of individual BAS functions
 ----------------------------------------
 1 B            0.4730  1.5255 -0.1291  1.2093  0.9214  0.0290  0.0290  0.0290  0.1965  0.1965
                0.1965  0.1078  0.1078  0.1078  0.0000  0.0000  0.0000  0.0000  0.0000  0.0000
                0.0000  0.0000  0.0000  0.0000  0.0000  0.0000  0.0000  0.0000  0.0000  0.0000

 Gross Charges per Atom (Z minus electrons)
 ==========================================
            -0.0000
 Net Total: -0.00000000



 =======================================================================
 Electrostatic potential at the Nuclei due to electrons and other nuclei
 =======================================================================
  
         Atom                  Potential
         ----                  ---------
     1)   B                  11.37741465
 
 
 ========================
 No memory problems found
 ========================
 
 Maximum number of active allocate calls:         447
 
 *******************************************************************************

                             A D F   E X I T
 NORMAL TERMINATION



 =================
 Timing Statistics
 =================
  
 Total Used :                     CPU=        0.47      System=        0.02     Elapsed=        0.49

 Calls  Section                     ( Mean, Percentage )
 ---------------------------------------------------------------------------------------------------
     3  ><      ................      0.00    0.21             0.00    0.00             0.00    0.16
     1  INIT    ................      0.01    2.13             0.01   58.33             0.03    5.18
     1  GEOMET  ................      0.01    1.92             0.00    0.00             0.01    1.68
     1  INPUTA  ................      0.00    0.21             0.00    0.00             0.00    0.31
     1  MAINSY  ................      0.00    0.64             0.00   12.50             0.01    1.21
     1  SYMFIT  ................      0.00    0.00             0.00    4.17             0.00    0.16
     1  CORORT  ................      0.00    0.00             0.00    0.00             0.00    0.05
     1  SYMORB  ................      0.00    0.21             0.00    0.00             0.00    0.14
     1  CLSMAT  ................      0.00    1.07             0.00    0.00             0.01    1.06
     1  ORTHON  ................      0.00    0.21             0.00    0.00             0.00    0.30
     1  GENPT   ................      0.01    3.20             0.00    0.00             0.01    2.99
     1  PTBAS   ................      0.00    0.85             0.00    0.00             0.00    0.70
    12  FOCKY   ................      0.03   73.77             0.00   12.50             0.03   70.86
    12  FOCKTR  ................      0.00    2.35             0.00    0.00             0.00    2.05
    12  SDIIS   ................      0.00    4.05             0.00    4.16             0.00    3.99
     1  COREPS  ................      0.02    4.48             0.00    0.00             0.02    4.24
     1  POPAN   ................      0.00    1.07             0.00    0.00             0.01    1.06
     1  DEBYE   ................      0.00    0.00             0.00    0.00             0.00    0.11
     1  EXIT PROCEDURE .........      0.02    3.62             0.00    8.33             0.02    3.77


 Currently Open Files (EXIT00)
 ====================

 Unit    Access Format  Status   Type       Ident (file)
 -------------------------------------------------------
   3      SEQ    FORM   TRANSP  NORMAL      LOGFILE
                                          ( logfile )


 Buffered I/O statistics
 =======================
 Memory available:                     67108864
 Number of records fitting in memory:     16131
 Input :   0.1% of                        26729  *4k bytes
 Output:  13.8% of                         1360  *4k bytes
 Records from serial files evicted:           0
                    others evicted:           0
 Hash table lookups:      69030 with          0 conflicts (  0.00%)

 ***************************************************************************************************
 (LOGFILE)
 <Apr18-2019> <22:12:25>  ADF development version  RunTime: Apr18-2019 22:12:25  Nodes: 1  Procs: 1
 <Apr18-2019> <22:12:25>  Hydrogen (TZ2P)
 <Apr18-2019> <22:12:25>  RunType   : CREATE
 <Apr18-2019> <22:12:25>  Net Charge: 0 (Nuclei minus Electrons)
 <Apr18-2019> <22:12:25>  Symmetry  : ATOM
  Coordinates
    Atom         X           Y           Z   (Angstrom)
    1.H         0.000000    0.000000    0.000000
 <Apr18-2019> <22:12:25>  >>>> CORORT
 <Apr18-2019> <22:12:25>  >>>> CLSMAT
 <Apr18-2019> <22:12:25>  >>>> ORTHON
 <Apr18-2019> <22:12:25>  >>>> GENPT
 <Apr18-2019> <22:12:25>  Block Length=  64
 <Apr18-2019> <22:12:25>  >>>> PTBAS
 <Apr18-2019> <22:12:25>  >>>> CYCLE
 <Apr18-2019> <22:12:25>              |Error|         MaxErr       Wt(A-DIIS)
 <Apr18-2019> <22:12:25>      1      0.00000000      0.00000000
 <Apr18-2019> <22:12:25>      2      0.03052616      0.02968253
 <Apr18-2019> <22:12:25>      3      0.00718306      0.00671215    100.0
 <Apr18-2019> <22:12:25>      4      0.00117509      0.00114306      0.1
 <Apr18-2019> <22:12:25>      5      0.00002753      0.00002354      0.0
 <Apr18-2019> <22:12:25>      6      0.00000151      0.00000129      0.0
 <Apr18-2019> <22:12:25>      7      0.00000000      0.00000000      0.0
 <Apr18-2019> <22:12:25>  SCF converged
 <Apr18-2019> <22:12:25>      8      0.00000000      0.00000000      0.0
 <Apr18-2019> <22:12:25>  >>>> POPAN
 <Apr18-2019> <22:12:25>  >>>> DEBYE
 <Apr18-2019> <22:12:25>  NORMAL TERMINATION
 <Apr18-2019> <22:12:25>  END
 <Apr18-2019> <22:12:25>  ADF development version  RunTime: Apr18-2019 22:12:25  Nodes: 1  Procs: 1
 <Apr18-2019> <22:12:25>  Boron (TZ2P)
 <Apr18-2019> <22:12:25>  RunType   : CREATE
 <Apr18-2019> <22:12:25>  Net Charge: 0 (Nuclei minus Electrons)
 <Apr18-2019> <22:12:25>  Symmetry  : ATOM
  Coordinates
    Atom         X           Y           Z   (Angstrom)
    1.B         0.000000    0.000000    0.000000
 <Apr18-2019> <22:12:25>  >>>> CORORT
 <Apr18-2019> <22:12:25>  >>>> CLSMAT
 <Apr18-2019> <22:12:25>  >>>> ORTHON
 <Apr18-2019> <22:12:25>  >>>> GENPT
 <Apr18-2019> <22:12:25>  Block Length=  76
 <Apr18-2019> <22:12:25>  >>>> PTBAS
 <Apr18-2019> <22:12:25>  >>>> CYCLE
 <Apr18-2019> <22:12:25>              |Error|         MaxErr       Wt(A-DIIS)
 <Apr18-2019> <22:12:25>      1      0.00000000      0.00000000
 <Apr18-2019> <22:12:25>      2      3.20693062      2.04423772    100.0
 <Apr18-2019> <22:12:25>      3      1.04080726      0.88670381    100.0
 <Apr18-2019> <22:12:25>      4      0.44204202      0.38656679    100.0
 <Apr18-2019> <22:12:25>      5      0.21559391      0.19710799    100.0
 <Apr18-2019> <22:12:25>      6      0.08789647      0.07906051     78.8
 <Apr18-2019> <22:12:25>      7      0.03981004      0.03610293     35.5
 <Apr18-2019> <22:12:25>      8      0.00808566      0.00731531      6.4
 <Apr18-2019> <22:12:25>      9      0.00029689      0.00026855      0.0
 <Apr18-2019> <22:12:25>     10      0.00000032      0.00000026      0.0
 <Apr18-2019> <22:12:25>     11      0.00000000      0.00000000      0.0
 <Apr18-2019> <22:12:25>  SCF converged
 <Apr18-2019> <22:12:25>     12      0.00000000      0.00000000      0.0
 <Apr18-2019> <22:12:25>  >>>> POPAN
 <Apr18-2019> <22:12:25>  >>>> DEBYE
 <Apr18-2019> <22:12:26>  NORMAL TERMINATION
 <Apr18-2019> <22:12:26>  END

Create N   file=TZ2P-N
XC
  GGA BP86
End
End Input

 *******************************************************************************
 *                                                                             *
 *  -------------------------------------                                      *
 *   Amsterdam Density Functional  (ADF)         development version           *
 *  -------------------------------------                                      *
 *                                               r61132 2017-09-08             *
 *                                                                             *
 *                                                                             *
 *                              =================                              *
 *                              |               |                              *
 *                              |     A D F     |                              *
 *                              |               |                              *
 *                              =================                              *
 *                                                                             *
 *                                                                             *
 *   Online information and documentation:  https://www.scm.com/support/       *
 *   E-mail:  support@scm.com   info@scm.com                                   *
 *                                                                             *
 *   Scientific publications using ADF results must be properly referenced     *
 *   See the User Manuals (or the web site) for recommended citations          *
 *   The terms and conditions of the End User License Agreement apply to       *
 *   the use of ADF, https://www.scm.com/license-terms/                        *
 *                                                                             *
 **********************  x86_64_linux_intel / intelmpi  ************************
 
 Licensed to: VU/FEW (+ SARA) / ALGEMEEN / Amsterdam / THE NETHERLANDS
 SCM User ID: u7668
  
 ADF development version  RunTime: Apr18-2019 22:12:26  Nodes: 1  Procs: 1

 Temporary files are created in /local/datastore0/tcst25/186819/kid_0.dYEbx9

 Nitrogen (TZ2P)



 ===========================
 A T T A C H E D   F I L E S
 ===========================
  
 CREATE - Data File:    TZ2P-N
                        Nitrogen (TZ2P)



 ===============================
 M O D E L   P A R A M E T E R S
 ===============================
  
 DENSITY FUNCTIONAL POTENTIAL (scf)
    LDA:                               VWN                                      
    Gradient Corrections:              Becke88 Perdew86                        == Not Default ==

 SPIN  (restricted / unrestr.)
    Molecule:                          Restricted                               

 OTHER ASPECTS
    Relativistic Corrections:          ---                                      

    Nuclear Charge Density Model:      Point Charge Nuclei                      
    Core Treatment:                    Frozen Orbital(s)                        

    Hyperfine or Zeeman Interaction:   ---                                      



 =====================================
 S Y M M E T R Y ,   E L E C T R O N S
 =====================================
  
 Symmetry: ATOM

 Irreducible Representations, including subspecies
 -------------------------------------------------
 S
 P:x  P:y  P:z
 D:z2  D:x2-y2  D:xy  D:xz  D:yz
 F:z3  F:z  F:xyz  F:z2x  F:z2y  F:x  F:y


 Configuration of Valence Electrons
 ==================================

          Occupation Numbers
          -------------------------------------------------
 S        2*2
 P        3
 D        0
 F        0
          -------------------------------------------------

 Total:   7

 Net Charge: 0 (Nuclei minus Electrons)

 Preset values for MO occupations will be applied through SCF cycle no. 1000000
 Thereafter, the program will assign electrons to MOs that are spatially
 similar to the occupied MOs in a "reference" cycle ("KeepOrbitals").
 The reference cycle is always the PREVIOUS cycle: it will evolve with
 the SCF procedure.



 ================================
 (Slater-type)  F U N C T I O N S  ***  (Basis and Fit)  ***
 ================================
  

 Atom Type    1  (N)
 ==============

 Valence Basis Sets:  10
 -----------------------
   1 S    8.740000
   1 S    5.900000
   2 S    5.150000
   2 S    2.500000
   2 S    1.500000
   2 P    3.680000
   2 P    1.880000
   2 P    1.000000
   3 D    2.200000
   4 F    3.300000


 BAS: List of all Elementary Cartesian Basis Functions
 =====================================================

 The numbering in the list below (to the right of the function characteristics) is referred
 to in print-outs of MO eigenvectors and Mulliken populations in the BAS representation
 (as contrasted to the SFO representation).

 Notes:
 1. The functions are characterized by a polynomial prefactor (powers of x,y,z and r) and
    an exponential decay factor alpha.
 2. Since the basis sets are specific for an atom TYPE, the individual functions occur on
    all atoms of that type.
 3. The word 'Core' in the left margin signals that it is a Core Function (CF) : not a
    degree of freedom in the valence set, but only used to ensure orthogonalization of
    the other valence basis functions on the frozen Core Orbitals.


 (power of) X  Y  Z  R     Alpha  on Atom
            ==========     =====     ==========

 N                                    1
                                  ---------------------------------------------------------------------------
            0  0  0  0     8.740      1
            0  0  0  0     5.900      2
            0  0  0  1     5.150      3
            0  0  0  1     2.500      4
            0  0  0  1     1.500      5
            1  0  0  0     3.680      6
            0  1  0  0     3.680      7
            0  0  1  0     3.680      8
            1  0  0  0     1.880      9
            0  1  0  0     1.880     10
            0  0  1  0     1.880     11
            1  0  0  0     1.000     12
            0  1  0  0     1.000     13
            0  0  1  0     1.000     14
            2  0  0  0     2.200     15
            1  1  0  0     2.200     16
            1  0  1  0     2.200     17
            0  2  0  0     2.200     18
            0  1  1  0     2.200     19
            0  0  2  0     2.200     20
            3  0  0  0     3.300     21
            2  1  0  0     3.300     22
            2  0  1  0     3.300     23
            1  2  0  0     3.300     24
            1  1  1  0     3.300     25
            1  0  2  0     3.300     26
            0  3  0  0     3.300     27
            0  2  1  0     3.300     28
            0  1  2  0     3.300     29
            0  0  3  0     3.300     30

 Total number of charge fitting functions (nprimf)        84
 Total number of Cartesian basis functions (naos)         30
 Total number of Cartesian core functions  (ncos)          0



 BAS: List of all Elementary Cartesian Basis Functions
 =====================================================

 The numbering in the list below (to the right of the function characteristics) is referred
 to in print-outs of MO eigenvectors and Mulliken populations in the BAS representation
 (as contrasted to the SFO representation).

 Notes:
 1. The functions are characterized by a polynomial prefactor (powers of x,y,z and r) and
    an exponential decay factor alpha.
 2. Since the basis sets are specific for an atom TYPE, the individual functions occur on
    all atoms of that type.
 3. The word 'Core' in the left margin signals that it is a Core Function (CF) : not a
    degree of freedom in the valence set, but only used to ensure orthogonalization of
    the other valence basis functions on the frozen Core Orbitals.


 (power of) X  Y  Z  R     Alpha  on Atom
            ==========     =====     ==========

 N                                    1
                                  ---------------------------------------------------------------------------
            0  0  0  0     8.740      1
            0  0  0  0     5.900      2
            0  0  0  1     5.150      3
            0  0  0  1     2.500      4
            0  0  0  1     1.500      5
            1  0  0  0     3.680      6
            0  1  0  0     3.680      7
            0  0  1  0     3.680      8
            1  0  0  0     1.880      9
            0  1  0  0     1.880     10
            0  0  1  0     1.880     11
            1  0  0  0     1.000     12
            0  1  0  0     1.000     13
            0  0  1  0     1.000     14
            2  0  0  0     2.200     15
            1  1  0  0     2.200     16
            1  0  1  0     2.200     17
            0  2  0  0     2.200     18
            0  1  1  0     2.200     19
            0  0  2  0     2.200     20
            3  0  0  0     3.300     21
            2  1  0  0     3.300     22
            2  0  1  0     3.300     23
            1  2  0  0     3.300     24
            1  1  1  0     3.300     25
            1  0  2  0     3.300     26
            0  3  0  0     3.300     27
            0  2  1  0     3.300     28
            0  1  2  0     3.300     29
            0  0  3  0     3.300     30
1
 ***************************************************************************************************



                                              ***********************
                                              *  T E C H N I C A L  *
                                              ***********************
  



 =============================================================
 P A R A L L E L I Z A T I O N  and  V E C T O R I Z A T I O N
 =============================================================
  
 Nr of parallel processes:                                1
 Maximum vector length in NumInt loops:                 128

 IO buffersize (Mb):                                     64.000000



 =====================
 S C F   U P D A T E S
 =====================
  
 Max. nr. of cycles:                               300
 Convergence criterion:                              0.0000000100
   secondary criterion:                              0.0000000100

 Mix parameter (when DIIS does not apply):           0.2000000000
 Special mix parameter for the first cycle:          1.0000000000
 Mixed ADIIS+DIIS will be used
    Max number of expansion vectors:                10
    Pure ADIIS when Max([F,P]) is above              0.1000000000
    Pure DIIS when Max([F,P]) is below               0.0010000000
 Automatic ElectronSmearing (in case of problematic SCF convergence) disabled



 =================
 P R E C I S I O N  ***  (General: NumInt, NeglectFunctionTails, ...)  ***
 =================
  

 NumInt:           Target precision:                12.0000000000
 -------           Initial precision:               10.0000000000
                   Min. precision (optimization):   10.0000000000

 Neglect Functions:          Basis functions:        0.1000000000E-13
 ------------------          Fit functions:          0.1000000000E-13



 ===========================
 L I N E A R   S C A L I N G
 ===========================
  

 Cut-off radii density fit:                        0.1000000000E-97
 Overlap cut-off criterion AO matrix elements:     0.1000000000E-97
 Cut-offs for Coulomb potential and fitted density:0.1000000000E-97
 Cut-off criterion for Coulomb multipole terms:    0.1000000000E-97
 Progressive Convergence parameter:                 0.000000000    
1
 ***************************************************************************************************



                                            ***************************
                                            *  C O M P U T A T I O N  *
                                            ***************************
  

 Number of elements of the density matrix on this node (used, total):       465       465



 ===========================================
 Numerical Integration : Fuzzy Cells (Becke)
 ===========================================
  
 Becke grid quality: VERYGOOD       
  
 Lebedev angular grid order:             min:  13 max:  41
 Nr. of radial points:                   min:  72 max:  72

 Total nr. of points:         72
 Nr. of blocks:                1
 Block length:                72
 Nr. of dummy points:          0


 Test of Precision of the Numerical Integration Grid
 ===================================================

 Integral of the Total Core Density:                   0.00000000000000



 ========================
 Density Fitting (zlmFit)
 ========================
  
 ZlmFit Fit Quality: VERYGOOD       
  
 Max L-expansion:                        min:   0 max:   0
 Nr. of radial interpolation points:     min: 160 max: 160



 =====
 S C F  ***  ScaSCF  ***
 =====
  

 CYCLE    1
 SCF Error: norm([F,P])=      0.000000000000, max([F,P])=      0.000000000000
 orbitals (Q,E):
 ---------------
 S :1...5            ( 2.00   -24.4993)  ( 2.00    -6.1004)  ( 0.00    -2.6599)  ( 0.00     0.7211)
                     ( 0.00    54.4424)
 P :1...3            ( 3.00    -6.1210)  ( 0.00    -2.6439)  ( 0.00    -1.4084)
 D :1...1            ( 0.00    -2.7133)
 F :1...1            ( 0.00    -0.3300)

 CYCLE    2
  SDIIS (wt  0.000):  1.0000 -0.0000
 A-DIIS (wt  1.000):  0.0000  1.0000
  DIIS coefficients:  0.0000  1.0000
 SCF Error: norm([F,P])=      6.451367365890, max([F,P])=      4.219703087224
 orbitals (Q,E):
 ---------------
 S :1...3            ( 2.00   -10.8287)  ( 2.00     0.0014)  ( 0.00     1.1966)
 P :1...2            ( 3.00     0.1843)  ( 0.00     0.9564)
 D :1...1            ( 0.00     1.8417)
 F :1...1            ( 0.00     4.7248)

 CYCLE    3
  SDIIS (wt  0.000):  0.2198  0.7802
 A-DIIS (wt  1.000):  0.2131  0.7869
  DIIS coefficients:  0.2131  0.7869
 SCF Error: norm([F,P])=      2.481517685351, max([F,P])=      1.954795594132
 orbitals (Q,E):
 ---------------
 S :1...3            ( 2.00   -15.1747)  ( 2.00    -1.2497)  ( 0.00     0.2017)
 P :1...2            ( 3.00    -0.8323)  ( 0.00     0.0719)
 D :1...1            ( 0.00     0.7940)
 F :1...1            ( 0.00     3.4887)

 CYCLE    4
  SDIIS (wt  0.000): -0.0612  0.1925  0.8687
 A-DIIS (wt  1.000):  0.0000  0.0259  0.9741
  DIIS coefficients:  0.0000  0.0259  0.9741
 SCF Error: norm([F,P])=      0.970371105527, max([F,P])=      0.641065486122
 orbitals (Q,E):
 ---------------
 S :1...3            ( 2.00   -13.4412)  ( 2.00    -0.4401)  ( 0.00     0.6963)
 P :1...2            ( 3.00    -0.0468)  ( 0.00     0.4437)
 D :1...1            ( 0.00     1.4306)
 F :1...1            ( 0.00     4.2280)

 CYCLE    5
  SDIIS (wt  0.000): -0.0222 -0.0718  0.4807  0.6133
 A-DIIS (wt  1.000):  0.0000  0.0000  0.4633  0.5367
  DIIS coefficients:  0.0000  0.0000  0.4633  0.5367
 SCF Error: norm([F,P])=      0.831034576935, max([F,P])=      0.578511378985
 orbitals (Q,E):
 ---------------
 S :1...3            ( 2.00   -14.1857)  ( 2.00    -0.7190)  ( 0.00     0.4998)
 P :1...2            ( 3.00    -0.2946)  ( 0.00     0.2748)
 D :1...1            ( 0.00     1.2103)
 F :1...1            ( 0.00     3.9682)

 CYCLE    6
  SDIIS (wt  0.696):  0.0027 -0.0052 -0.0171  0.0723  0.9473
 A-DIIS (wt  0.304):  0.0000  0.0000  0.0000  0.0000  1.0000
  DIIS coefficients:  0.0019 -0.0036 -0.0119  0.0503  0.9634
 SCF Error: norm([F,P])=      0.059655214985, max([F,P])=      0.031138717216
 orbitals (Q,E):
 ---------------
 S :1...3            ( 2.00   -14.1243)  ( 2.00    -0.6773)  ( 0.00     0.5219)
 P :1...2            ( 3.00    -0.2558)  ( 0.00     0.2921)
 D :1...1            ( 0.00     1.2456)
 F :1...1            ( 0.00     4.0096)

 CYCLE    7
  SDIIS (wt  0.824): -0.0002  0.0014  0.0138 -0.0266 -0.0370  1.0487
 A-DIIS (wt  0.176):  0.0000  0.0000  0.0000  0.0000  0.0360  0.9640
  DIIS coefficients: -0.0002  0.0011  0.0114 -0.0220 -0.0242  1.0338
 SCF Error: norm([F,P])=      0.027721651816, max([F,P])=      0.018404675135
 orbitals (Q,E):
 ---------------
 S :1...3            ( 2.00   -14.1511)  ( 2.00    -0.6888)  ( 0.00     0.5142)
 P :1...2            ( 3.00    -0.2669)  ( 0.00     0.2857)
 D :1...1            ( 0.00     1.2367)
 F :1...1            ( 0.00     3.9991)

 CYCLE    8
  SDIIS (wt  0.979): -0.0000  0.0002  0.0011 -0.0022 -0.0006  0.2099  0.7916
 A-DIIS (wt  0.021):  0.0000  0.0000  0.0000  0.0000  0.0000  0.0000  1.0000
  DIIS coefficients: -0.0000  0.0002  0.0011 -0.0021 -0.0006  0.2055  0.7960
 SCF Error: norm([F,P])=      0.004499232480, max([F,P])=      0.003081258258
 orbitals (Q,E):
 ---------------
 S :1...3            ( 2.00   -14.1473)  ( 2.00    -0.6873)  ( 0.00     0.5152)
 P :1...2            ( 3.00    -0.2655)  ( 0.00     0.2865)
 D :1...1            ( 0.00     1.2378)
 F :1...1            ( 0.00     4.0005)

 CYCLE    9
  SDIIS (wt  1.000):  0.0000 -0.0000 -0.0001  0.0001 -0.0002 -0.0094 -0.0232  1.0327
  DIIS coefficients:  0.0000 -0.0000 -0.0001  0.0001 -0.0002 -0.0094 -0.0232  1.0327
 SCF Error: norm([F,P])=      0.000019361449, max([F,P])=      0.000012105781
 orbitals (Q,E):
 ---------------
 S :1...3            ( 2.00   -14.1473)  ( 2.00    -0.6873)  ( 0.00     0.5152)
 P :1...2            ( 3.00    -0.2655)  ( 0.00     0.2865)
 D :1...1            ( 0.00     1.2378)
 F :1...1            ( 0.00     4.0005)

 CYCLE   10
  SDIIS (wt  1.000): -0.0000 -0.0000  0.0000  0.0000 -0.0001  0.0001  0.0232  0.9769
  DIIS coefficients: -0.0000 -0.0000  0.0000  0.0000 -0.0001  0.0001  0.0232  0.9769
 SCF Error: norm([F,P])=      0.000001838439, max([F,P])=      0.000001230955
 orbitals (Q,E):
 ---------------
 S :1...3            ( 2.00   -14.1473)  ( 2.00    -0.6873)  ( 0.00     0.5152)
 P :1...2            ( 3.00    -0.2655)  ( 0.00     0.2865)
 D :1...1            ( 0.00     1.2378)
 F :1...1            ( 0.00     4.0005)

 CYCLE   11
  SDIIS (wt  1.000): -0.0000 -0.0000 -0.0000 -0.0006 -0.0321  1.0328
  DIIS coefficients: -0.0000 -0.0000 -0.0000 -0.0006 -0.0321  1.0328
 SCF Error: norm([F,P])=      0.000000052960, max([F,P])=      0.000000032927
 orbitals (Q,E):
 ---------------
 S :1...3            ( 2.00   -14.1473)  ( 2.00    -0.6873)  ( 0.00     0.5152)
 P :1...2            ( 3.00    -0.2655)  ( 0.00     0.2865)
 D :1...1            ( 0.00     1.2378)
 F :1...1            ( 0.00     4.0005)

 CYCLE   12
  SDIIS (wt  1.000): -0.0000  0.0000 -0.0002  0.0076  0.9926
  DIIS coefficients: -0.0000  0.0000 -0.0002  0.0076  0.9926
 SCF Error: norm([F,P])=      0.000000000214, max([F,P])=      0.000000000118
 orbitals (Q,E):
 ---------------
 S :1...3            ( 2.00   -14.1473)  ( 2.00    -0.6873)  ( 0.00     0.5152)
 P :1...2            ( 3.00    -0.2655)  ( 0.00     0.2865)
 D :1...1            ( 0.00     1.2378)
 F :1...1            ( 0.00     4.0005)

 SCF CONVERGED

 CYCLE   13
1
 ***************************************************************************************************



                                                *******************
                                                *  R E S U L T S  *
                                                *******************
  
 *** Setting up for NEW gradients in Focky
 *** Using FIT density in Focky

 Orbital Energies, per Irrep and Spin:
 ======================================
                        Occup              E (au)              E (eV)       Diff (eV) with prev. cycle
                        -----      --------------------        ------       --------------------------
 S
               1        2.000     -0.14147275471391E+02      -384.967               8.94E-10
               2        2.000     -0.68732764310953E+00       -18.703               5.68E-10
               3        0.000      0.51515957710219E+00        14.018
               4        0.000      0.68959769444915E+01       187.649
               5        0.000      0.63979073432212E+02      1740.959
 P
               1        3.000     -0.26548379507191E+00        -7.224               5.44E-10
               2        0.000      0.28654429146964E+00         7.797
               3        0.000      0.32908032270942E+01        89.547
 D
               1        0.000      0.12378131244837E+01        33.683
 F
               1        0.000      0.40004783530592E+01       108.859


 Partially Occupied:
               1 P                -0.26548379507191E+00
  
 HOMO :        2 S                -0.68732764310953E+00
 LUMO :        2 P                 0.28654429146964E+00
  


 Orbital Energies, all Irreps
 ========================================

 Irrep        no.  (spin)   Occup              E (au)                E (eV)
 ---------------------------------------------------------------------------
 S             1             2.00       -0.14147275471391E+02      -384.9670
 S             2             2.00       -0.68732764310953E+00       -18.7031
 P             1             3.00       -0.26548379507191E+00        -7.2242
 P             2             0.00        0.28654429146964E+00         7.7973
 S             3             0.00        0.51515957710219E+00        14.0182
 D             1             0.00        0.12378131244837E+01        33.6826
 P             3             0.00        0.32908032270942E+01        89.5473
 F             1             0.00        0.40004783530592E+01       108.8586
 S             4             0.00        0.68959769444915E+01       187.6491
 S             5             0.00        0.63979073432212E+02      1740.9592


 All Electron Calculation, thus no Orbital Energies of the Core Orbitals are calculated



 =======================================
 M U L L I K E N   P O P U L A T I O N S
 =======================================
  
 The survey below gives for each atom:
 a) the total charge (Z minus electrons)
 b) the net spin polarization (nr of electrons spin-A minus spin-B)
 c) for each spin the atomic electron valence density (integrated) per L-value.

 Atom              Charge    Spin density          S         P         D         F
 ----              ------    ------------       ------    ------    ------    ------
 1 N              -0.0000                       4.0000    3.0000    0.0000    0.0000

 Populations of individual BAS functions
 ----------------------------------------
 1 N            0.5256  1.4646 -0.0480  1.1588  0.8990  0.1407  0.1407  0.1407  0.5661  0.5661
                0.5661  0.2932  0.2932  0.2932  0.0000  0.0000  0.0000  0.0000  0.0000  0.0000
                0.0000  0.0000  0.0000  0.0000  0.0000  0.0000  0.0000  0.0000  0.0000  0.0000

 Gross Charges per Atom (Z minus electrons)
 ==========================================
            -0.0000
 Net Total: -0.00000000



 =======================================================================
 Electrostatic potential at the Nuclei due to electrons and other nuclei
 =======================================================================
  
         Atom                  Potential
         ----                  ---------
     1)   N                  18.29008691
 
 
 ========================
 No memory problems found
 ========================
 
 Maximum number of active allocate calls:         447
 
 *******************************************************************************

                             A D F   E X I T
 NORMAL TERMINATION



 =================
 Timing Statistics
 =================
  
 Total Used :                     CPU=        0.48      System=        0.03     Elapsed=        0.52

 Calls  Section                     ( Mean, Percentage )
 ---------------------------------------------------------------------------------------------------
     3  ><      ................      0.00    0.00             0.00    0.00             0.00    0.15
     1  INIT    ................      0.01    1.86             0.01   46.87             0.03    4.99
     1  GEOMET  ................      0.01    1.24             0.00    9.38             0.01    1.62
     1  INPUTA  ................      0.00    0.21             0.00    3.13             0.00    0.29
     1  MAINSY  ................      0.00    0.62             0.00    9.37             0.01    1.15
     1  SYMFIT  ................      0.00    0.21             0.00    0.00             0.00    0.15
     1  CORORT  ................      0.00    0.00             0.00    0.00             0.00    0.05
     1  SYMORB  ................      0.00    0.00             0.00    3.13             0.00    0.13
     1  CLSMAT  ................      0.00    1.03             0.00    0.00             0.01    1.01
     1  ORTHON  ................      0.00    0.21             0.00    0.00             0.00    0.28
     1  GENPT   ................      0.01    2.89             0.00    3.13             0.01    2.85
     1  PTBAS   ................      0.00    0.41             0.00    3.13             0.00    0.67
    13  FOCKY   ................      0.03   75.83             0.00   12.50             0.03   71.56
    13  FOCKTR  ................      0.00    2.48             0.00    3.13             0.00    2.14
    13  SDIIS   ................      0.00    4.13             0.00    0.00             0.00    4.20
     1  COREPS  ................      0.02    4.34             0.00    0.00             0.02    4.08
     1  POPAN   ................      0.00    0.83             0.00    3.13             0.01    1.02
     1  DEBYE   ................      0.00    0.21             0.00    0.00             0.00    0.11
     1  EXIT PROCEDURE .........      0.02    3.51             0.00    3.13             0.02    3.56


 Currently Open Files (EXIT00)
 ====================

 Unit    Access Format  Status   Type       Ident (file)
 -------------------------------------------------------
   3      SEQ    FORM   TRANSP  NORMAL      LOGFILE
                                          ( logfile )


 Buffered I/O statistics
 =======================
 Memory available:                     67108864
 Number of records fitting in memory:     16131
 Input :   0.1% of                        27821  *4k bytes
 Output:  13.6% of                         1374  *4k bytes
 Records from serial files evicted:           0
                    others evicted:           0
 Hash table lookups:      71921 with          0 conflicts (  0.00%)

 ***************************************************************************************************
 (LOGFILE)
 <Apr18-2019> <22:12:25>  ADF development version  RunTime: Apr18-2019 22:12:25  Nodes: 1  Procs: 1
 <Apr18-2019> <22:12:25>  Hydrogen (TZ2P)
 <Apr18-2019> <22:12:25>  RunType   : CREATE
 <Apr18-2019> <22:12:25>  Net Charge: 0 (Nuclei minus Electrons)
 <Apr18-2019> <22:12:25>  Symmetry  : ATOM
  Coordinates
    Atom         X           Y           Z   (Angstrom)
    1.H         0.000000    0.000000    0.000000
 <Apr18-2019> <22:12:25>  >>>> CORORT
 <Apr18-2019> <22:12:25>  >>>> CLSMAT
 <Apr18-2019> <22:12:25>  >>>> ORTHON
 <Apr18-2019> <22:12:25>  >>>> GENPT
 <Apr18-2019> <22:12:25>  Block Length=  64
 <Apr18-2019> <22:12:25>  >>>> PTBAS
 <Apr18-2019> <22:12:25>  >>>> CYCLE
 <Apr18-2019> <22:12:25>              |Error|         MaxErr       Wt(A-DIIS)
 <Apr18-2019> <22:12:25>      1      0.00000000      0.00000000
 <Apr18-2019> <22:12:25>      2      0.03052616      0.02968253
 <Apr18-2019> <22:12:25>      3      0.00718306      0.00671215    100.0
 <Apr18-2019> <22:12:25>      4      0.00117509      0.00114306      0.1
 <Apr18-2019> <22:12:25>      5      0.00002753      0.00002354      0.0
 <Apr18-2019> <22:12:25>      6      0.00000151      0.00000129      0.0
 <Apr18-2019> <22:12:25>      7      0.00000000      0.00000000      0.0
 <Apr18-2019> <22:12:25>  SCF converged
 <Apr18-2019> <22:12:25>      8      0.00000000      0.00000000      0.0
 <Apr18-2019> <22:12:25>  >>>> POPAN
 <Apr18-2019> <22:12:25>  >>>> DEBYE
 <Apr18-2019> <22:12:25>  NORMAL TERMINATION
 <Apr18-2019> <22:12:25>  END
 <Apr18-2019> <22:12:25>  ADF development version  RunTime: Apr18-2019 22:12:25  Nodes: 1  Procs: 1
 <Apr18-2019> <22:12:25>  Boron (TZ2P)
 <Apr18-2019> <22:12:25>  RunType   : CREATE
 <Apr18-2019> <22:12:25>  Net Charge: 0 (Nuclei minus Electrons)
 <Apr18-2019> <22:12:25>  Symmetry  : ATOM
  Coordinates
    Atom         X           Y           Z   (Angstrom)
    1.B         0.000000    0.000000    0.000000
 <Apr18-2019> <22:12:25>  >>>> CORORT
 <Apr18-2019> <22:12:25>  >>>> CLSMAT
 <Apr18-2019> <22:12:25>  >>>> ORTHON
 <Apr18-2019> <22:12:25>  >>>> GENPT
 <Apr18-2019> <22:12:25>  Block Length=  76
 <Apr18-2019> <22:12:25>  >>>> PTBAS
 <Apr18-2019> <22:12:25>  >>>> CYCLE
 <Apr18-2019> <22:12:25>              |Error|         MaxErr       Wt(A-DIIS)
 <Apr18-2019> <22:12:25>      1      0.00000000      0.00000000
[...]
    9.H         2.021098   -0.221489   -1.177307
   10.H         0.534871   -0.991288   -1.876736
   11.H         1.529663   -1.848603   -0.624740
   12.H         0.734900    1.711445   -0.534840
   13.H        -0.689171    1.525764    0.529882
   14.H        -0.783554    0.973724   -1.196048
   15.H        -1.361313   -0.669830    1.273400
   16.H        -1.433863   -1.278461   -0.433373
   17.H        -0.400297   -2.103105    0.809011
 <Apr18-2019> <22:12:28>  >>>> CORORT
 <Apr18-2019> <22:12:28>  >>>> CLSMAT
 <Apr18-2019> <22:12:28>  >>>> ORTHON
 <Apr18-2019> <22:12:28>  >>>> GENPT
 <Apr18-2019> <22:12:28>  Block Length= 128
 <Apr18-2019> <22:12:28>  >>>> PTBAS
 <Apr18-2019> <22:12:28>  >>>> CYCLE
 <Apr18-2019> <22:12:30>              |Error|         MaxErr       Wt(A-DIIS)
 <Apr18-2019> <22:12:30>      1      5.82609764      0.78789559
 <Apr18-2019> <22:12:31>      2      1.12188122      0.10375649    100.0
 <Apr18-2019> <22:12:32>      3      0.54617709      0.04888516    100.0
 <Apr18-2019> <22:12:33>      4      0.87355836      0.08264034    100.0
 <Apr18-2019> <22:12:35>      5      0.11907833      0.01143616     10.5
 <Apr18-2019> <22:12:36>      6      0.07503648      0.01301618     10.5
 <Apr18-2019> <22:12:37>      7      0.01310227      0.00259682      1.6
 <Apr18-2019> <22:12:38>      8      0.00232048      0.00031119      0.0
 <Apr18-2019> <22:12:40>      9      0.00149416      0.00016269      0.0
 <Apr18-2019> <22:12:41>     10      0.00027521      0.00003249      0.0
 <Apr18-2019> <22:12:42>     11      0.00010413      0.00001129      0.0
 <Apr18-2019> <22:12:43>     12      0.00003917      0.00000435      0.0
 <Apr18-2019> <22:12:45>     13      0.00000911      0.00000094      0.0
 <Apr18-2019> <22:12:45>  SCF converged
 <Apr18-2019> <22:12:46>     14      0.00000174      0.00000021      0.0
 <Apr18-2019> <22:12:46>  >>>> TOTEN
 <Apr18-2019> <22:12:48>  >>>> POPAN
 <Apr18-2019> <22:12:48>  >>>> DEBYE
 <Apr18-2019> <22:12:48>  >>>> ENGRAD
 <Apr18-2019> <22:12:50>  current energy                               -3.06864074 Hartree
 <Apr18-2019> <22:12:50>  energy change                      -3.06864074     0.00010000    F
 <Apr18-2019> <22:12:50>  constrained gradient max            0.00993122     0.00010000    F
 <Apr18-2019> <22:12:50>  constrained gradient rms            0.00303829     0.00006667    F
 <Apr18-2019> <22:12:50>  gradient max                        0.00993122
 <Apr18-2019> <22:12:50>  gradient rms                        0.00303829
 <Apr18-2019> <22:12:50>  cart. step max                      0.03043904     0.01000000    F
 <Apr18-2019> <22:12:50>  cart. step rms                      0.01044950     0.00666667    F
  Coordinates in Geometry Cycle 2
    Atom         X           Y           Z   (Angstrom)
    1.C         1.155802   -0.871119   -0.972223
    2.N         0.368658   -0.257675    0.134253
    3.B         1.306753   -0.084902    1.446553
    4.H         0.605013    0.405646    2.319905
    5.H         1.700243   -1.203253    1.747931
    6.H         2.227131    0.654445    1.127085
    7.C        -0.136220    1.072741   -0.307149
    8.C        -0.791375   -1.137267    0.452441
    9.H         2.015549   -0.217921   -1.193998
   10.H         0.528553   -0.987920   -1.875129
   11.H         1.520961   -1.856021   -0.638433
   12.H         0.727768    1.713497   -0.547754
   13.H        -0.707098    1.523498    0.520952
   14.H        -0.784212    0.965407   -1.196622
   15.H        -1.373007   -0.670562    1.263946
   16.H        -1.431075   -1.272420   -0.439144
   17.H        -0.407966   -2.113483    0.791446
 <Apr18-2019> <22:12:50>  >>>> CORORT
 <Apr18-2019> <22:12:50>  >>>> CLSMAT
 <Apr18-2019> <22:12:50>  >>>> ORTHON
 <Apr18-2019> <22:12:50>  >>>> GENPT
 <Apr18-2019> <22:12:50>  Block Length= 128
 <Apr18-2019> <22:12:50>  >>>> PTBAS
 <Apr18-2019> <22:12:50>  >>>> CYCLE
 <Apr18-2019> <22:12:52>              |Error|         MaxErr       Wt(A-DIIS)
 <Apr18-2019> <22:12:52>      1      0.04446563      0.00680724
 <Apr18-2019> <22:12:53>      2      0.01564387      0.00165290    100.0
 <Apr18-2019> <22:12:54>      3      0.02881784      0.00358382    100.0
 <Apr18-2019> <22:12:56>      4      0.00492309      0.00052310      0.0
 <Apr18-2019> <22:12:57>      5      0.00097670      0.00009075      0.0
 <Apr18-2019> <22:12:58>      6      0.00023477      0.00002772      0.0
 <Apr18-2019> <22:12:59>      7      0.00006228      0.00000604      0.0
 <Apr18-2019> <22:13:01>      8      0.00001239      0.00000115      0.0
 <Apr18-2019> <22:13:02>      9      0.00000488      0.00000041      0.0
 <Apr18-2019> <22:13:02>  SCF converged
 <Apr18-2019> <22:13:03>     10      0.00000060      0.00000008      0.0
 <Apr18-2019> <22:13:03>  >>>> TOTEN
 <Apr18-2019> <22:13:05>  >>>> POPAN
 <Apr18-2019> <22:13:05>  >>>> DEBYE
 <Apr18-2019> <22:13:05>  >>>> ENGRAD
 <Apr18-2019> <22:13:07>  current energy                               -3.06914415 Hartree
 <Apr18-2019> <22:13:07>  energy change                      -0.00050341     0.00010000    F
 <Apr18-2019> <22:13:07>  constrained gradient max            0.00706237     0.00010000    F
 <Apr18-2019> <22:13:07>  constrained gradient rms            0.00166513     0.00006667    F
 <Apr18-2019> <22:13:07>  gradient max                        0.00706237
 <Apr18-2019> <22:13:07>  gradient rms                        0.00166513
 <Apr18-2019> <22:13:07>  cart. step max                      0.01414649     0.01000000    F
 <Apr18-2019> <22:13:07>  cart. step rms                      0.00510105     0.00666667    T
  Coordinates in Geometry Cycle 3
    Atom         X           Y           Z   (Angstrom)
    1.C         1.156543   -0.871479   -0.974466
    2.N         0.371112   -0.257527    0.137648
    3.B         1.314023   -0.083096    1.456338
    4.H         0.612986    0.415408    2.325999
    5.H         1.701042   -1.202550    1.762077
    6.H         2.238018    0.650525    1.133061
    7.C        -0.138119    1.074009   -0.307937
    8.C        -0.792847   -1.139273    0.451942
    9.H         2.013923   -0.216904   -1.201795
   10.H         0.522910   -0.985669   -1.872995
   11.H         1.519273   -1.858851   -0.644917
   12.H         0.723890    1.716649   -0.550945
   13.H        -0.716275    1.522781    0.516387
   14.H        -0.782633    0.958685   -1.198550
   15.H        -1.377036   -0.674191    1.262719
   16.H        -1.429308   -1.266230   -0.442936
   17.H        -0.412022   -2.119595    0.782430
 <Apr18-2019> <22:13:07>  >>>> CORORT
 <Apr18-2019> <22:13:07>  >>>> CLSMAT
 <Apr18-2019> <22:13:07>  >>>> ORTHON
 <Apr18-2019> <22:13:07>  >>>> GENPT
 <Apr18-2019> <22:13:07>  Block Length= 128
 <Apr18-2019> <22:13:07>  >>>> PTBAS
 <Apr18-2019> <22:13:08>  >>>> CYCLE
 <Apr18-2019> <22:13:09>              |Error|         MaxErr       Wt(A-DIIS)
 <Apr18-2019> <22:13:09>      1      0.02681014      0.00511040
 <Apr18-2019> <22:13:10>      2      0.00889979      0.00099888    100.0
 <Apr18-2019> <22:13:12>      3      0.01814258      0.00257694    100.0
 <Apr18-2019> <22:13:13>      4      0.00379259      0.00039480      0.0
 <Apr18-2019> <22:13:14>      5      0.00043119      0.00004072      0.0
 <Apr18-2019> <22:13:15>      6      0.00011274      0.00001480      0.0
 <Apr18-2019> <22:13:17>      7      0.00002551      0.00000231      0.0
 <Apr18-2019> <22:13:18>      8      0.00000629      0.00000062      0.0
 <Apr18-2019> <22:13:18>  SCF converged
 <Apr18-2019> <22:13:19>      9      0.00000222      0.00000018      0.0
 <Apr18-2019> <22:13:19>  >>>> TOTEN
 <Apr18-2019> <22:13:21>  >>>> POPAN
 <Apr18-2019> <22:13:21>  >>>> DEBYE
 <Apr18-2019> <22:13:21>  >>>> ENGRAD
 <Apr18-2019> <22:13:23>  current energy                               -3.06924014 Hartree
 <Apr18-2019> <22:13:23>  energy change                      -0.00009599     0.00010000    T
 <Apr18-2019> <22:13:23>  constrained gradient max            0.00350524     0.00010000    F
 <Apr18-2019> <22:13:23>  constrained gradient rms            0.00074609     0.00006667    F
 <Apr18-2019> <22:13:23>  gradient max                        0.00350524
 <Apr18-2019> <22:13:23>  gradient rms                        0.00074609
 <Apr18-2019> <22:13:23>  cart. step max                      0.00389556     0.01000000    T
 <Apr18-2019> <22:13:23>  cart. step rms                      0.00145127     0.00666667    T
  Coordinates in Geometry Cycle 4
    Atom         X           Y           Z   (Angstrom)
    1.C         1.156551   -0.871715   -0.975299
    2.N         0.370888   -0.257618    0.137376
    3.B         1.316150   -0.082433    1.459308
    4.H         0.613744    0.419303    2.325903
    5.H         1.699111   -1.203170    1.764897
    6.H         2.240632    0.648744    1.132099
    7.C        -0.138855    1.074397   -0.308532
    8.C        -0.793435   -1.139902    0.451658
    9.H         2.013290   -0.216517   -1.202637
   10.H         0.522182   -0.986679   -1.873219
   11.H         1.520276   -1.858369   -0.644923
   12.H         0.723458    1.717550   -0.548778
   13.H        -0.718532    1.521758    0.515298
   14.H        -0.781326    0.958685   -1.200605
   15.H        -1.375447   -0.676307    1.264770
   16.H        -1.431221   -1.264293   -0.442668
   17.H        -0.411987   -2.120743    0.779417
 <Apr18-2019> <22:13:23>  >>>> CORORT
 <Apr18-2019> <22:13:23>  >>>> CLSMAT
 <Apr18-2019> <22:13:23>  >>>> ORTHON
 <Apr18-2019> <22:13:23>  >>>> GENPT
 <Apr18-2019> <22:13:23>  Block Length= 128
 <Apr18-2019> <22:13:23>  >>>> PTBAS
 <Apr18-2019> <22:13:24>  >>>> CYCLE
 <Apr18-2019> <22:13:25>              |Error|         MaxErr       Wt(A-DIIS)
 <Apr18-2019> <22:13:25>      1      0.00941745      0.00268297
 <Apr18-2019> <22:13:26>      2      0.00217126      0.00034355    100.0
 <Apr18-2019> <22:13:28>      3      0.00467295      0.00078685    100.0
 <Apr18-2019> <22:13:29>      4      0.00117996      0.00019385      0.0
 <Apr18-2019> <22:13:30>      5      0.00004293      0.00000508      0.0
 <Apr18-2019> <22:13:31>      6      0.00001852      0.00000239      0.0
 <Apr18-2019> <22:13:33>      7      0.00000360      0.00000043      0.0
 <Apr18-2019> <22:13:33>  SCF converged
 <Apr18-2019> <22:13:34>      8      0.00000130      0.00000013      0.0
 <Apr18-2019> <22:13:34>  >>>> TOTEN
 <Apr18-2019> <22:13:36>  >>>> POPAN
 <Apr18-2019> <22:13:36>  >>>> DEBYE
 <Apr18-2019> <22:13:36>  >>>> ENGRAD
 <Apr18-2019> <22:13:38>  current energy                               -3.06925567 Hartree
 <Apr18-2019> <22:13:38>  energy change                      -0.00001553     0.00010000    T
 <Apr18-2019> <22:13:38>  constrained gradient max            0.00171391     0.00010000    F
 <Apr18-2019> <22:13:38>  constrained gradient rms            0.00041426     0.00006667    F
 <Apr18-2019> <22:13:38>  gradient max                        0.00171391
 <Apr18-2019> <22:13:38>  gradient rms                        0.00041426
 <Apr18-2019> <22:13:38>  cart. step max                      0.00303065     0.01000000    T
 <Apr18-2019> <22:13:38>  cart. step rms                      0.00127081     0.00666667    T
  Coordinates in Geometry Cycle 5
    Atom         X           Y           Z   (Angstrom)
    1.C         1.156440   -0.871832   -0.975539
    2.N         0.369966   -0.257792    0.136121
    3.B         1.316851   -0.082123    1.460340
    4.H         0.613431    0.421330    2.324824
    5.H         1.697185   -1.203658    1.765436
    6.H         2.241343    0.647532    1.130523
    7.C        -0.139066    1.074425   -0.308914
    8.C        -0.793603   -1.140030    0.451626
    9.H         2.012721   -0.216046   -1.202887
   10.H         0.522667   -0.988678   -1.873676
   11.H         1.521978   -1.857375   -0.643759
   12.H         0.723705    1.718287   -0.545747
   13.H        -0.719989    1.520720    0.514577
   14.H        -0.779694    0.960152   -1.202558
   15.H        -1.373024   -0.677968    1.267488
   16.H        -1.433843   -1.262962   -0.441182
   17.H        -0.411586   -2.121293    0.777391
 <Apr18-2019> <22:13:38>  >>>> CORORT
 <Apr18-2019> <22:13:38>  >>>> CLSMAT
 <Apr18-2019> <22:13:38>  >>>> ORTHON
 <Apr18-2019> <22:13:38>  >>>> GENPT
 <Apr18-2019> <22:13:38>  Block Length= 128
 <Apr18-2019> <22:13:38>  >>>> PTBAS
 <Apr18-2019> <22:13:39>  >>>> CYCLE
 <Apr18-2019> <22:13:40>              |Error|         MaxErr       Wt(A-DIIS)
 <Apr18-2019> <22:13:40>      1      0.00716904      0.00193508
 <Apr18-2019> <22:13:41>      2      0.00089899      0.00012031    100.0
 <Apr18-2019> <22:13:42>      3      0.00151443      0.00024018    100.0
 <Apr18-2019> <22:13:44>      4      0.00020513      0.00003063      0.0
 <Apr18-2019> <22:13:45>      5      0.00007263      0.00000756      0.0
 <Apr18-2019> <22:13:46>      6      0.00001812      0.00000269      0.0
 <Apr18-2019> <22:13:48>      7      0.00000570      0.00000071      0.0
 <Apr18-2019> <22:13:48>  SCF converged
 <Apr18-2019> <22:13:49>      8      0.00000140      0.00000012      0.0
 <Apr18-2019> <22:13:49>  >>>> TOTEN
 <Apr18-2019> <22:13:51>  >>>> POPAN
 <Apr18-2019> <22:13:51>  >>>> DEBYE
 <Apr18-2019> <22:13:51>  >>>> ENGRAD
 <Apr18-2019> <22:13:53>  current energy                               -3.06926061 Hartree
 <Apr18-2019> <22:13:53>  energy change                      -0.00000493     0.00010000    T
 <Apr18-2019> <22:13:53>  constrained gradient max            0.00055346     0.00010000    F
 <Apr18-2019> <22:13:53>  constrained gradient rms            0.00015090     0.00006667    F
 <Apr18-2019> <22:13:53>  gradient max                        0.00055346
 <Apr18-2019> <22:13:53>  gradient rms                        0.00015090
 <Apr18-2019> <22:13:53>  cart. step max                      0.00114314     0.01000000    T
 <Apr18-2019> <22:13:53>  cart. step rms                      0.00052362     0.00666667    T
  Coordinates in Geometry Cycle 6
    Atom         X           Y           Z   (Angstrom)
    1.C         1.156324   -0.871820   -0.975393
    2.N         0.369650   -0.257841    0.135666
    3.B         1.316930   -0.082079    1.460421
    4.H         0.613613    0.421850    2.324572
    5.H         1.696699   -1.203657    1.765748
    6.H         2.241626    0.647040    1.130372
    7.C        -0.138996    1.074230   -0.308947
    8.C        -0.793487   -1.139857    0.451621
    9.H         2.012123   -0.215582   -1.203437
   10.H         0.522746   -0.989753   -1.873577
   11.H         1.522687   -1.856954   -0.643228
   12.H         0.723811    1.718498   -0.544617
   13.H        -0.720968    1.520109    0.514079
   14.H        -0.778810    0.960636   -1.203301
   15.H        -1.372133   -0.678360    1.268367
   16.H        -1.434792   -1.262204   -0.440532
   17.H        -0.411541   -2.121565    0.776248
 <Apr18-2019> <22:13:53>  >>>> CORORT
 <Apr18-2019> <22:13:53>  >>>> CLSMAT
 <Apr18-2019> <22:13:53>  >>>> ORTHON
 <Apr18-2019> <22:13:53>  >>>> GENPT
 <Apr18-2019> <22:13:53>  Block Length= 128
 <Apr18-2019> <22:13:53>  >>>> PTBAS
 <Apr18-2019> <22:13:53>  >>>> CYCLE
 <Apr18-2019> <22:13:55>              |Error|         MaxErr       Wt(A-DIIS)
 <Apr18-2019> <22:13:55>      1      0.00281656      0.00065448
 <Apr18-2019> <22:13:56>      2      0.00032056      0.00004870    100.0
 <Apr18-2019> <22:13:57>      3      0.00018486      0.00003153    100.0
 <Apr18-2019> <22:13:59>      4      0.00019605      0.00002355      0.0
 <Apr18-2019> <22:14:00>      5      0.00002023      0.00000207      0.0
 <Apr18-2019> <22:14:01>      6      0.00000546      0.00000049      0.0
 <Apr18-2019> <22:14:01>  SCF converged
 <Apr18-2019> <22:14:02>      7      0.00000185      0.00000017      0.0
 <Apr18-2019> <22:14:02>  >>>> TOTEN
 <Apr18-2019> <22:14:04>  >>>> POPAN
 <Apr18-2019> <22:14:04>  >>>> DEBYE
 <Apr18-2019> <22:14:04>  >>>> ENGRAD
 <Apr18-2019> <22:14:06>  current energy                               -3.06926075 Hartree
 <Apr18-2019> <22:14:06>  energy change                      -0.00000015     0.00010000    T
 <Apr18-2019> <22:14:06>  constrained gradient max            0.00007644     0.00010000    T
 <Apr18-2019> <22:14:06>  constrained gradient rms            0.00002586     0.00006667    T
 <Apr18-2019> <22:14:06>  gradient max                        0.00007644
 <Apr18-2019> <22:14:06>  gradient rms                        0.00002586
 <Apr18-2019> <22:14:06>  cart. step max                      0.00049129     0.01000000    T
 <Apr18-2019> <22:14:06>  cart. step rms                      0.00022914     0.00666667    T
 <Apr18-2019> <22:14:06>  GEOMETRY CONVERGED
 <Apr18-2019> <22:14:06>  Calculating Energy Terms for Final Geometry
  Coordinates in Geometry Cycle 6
    Atom         X           Y           Z   (Angstrom)
    1.C         1.156324   -0.871820   -0.975393
    2.N         0.369650   -0.257841    0.135666
    3.B         1.316930   -0.082079    1.460421
    4.H         0.613613    0.421850    2.324572
    5.H         1.696699   -1.203657    1.765748
    6.H         2.241626    0.647040    1.130372
    7.C        -0.138996    1.074230   -0.308947
    8.C        -0.793487   -1.139857    0.451621
    9.H         2.012123   -0.215582   -1.203437
   10.H         0.522746   -0.989753   -1.873577
   11.H         1.522687   -1.856954   -0.643228
   12.H         0.723811    1.718498   -0.544617
   13.H        -0.720968    1.520109    0.514079
   14.H        -0.778810    0.960636   -1.203301
   15.H        -1.372133   -0.678360    1.268367
   16.H        -1.434792   -1.262204   -0.440532
   17.H        -0.411541   -2.121565    0.776248
 <Apr18-2019> <22:14:06>  >>>> CORORT
 <Apr18-2019> <22:14:06>  >>>> CLSMAT
 <Apr18-2019> <22:14:06>  >>>> ORTHON
 <Apr18-2019> <22:14:06>  >>>> GENPT
 <Apr18-2019> <22:14:06>  Block Length= 128
 <Apr18-2019> <22:14:07>  >>>> PTBAS
 <Apr18-2019> <22:14:07>  >>>> CYCLE
 <Apr18-2019> <22:14:08>              |Error|         MaxErr       Wt(A-DIIS)
 <Apr18-2019> <22:14:08>      1      0.00000035      0.00000008
 <Apr18-2019> <22:14:10>      2      0.00000054      0.00000012    100.0
 <Apr18-2019> <22:14:10>  SCF converged
 <Apr18-2019> <22:14:11>      3      0.00000025      0.00000006    100.0
 <Apr18-2019> <22:14:11>  WARNING: partially occupied orbitals
 <Apr18-2019> <22:14:11>   Solutions with partially occupied orbitals may not be
 <Apr18-2019> <22:14:11>   lowest in energy. You might consider lowering the
 <Apr18-2019> <22:14:11>   symmetry in the input and explicitly specifying integer
 <Apr18-2019> <22:14:11>   occupations. In that case always check that you obtain
 <Apr18-2019> <22:14:11>   an aufbau solution.
 <Apr18-2019> <22:14:12>  >>>> TOTEN
 <Apr18-2019> <22:14:15>  >>>> POPAN
 <Apr18-2019> <22:14:15>  >>>> DEBYE
 <Apr18-2019> <22:14:15>  >>>> AMETS
 <Apr18-2019> <22:14:15>  >>>> POPUL
 <Apr18-2019> <22:14:15>   Bond Energy          -3.06926075 a.u.
 <Apr18-2019> <22:14:15>   Bond Energy         -83.51883454 eV
 <Apr18-2019> <22:14:15>   Bond Energy       -1925.99       kcal/mol
 <Apr18-2019> <22:14:15>  >>>> ENHESS
 <Apr18-2019> <22:14:16>  === NUCLEUS:     1
 <Apr18-2019> <22:14:49>  === NUCLEUS:     2
 <Apr18-2019> <22:15:20>  === NUCLEUS:     3
 <Apr18-2019> <22:15:52>  === NUCLEUS:     4
 <Apr18-2019> <22:16:20>  === NUCLEUS:     5
 <Apr18-2019> <22:16:51>  === NUCLEUS:     6
 <Apr18-2019> <22:17:19>  === NUCLEUS:     7
 <Apr18-2019> <22:17:47>  === NUCLEUS:     8
 <Apr18-2019> <22:18:15>  === NUCLEUS:     9
 <Apr18-2019> <22:18:44>  === NUCLEUS:    10
 <Apr18-2019> <22:19:12>  === NUCLEUS:    11
 <Apr18-2019> <22:19:41>  === NUCLEUS:    12
 <Apr18-2019> <22:20:10>  === NUCLEUS:    13
 <Apr18-2019> <22:20:39>  === NUCLEUS:    14
 <Apr18-2019> <22:21:08>  === NUCLEUS:    15
 <Apr18-2019> <22:21:37>  === NUCLEUS:    16
 <Apr18-2019> <22:22:06>  === NUCLEUS:    17
 <Apr18-2019> <22:22:35>  >>>> CALC_HESS_PMAT
 <Apr18-2019> <22:22:40>  >>>> CALC_HESS_WMAT
 <Apr18-2019> <22:22:42>  NORMAL TERMINATION with warnings
 <Apr18-2019> <22:22:42>  END
