
Create H   file=TZ2P-H
XC
  GGA BP86
End
End Input

 *******************************************************************************
 *                                                                             *
 *  -------------------------------------                                      *
 *   Amsterdam Density Functional  (ADF)         development version           *
 *  -------------------------------------                                      *
 *                                               r61132 2017-09-08             *
 *                                                                             *
 *                                                                             *
 *                              =================                              *
 *                              |               |                              *
 *                              |     A D F     |                              *
 *                              |               |                              *
 *                              =================                              *
 *                                                                             *
 *                                                                             *
 *   Online information and documentation:  https://www.scm.com/support/       *
 *   E-mail:  support@scm.com   info@scm.com                                   *
 *                                                                             *
 *   Scientific publications using ADF results must be properly referenced     *
 *   See the User Manuals (or the web site) for recommended citations          *
 *   The terms and conditions of the End User License Agreement apply to       *
 *   the use of ADF, https://www.scm.com/license-terms/                        *
 *                                                                             *
 **********************  x86_64_linux_intel / intelmpi  ************************
 
 Licensed to: VU/FEW (+ SARA) / ALGEMEEN / Amsterdam / THE NETHERLANDS
 SCM User ID: u7668
  
 ADF development version  RunTime: Apr24-2019 15:50:23  Nodes: 1  Procs: 1

 Temporary files are created in /local/datastore0/tcst25/187516/kid_0.41Sryt

 Hydrogen (TZ2P)



 ===========================
 A T T A C H E D   F I L E S
 ===========================
  
 CREATE - Data File:    TZ2P-H
                        Hydrogen (TZ2P)



 ===============================
 M O D E L   P A R A M E T E R S
 ===============================
  
 DENSITY FUNCTIONAL POTENTIAL (scf)
    LDA:                               VWN                                      
    Gradient Corrections:              Becke88 Perdew86                        == Not Default ==

 SPIN  (restricted / unrestr.)
    Molecule:                          Restricted                               

 OTHER ASPECTS
    Relativistic Corrections:          ---                                      

    Nuclear Charge Density Model:      Point Charge Nuclei                      
    Core Treatment:                    Frozen Orbital(s)                        

    Hyperfine or Zeeman Interaction:   ---                                      



 =====================================
 S Y M M E T R Y ,   E L E C T R O N S
 =====================================
  
 Symmetry: ATOM

 Irreducible Representations, including subspecies
 -------------------------------------------------
 S
 P:x  P:y  P:z
 D:z2  D:x2-y2  D:xy  D:xz  D:yz
 F:z3  F:z  F:xyz  F:z2x  F:z2y  F:x  F:y


 Configuration of Valence Electrons
 ==================================

          Occupation Numbers
          -------------------------------------------------
 S        1
 P        0
 D        0
 F        0
          -------------------------------------------------

 Total:   1

 Net Charge: 0 (Nuclei minus Electrons)

 Preset values for MO occupations will be applied through SCF cycle no. 1000000
 Thereafter, the program will assign electrons to MOs that are spatially
 similar to the occupied MOs in a "reference" cycle ("KeepOrbitals").
 The reference cycle is always the PREVIOUS cycle: it will evolve with
 the SCF procedure.



 ================================
 (Slater-type)  F U N C T I O N S  ***  (Basis and Fit)  ***
 ================================
  

 Atom Type    1  (H)
 ==============

 Valence Basis Sets:   5
 -----------------------
   1 S    0.690000
   1 S    0.920000
   1 S    1.580000
   2 P    1.250000
   3 D    2.500000


 BAS: List of all Elementary Cartesian Basis Functions
 =====================================================

 The numbering in the list below (to the right of the function characteristics) is referred
 to in print-outs of MO eigenvectors and Mulliken populations in the BAS representation
 (as contrasted to the SFO representation).

 Notes:
 1. The functions are characterized by a polynomial prefactor (powers of x,y,z and r) and
    an exponential decay factor alpha.
 2. Since the basis sets are specific for an atom TYPE, the individual functions occur on
    all atoms of that type.
 3. The word 'Core' in the left margin signals that it is a Core Function (CF) : not a
    degree of freedom in the valence set, but only used to ensure orthogonalization of
    the other valence basis functions on the frozen Core Orbitals.


 (power of) X  Y  Z  R     Alpha  on Atom
            ==========     =====     ==========

 H                                    1
                                  ---------------------------------------------------------------------------
            0  0  0  0     0.690      1
            0  0  0  0     0.920      2
            0  0  0  0     1.580      3
            1  0  0  0     1.250      4
            0  1  0  0     1.250      5
            0  0  1  0     1.250      6
            2  0  0  0     2.500      7
            1  1  0  0     2.500      8
            1  0  1  0     2.500      9
            0  2  0  0     2.500     10
            0  1  1  0     2.500     11
            0  0  2  0     2.500     12

 Total number of charge fitting functions (nprimf)        50
 Total number of Cartesian basis functions (naos)         12
 Total number of Cartesian core functions  (ncos)          0



 BAS: List of all Elementary Cartesian Basis Functions
 =====================================================

 The numbering in the list below (to the right of the function characteristics) is referred
 to in print-outs of MO eigenvectors and Mulliken populations in the BAS representation
 (as contrasted to the SFO representation).

 Notes:
 1. The functions are characterized by a polynomial prefactor (powers of x,y,z and r) and
    an exponential decay factor alpha.
 2. Since the basis sets are specific for an atom TYPE, the individual functions occur on
    all atoms of that type.
 3. The word 'Core' in the left margin signals that it is a Core Function (CF) : not a
    degree of freedom in the valence set, but only used to ensure orthogonalization of
    the other valence basis functions on the frozen Core Orbitals.


 (power of) X  Y  Z  R     Alpha  on Atom
            ==========     =====     ==========

 H                                    1
                                  ---------------------------------------------------------------------------
            0  0  0  0     0.690      1
            0  0  0  0     0.920      2
            0  0  0  0     1.580      3
            1  0  0  0     1.250      4
            0  1  0  0     1.250      5
            0  0  1  0     1.250      6
            2  0  0  0     2.500      7
            1  1  0  0     2.500      8
            1  0  1  0     2.500      9
            0  2  0  0     2.500     10
            0  1  1  0     2.500     11
            0  0  2  0     2.500     12
1
 ***************************************************************************************************



                                              ***********************
                                              *  T E C H N I C A L  *
                                              ***********************
  



 =============================================================
 P A R A L L E L I Z A T I O N  and  V E C T O R I Z A T I O N
 =============================================================
  
 Nr of parallel processes:                                1
 Maximum vector length in NumInt loops:                 128

 IO buffersize (Mb):                                     64.000000



 =====================
 S C F   U P D A T E S
 =====================
  
 Max. nr. of cycles:                               300
 Convergence criterion:                              0.0000000100
   secondary criterion:                              0.0000000100

 Mix parameter (when DIIS does not apply):           0.2000000000
 Special mix parameter for the first cycle:          1.0000000000
 Mixed ADIIS+DIIS will be used
    Max number of expansion vectors:                10
    Pure ADIIS when Max([F,P]) is above              0.1000000000
    Pure DIIS when Max([F,P]) is below               0.0010000000
 Automatic ElectronSmearing (in case of problematic SCF convergence) disabled



 =================
 P R E C I S I O N  ***  (General: NumInt, NeglectFunctionTails, ...)  ***
 =================
  

 NumInt:           Target precision:                12.0000000000
 -------           Initial precision:               10.0000000000
                   Min. precision (optimization):   10.0000000000

 Neglect Functions:          Basis functions:        0.1000000000E-13
 ------------------          Fit functions:          0.1000000000E-13



 ===========================
 L I N E A R   S C A L I N G
 ===========================
  

 Cut-off radii density fit:                        0.1000000000E-97
 Overlap cut-off criterion AO matrix elements:     0.1000000000E-97
 Cut-offs for Coulomb potential and fitted density:0.1000000000E-97
 Cut-off criterion for Coulomb multipole terms:    0.1000000000E-97
 Progressive Convergence parameter:                 0.000000000    
1
 ***************************************************************************************************



                                            ***************************
                                            *  C O M P U T A T I O N  *
                                            ***************************
  

 Number of elements of the density matrix on this node (used, total):        78        78



 ===========================================
 Numerical Integration : Fuzzy Cells (Becke)
 ===========================================
  
 Becke grid quality: VERYGOOD       
  
 Lebedev angular grid order:             min:  13 max:  41
 Nr. of radial points:                   min:  64 max:  64

 Total nr. of points:         64
 Nr. of blocks:                1
 Block length:                64
 Nr. of dummy points:          0


 Test of Precision of the Numerical Integration Grid
 ===================================================

 Integral of the Total Core Density:                   0.00000000000000



 ========================
 Density Fitting (zlmFit)
 ========================
  
 ZlmFit Fit Quality: VERYGOOD       
  
 Max L-expansion:                        min:   0 max:   0
 Nr. of radial interpolation points:     min: 130 max: 130



 =====
 S C F  ***  ScaSCF  ***
 =====
  

 CYCLE    1
 SCF Error: norm([F,P])=      0.000000000000, max([F,P])=      0.000000000000
 orbitals (Q,E):
 ---------------
 S :1...3            ( 1.00    -0.5000)  ( 0.00    -0.0900)  ( 0.00     1.2939)
 P :1...1            ( 0.00     0.1562)
 D :1...1            ( 0.00     2.2917)

 CYCLE    2
 SCF Error: norm([F,P])=      0.030526162244, max([F,P])=      0.029682528591
 orbitals (Q,E):
 ---------------
 S :1...2            ( 1.00    -0.2270)  ( 0.00     0.1038)
 P :1...1            ( 0.00     0.4131)
 D :1...1            ( 0.00     2.5768)

 CYCLE    3
  SDIIS (wt  0.000):  0.1733  0.8267
 A-DIIS (wt  1.000):  0.0000  1.0000
  DIIS coefficients:  0.0000  1.0000
 SCF Error: norm([F,P])=      0.007183061946, max([F,P])=      0.006712148192
 orbitals (Q,E):
 ---------------
 S :1...2            ( 1.00    -0.2462)  ( 0.00     0.0917)
 P :1...1            ( 0.00     0.3973)
 D :1...1            ( 0.00     2.5583)

 CYCLE    4
  SDIIS (wt  0.999):  0.1398  0.8602
 A-DIIS (wt  0.001):  0.0000  1.0000
  DIIS coefficients:  0.1396  0.8604
 SCF Error: norm([F,P])=      0.001175086780, max([F,P])=      0.001143060931
 orbitals (Q,E):
 ---------------
 S :1...2            ( 1.00    -0.2434)  ( 0.00     0.0933)
 P :1...1            ( 0.00     0.3996)
 D :1...1            ( 0.00     2.5611)

 CYCLE    5
  SDIIS (wt  1.000):  0.0219  0.9781
  DIIS coefficients:  0.0219  0.9781
 SCF Error: norm([F,P])=      0.000027525369, max([F,P])=      0.000023543474
 orbitals (Q,E):
 ---------------
 S :1...2            ( 1.00    -0.2435)  ( 0.00     0.0932)
 P :1...1            ( 0.00     0.3996)
 D :1...1            ( 0.00     2.5610)

 CYCLE    6
  SDIIS (wt  1.000): -0.0582  1.0582
  DIIS coefficients: -0.0582  1.0582
 SCF Error: norm([F,P])=      0.000001514450, max([F,P])=      0.000001285214
 orbitals (Q,E):
 ---------------
 S :1...2            ( 1.00    -0.2435)  ( 0.00     0.0932)
 P :1...1            ( 0.00     0.3996)
 D :1...1            ( 0.00     2.5610)

 CYCLE    7
  SDIIS (wt  1.000): -0.0031  1.0031
  DIIS coefficients: -0.0031  1.0031
 SCF Error: norm([F,P])=      0.000000004705, max([F,P])=      0.000000004158
 orbitals (Q,E):
 ---------------
 S :1...2            ( 1.00    -0.2435)  ( 0.00     0.0932)
 P :1...1            ( 0.00     0.3996)
 D :1...1            ( 0.00     2.5610)

 SCF CONVERGED

 CYCLE    8
1
 ***************************************************************************************************



                                                *******************
                                                *  R E S U L T S  *
                                                *******************
  
 *** Setting up for NEW gradients in Focky
 *** Using FIT density in Focky

 Orbital Energies, per Irrep and Spin:
 ======================================
                        Occup              E (au)              E (eV)       Diff (eV) with prev. cycle
                        -----      --------------------        ------       --------------------------
 S
               1        1.000     -0.24350452296405E+00        -6.626               4.48E-09
               2        0.000      0.93233330888585E-01         2.537
               3        0.000      0.15154066862623E+01        41.236
 P
               1        0.000      0.39955072057198E+00        10.872
 D
               1        0.000      0.25610214787646E+01        69.689


 Partially Occupied:
               1 S                -0.24350452296405E+00
  
 LUMO :        2 S                 0.93233330888585E-01
  


 Orbital Energies, all Irreps
 ========================================

 Irrep        no.  (spin)   Occup              E (au)                E (eV)
 ---------------------------------------------------------------------------
 S             1             1.00       -0.24350452296405E+00        -6.6261
 S             2             0.00        0.93233330888585E-01         2.5370
 P             1             0.00        0.39955072057198E+00        10.8723
 S             3             0.00        0.15154066862623E+01        41.2363
 D             1             0.00        0.25610214787646E+01        69.6889


 All Electron Calculation, thus no Orbital Energies of the Core Orbitals are calculated



 =======================================
 M U L L I K E N   P O P U L A T I O N S
 =======================================
  
 The survey below gives for each atom:
 a) the total charge (Z minus electrons)
 b) the net spin polarization (nr of electrons spin-A minus spin-B)
 c) for each spin the atomic electron valence density (integrated) per L-value.

 Atom              Charge    Spin density          S         P         D         F
 ----              ------    ------------       ------    ------    ------    ------
 1 H               0.0000                       1.0000    0.0000    0.0000    0.0000

 Populations of individual BAS functions
 ----------------------------------------
 1 H            0.1853  0.7115  0.1032  0.0000  0.0000  0.0000  0.0000  0.0000  0.0000  0.0000
                0.0000  0.0000

 Gross Charges per Atom (Z minus electrons)
 ==========================================
             0.0000
 Net Total:  0.00000000



 =======================================================================
 Electrostatic potential at the Nuclei due to electrons and other nuclei
 =======================================================================
  
         Atom                  Potential
         ----                  ---------
     1)   H                   0.94550094
 
 
 ========================
 No memory problems found
 ========================
 
 Maximum number of active allocate calls:         363
 
 *******************************************************************************

                             A D F   E X I T
 NORMAL TERMINATION



 =================
 Timing Statistics
 =================
  
 Total Used :                     CPU=        0.30      System=        0.03     Elapsed=        0.32

 Calls  Section                     ( Mean, Percentage )
 ---------------------------------------------------------------------------------------------------
     3  ><      ................      0.00    0.34             0.00    0.00             0.00    0.24
     1  INIT    ................      0.01    3.03             0.01   57.69             0.03    7.91
     1  GEOMET  ................      0.00    1.01             0.00   19.23             0.01    2.53
     1  INPUTA  ................      0.00    0.34             0.00    0.00             0.00    0.45
     1  MAINSY  ................      0.00    1.01             0.00   11.54             0.01    1.73
     1  SYMFIT  ................      0.00    0.00             0.00    3.85             0.00    0.24
     1  CORORT  ................      0.00    0.00             0.00    0.00             0.00    0.08
     1  SYMORB  ................      0.00    0.34             0.00    0.00             0.00    0.16
     1  CLSMAT  ................      0.00    1.35             0.00    0.00             0.00    1.21
     1  ORTHON  ................      0.00    0.34             0.00    0.00             0.00    0.38
     1  GENPT   ................      0.01    3.03             0.00    0.00             0.01    2.99
     1  PTBAS   ................      0.00    1.01             0.00    3.85             0.00    1.04
     8  FOCKY   ................      0.03   70.37             0.00    0.00             0.03   64.38
     8  FOCKTR  ................      0.00    1.01             0.00    0.00             0.00    1.62
     8  SDIIS   ................      0.00    4.38             0.00    0.00             0.00    3.54
     1  COREPS  ................      0.02    5.39             0.00    0.00             0.02    4.83
     1  POPAN   ................      0.00    1.35             0.00    0.00             0.00    1.16
     1  DEBYE   ................      0.00    0.00             0.00    0.00             0.00    0.15
     1  EXIT PROCEDURE .........      0.02    5.72             0.00    3.85             0.02    5.36


 Currently Open Files (EXIT00)
 ====================

 Unit    Access Format  Status   Type       Ident (file)
 -------------------------------------------------------
   3      SEQ    FORM   TRANSP  NORMAL      LOGFILE
                                          ( logfile )


 Buffered I/O statistics
 =======================
 Memory available:                     67108864
 Number of records fitting in memory:     16131
 Input :   0.2% of                        17478  *4k bytes
 Output:  15.2% of                         1046  *4k bytes
 Records from serial files evicted:           0
                    others evicted:           0
 Hash table lookups:      44676 with          0 conflicts (  0.00%)

 ***************************************************************************************************
 (LOGFILE)
 <Apr24-2019> <15:50:23>  ADF development version  RunTime: Apr24-2019 15:50:23  Nodes: 1  Procs: 1
 <Apr24-2019> <15:50:23>  Hydrogen (TZ2P)
 <Apr24-2019> <15:50:23>  RunType   : CREATE
 <Apr24-2019> <15:50:23>  Net Charge: 0 (Nuclei minus Electrons)
 <Apr24-2019> <15:50:23>  Symmetry  : ATOM
  Coordinates
    Atom         X           Y           Z   (Angstrom)
    1.H         0.000000    0.000000    0.000000
 <Apr24-2019> <15:50:23>  >>>> CORORT
 <Apr24-2019> <15:50:23>  >>>> CLSMAT
 <Apr24-2019> <15:50:23>  >>>> ORTHON
 <Apr24-2019> <15:50:23>  >>>> GENPT
 <Apr24-2019> <15:50:23>  Block Length=  64
 <Apr24-2019> <15:50:23>  >>>> PTBAS
 <Apr24-2019> <15:50:23>  >>>> CYCLE
 <Apr24-2019> <15:50:23>              |Error|         MaxErr       Wt(A-DIIS)
 <Apr24-2019> <15:50:23>      1      0.00000000      0.00000000
 <Apr24-2019> <15:50:23>      2      0.03052616      0.02968253
 <Apr24-2019> <15:50:23>      3      0.00718306      0.00671215    100.0
 <Apr24-2019> <15:50:23>      4      0.00117509      0.00114306      0.1
 <Apr24-2019> <15:50:23>      5      0.00002753      0.00002354      0.0
 <Apr24-2019> <15:50:23>      6      0.00000151      0.00000129      0.0
 <Apr24-2019> <15:50:23>      7      0.00000000      0.00000000      0.0
 <Apr24-2019> <15:50:23>  SCF converged
 <Apr24-2019> <15:50:23>      8      0.00000000      0.00000000      0.0
 <Apr24-2019> <15:50:23>  >>>> POPAN
 <Apr24-2019> <15:50:23>  >>>> DEBYE
 <Apr24-2019> <15:50:23>  NORMAL TERMINATION
 <Apr24-2019> <15:50:23>  END

Create N   file=TZ2P-N
XC
  GGA BP86
End
End Input

 *******************************************************************************
 *                                                                             *
 *  -------------------------------------                                      *
 *   Amsterdam Density Functional  (ADF)         development version           *
 *  -------------------------------------                                      *
 *                                               r61132 2017-09-08             *
 *                                                                             *
 *                                                                             *
 *                              =================                              *
 *                              |               |                              *
 *                              |     A D F     |                              *
 *                              |               |                              *
 *                              =================                              *
 *                                                                             *
 *                                                                             *
 *   Online information and documentation:  https://www.scm.com/support/       *
 *   E-mail:  support@scm.com   info@scm.com                                   *
 *                                                                             *
 *   Scientific publications using ADF results must be properly referenced     *
 *   See the User Manuals (or the web site) for recommended citations          *
 *   The terms and conditions of the End User License Agreement apply to       *
 *   the use of ADF, https://www.scm.com/license-terms/                        *
 *                                                                             *
 **********************  x86_64_linux_intel / intelmpi  ************************
 
 Licensed to: VU/FEW (+ SARA) / ALGEMEEN / Amsterdam / THE NETHERLANDS
 SCM User ID: u7668
  
 ADF development version  RunTime: Apr24-2019 15:50:23  Nodes: 1  Procs: 1

 Temporary files are created in /local/datastore0/tcst25/187516/kid_0.qCIr8V

 Nitrogen (TZ2P)



 ===========================
 A T T A C H E D   F I L E S
 ===========================
  
 CREATE - Data File:    TZ2P-N
                        Nitrogen (TZ2P)



 ===============================
 M O D E L   P A R A M E T E R S
 ===============================
  
 DENSITY FUNCTIONAL POTENTIAL (scf)
    LDA:                               VWN                                      
    Gradient Corrections:              Becke88 Perdew86                        == Not Default ==

 SPIN  (restricted / unrestr.)
    Molecule:                          Restricted                               

 OTHER ASPECTS
    Relativistic Corrections:          ---                                      

    Nuclear Charge Density Model:      Point Charge Nuclei                      
    Core Treatment:                    Frozen Orbital(s)                        

    Hyperfine or Zeeman Interaction:   ---                                      



 =====================================
 S Y M M E T R Y ,   E L E C T R O N S
 =====================================
  
 Symmetry: ATOM

 Irreducible Representations, including subspecies
 -------------------------------------------------
 S
 P:x  P:y  P:z
 D:z2  D:x2-y2  D:xy  D:xz  D:yz
 F:z3  F:z  F:xyz  F:z2x  F:z2y  F:x  F:y


 Configuration of Valence Electrons
 ==================================

          Occupation Numbers
          -------------------------------------------------
 S        2*2
 P        3
 D        0
 F        0
          -------------------------------------------------

 Total:   7

 Net Charge: 0 (Nuclei minus Electrons)

 Preset values for MO occupations will be applied through SCF cycle no. 1000000
 Thereafter, the program will assign electrons to MOs that are spatially
 similar to the occupied MOs in a "reference" cycle ("KeepOrbitals").
 The reference cycle is always the PREVIOUS cycle: it will evolve with
 the SCF procedure.



 ================================
 (Slater-type)  F U N C T I O N S  ***  (Basis and Fit)  ***
 ================================
  

 Atom Type    1  (N)
 ==============

 Valence Basis Sets:  10
 -----------------------
   1 S    8.740000
   1 S    5.900000
   2 S    5.150000
   2 S    2.500000
   2 S    1.500000
   2 P    3.680000
   2 P    1.880000
   2 P    1.000000
   3 D    2.200000
   4 F    3.300000


 BAS: List of all Elementary Cartesian Basis Functions
 =====================================================

 The numbering in the list below (to the right of the function characteristics) is referred
 to in print-outs of MO eigenvectors and Mulliken populations in the BAS representation
 (as contrasted to the SFO representation).

 Notes:
 1. The functions are characterized by a polynomial prefactor (powers of x,y,z and r) and
    an exponential decay factor alpha.
 2. Since the basis sets are specific for an atom TYPE, the individual functions occur on
    all atoms of that type.
 3. The word 'Core' in the left margin signals that it is a Core Function (CF) : not a
    degree of freedom in the valence set, but only used to ensure orthogonalization of
    the other valence basis functions on the frozen Core Orbitals.


 (power of) X  Y  Z  R     Alpha  on Atom
            ==========     =====     ==========

 N                                    1
                                  ---------------------------------------------------------------------------
            0  0  0  0     8.740      1
            0  0  0  0     5.900      2
            0  0  0  1     5.150      3
            0  0  0  1     2.500      4
            0  0  0  1     1.500      5
            1  0  0  0     3.680      6
            0  1  0  0     3.680      7
            0  0  1  0     3.680      8
            1  0  0  0     1.880      9
            0  1  0  0     1.880     10
            0  0  1  0     1.880     11
            1  0  0  0     1.000     12
            0  1  0  0     1.000     13
            0  0  1  0     1.000     14
            2  0  0  0     2.200     15
            1  1  0  0     2.200     16
            1  0  1  0     2.200     17
            0  2  0  0     2.200     18
            0  1  1  0     2.200     19
            0  0  2  0     2.200     20
            3  0  0  0     3.300     21
            2  1  0  0     3.300     22
            2  0  1  0     3.300     23
            1  2  0  0     3.300     24
            1  1  1  0     3.300     25
            1  0  2  0     3.300     26
            0  3  0  0     3.300     27
            0  2  1  0     3.300     28
            0  1  2  0     3.300     29
            0  0  3  0     3.300     30

 Total number of charge fitting functions (nprimf)        84
 Total number of Cartesian basis functions (naos)         30
 Total number of Cartesian core functions  (ncos)          0



 BAS: List of all Elementary Cartesian Basis Functions
 =====================================================

 The numbering in the list below (to the right of the function characteristics) is referred
 to in print-outs of MO eigenvectors and Mulliken populations in the BAS representation
 (as contrasted to the SFO representation).

 Notes:
 1. The functions are characterized by a polynomial prefactor (powers of x,y,z and r) and
    an exponential decay factor alpha.
 2. Since the basis sets are specific for an atom TYPE, the individual functions occur on
    all atoms of that type.
 3. The word 'Core' in the left margin signals that it is a Core Function (CF) : not a
    degree of freedom in the valence set, but only used to ensure orthogonalization of
    the other valence basis functions on the frozen Core Orbitals.


 (power of) X  Y  Z  R     Alpha  on Atom
            ==========     =====     ==========

 N                                    1
                                  ---------------------------------------------------------------------------
            0  0  0  0     8.740      1
            0  0  0  0     5.900      2
            0  0  0  1     5.150      3
            0  0  0  1     2.500      4
            0  0  0  1     1.500      5
            1  0  0  0     3.680      6
            0  1  0  0     3.680      7
            0  0  1  0     3.680      8
            1  0  0  0     1.880      9
            0  1  0  0     1.880     10
            0  0  1  0     1.880     11
            1  0  0  0     1.000     12
            0  1  0  0     1.000     13
            0  0  1  0     1.000     14
            2  0  0  0     2.200     15
            1  1  0  0     2.200     16
            1  0  1  0     2.200     17
            0  2  0  0     2.200     18
            0  1  1  0     2.200     19
            0  0  2  0     2.200     20
            3  0  0  0     3.300     21
            2  1  0  0     3.300     22
            2  0  1  0     3.300     23
            1  2  0  0     3.300     24
            1  1  1  0     3.300     25
            1  0  2  0     3.300     26
            0  3  0  0     3.300     27
            0  2  1  0     3.300     28
            0  1  2  0     3.300     29
            0  0  3  0     3.300     30
1
 ***************************************************************************************************



                                              ***********************
                                              *  T E C H N I C A L  *
                                              ***********************
  



 =============================================================
 P A R A L L E L I Z A T I O N  and  V E C T O R I Z A T I O N
 =============================================================
  
 Nr of parallel processes:                                1
 Maximum vector length in NumInt loops:                 128

 IO buffersize (Mb):                                     64.000000



 =====================
 S C F   U P D A T E S
 =====================
  
 Max. nr. of cycles:                               300
 Convergence criterion:                              0.0000000100
   secondary criterion:                              0.0000000100

 Mix parameter (when DIIS does not apply):           0.2000000000
 Special mix parameter for the first cycle:          1.0000000000
 Mixed ADIIS+DIIS will be used
    Max number of expansion vectors:                10
    Pure ADIIS when Max([F,P]) is above              0.1000000000
    Pure DIIS when Max([F,P]) is below               0.0010000000
 Automatic ElectronSmearing (in case of problematic SCF convergence) disabled



 =================
 P R E C I S I O N  ***  (General: NumInt, NeglectFunctionTails, ...)  ***
 =================
  

 NumInt:           Target precision:                12.0000000000
 -------           Initial precision:               10.0000000000
                   Min. precision (optimization):   10.0000000000

 Neglect Functions:          Basis functions:        0.1000000000E-13
 ------------------          Fit functions:          0.1000000000E-13



 ===========================
 L I N E A R   S C A L I N G
 ===========================
  

 Cut-off radii density fit:                        0.1000000000E-97
 Overlap cut-off criterion AO matrix elements:     0.1000000000E-97
 Cut-offs for Coulomb potential and fitted density:0.1000000000E-97
 Cut-off criterion for Coulomb multipole terms:    0.1000000000E-97
 Progressive Convergence parameter:                 0.000000000    
1
 ***************************************************************************************************



                                            ***************************
                                            *  C O M P U T A T I O N  *
                                            ***************************
  

 Number of elements of the density matrix on this node (used, total):       465       465



 ===========================================
 Numerical Integration : Fuzzy Cells (Becke)
 ===========================================
  
 Becke grid quality: VERYGOOD       
  
 Lebedev angular grid order:             min:  13 max:  41
 Nr. of radial points:                   min:  72 max:  72

 Total nr. of points:         72
 Nr. of blocks:                1
 Block length:                72
 Nr. of dummy points:          0


 Test of Precision of the Numerical Integration Grid
 ===================================================

 Integral of the Total Core Density:                   0.00000000000000



 ========================
 Density Fitting (zlmFit)
 ========================
  
 ZlmFit Fit Quality: VERYGOOD       
  
 Max L-expansion:                        min:   0 max:   0
 Nr. of radial interpolation points:     min: 160 max: 160



 =====
 S C F  ***  ScaSCF  ***
 =====
  

 CYCLE    1
 SCF Error: norm([F,P])=      0.000000000000, max([F,P])=      0.000000000000
 orbitals (Q,E):
 ---------------
 S :1...5            ( 2.00   -24.4993)  ( 2.00    -6.1004)  ( 0.00    -2.6599)  ( 0.00     0.7211)
                     ( 0.00    54.4424)
 P :1...3            ( 3.00    -6.1210)  ( 0.00    -2.6439)  ( 0.00    -1.4084)
 D :1...1            ( 0.00    -2.7133)
 F :1...1            ( 0.00    -0.3300)

 CYCLE    2
  SDIIS (wt  0.000):  1.0000 -0.0000
 A-DIIS (wt  1.000):  0.0000  1.0000
  DIIS coefficients:  0.0000  1.0000
 SCF Error: norm([F,P])=      6.451367365890, max([F,P])=      4.219703087224
 orbitals (Q,E):
 ---------------
 S :1...3            ( 2.00   -10.8287)  ( 2.00     0.0014)  ( 0.00     1.1966)
 P :1...2            ( 3.00     0.1843)  ( 0.00     0.9564)
 D :1...1            ( 0.00     1.8417)
 F :1...1            ( 0.00     4.7248)

 CYCLE    3
  SDIIS (wt  0.000):  0.2198  0.7802
 A-DIIS (wt  1.000):  0.2131  0.7869
  DIIS coefficients:  0.2131  0.7869
 SCF Error: norm([F,P])=      2.481517685351, max([F,P])=      1.954795594132
 orbitals (Q,E):
 ---------------
 S :1...3            ( 2.00   -15.1747)  ( 2.00    -1.2497)  ( 0.00     0.2017)
 P :1...2            ( 3.00    -0.8323)  ( 0.00     0.0719)
 D :1...1            ( 0.00     0.7940)
 F :1...1            ( 0.00     3.4887)

 CYCLE    4
  SDIIS (wt  0.000): -0.0612  0.1925  0.8687
 A-DIIS (wt  1.000):  0.0000  0.0259  0.9741
  DIIS coefficients:  0.0000  0.0259  0.9741
 SCF Error: norm([F,P])=      0.970371105527, max([F,P])=      0.641065486122
 orbitals (Q,E):
 ---------------
 S :1...3            ( 2.00   -13.4412)  ( 2.00    -0.4401)  ( 0.00     0.6963)
 P :1...2            ( 3.00    -0.0468)  ( 0.00     0.4437)
 D :1...1            ( 0.00     1.4306)
 F :1...1            ( 0.00     4.2280)

 CYCLE    5
  SDIIS (wt  0.000): -0.0222 -0.0718  0.4807  0.6133
 A-DIIS (wt  1.000):  0.0000  0.0000  0.4633  0.5367
  DIIS coefficients:  0.0000  0.0000  0.4633  0.5367
 SCF Error: norm([F,P])=      0.831034576935, max([F,P])=      0.578511378985
 orbitals (Q,E):
 ---------------
 S :1...3            ( 2.00   -14.1857)  ( 2.00    -0.7190)  ( 0.00     0.4998)
 P :1...2            ( 3.00    -0.2946)  ( 0.00     0.2748)
 D :1...1            ( 0.00     1.2103)
 F :1...1            ( 0.00     3.9682)

 CYCLE    6
  SDIIS (wt  0.696):  0.0027 -0.0052 -0.0171  0.0723  0.9473
 A-DIIS (wt  0.304):  0.0000  0.0000  0.0000  0.0000  1.0000
  DIIS coefficients:  0.0019 -0.0036 -0.0119  0.0503  0.9634
 SCF Error: norm([F,P])=      0.059655214985, max([F,P])=      0.031138717216
 orbitals (Q,E):
 ---------------
 S :1...3            ( 2.00   -14.1243)  ( 2.00    -0.6773)  ( 0.00     0.5219)
 P :1...2            ( 3.00    -0.2558)  ( 0.00     0.2921)
 D :1...1            ( 0.00     1.2456)
 F :1...1            ( 0.00     4.0096)

 CYCLE    7
  SDIIS (wt  0.824): -0.0002  0.0014  0.0138 -0.0266 -0.0370  1.0487
 A-DIIS (wt  0.176):  0.0000  0.0000  0.0000  0.0000  0.0360  0.9640
  DIIS coefficients: -0.0002  0.0011  0.0114 -0.0220 -0.0242  1.0338
 SCF Error: norm([F,P])=      0.027721651816, max([F,P])=      0.018404675135
 orbitals (Q,E):
 ---------------
 S :1...3            ( 2.00   -14.1511)  ( 2.00    -0.6888)  ( 0.00     0.5142)
 P :1...2            ( 3.00    -0.2669)  ( 0.00     0.2857)
 D :1...1            ( 0.00     1.2367)
 F :1...1            ( 0.00     3.9991)

 CYCLE    8
  SDIIS (wt  0.979): -0.0000  0.0002  0.0011 -0.0022 -0.0006  0.2099  0.7916
 A-DIIS (wt  0.021):  0.0000  0.0000  0.0000  0.0000  0.0000  0.0000  1.0000
  DIIS coefficients: -0.0000  0.0002  0.0011 -0.0021 -0.0006  0.2055  0.7960
 SCF Error: norm([F,P])=      0.004499232480, max([F,P])=      0.003081258258
 orbitals (Q,E):
 ---------------
 S :1...3            ( 2.00   -14.1473)  ( 2.00    -0.6873)  ( 0.00     0.5152)
 P :1...2            ( 3.00    -0.2655)  ( 0.00     0.2865)
 D :1...1            ( 0.00     1.2378)
 F :1...1            ( 0.00     4.0005)

 CYCLE    9
  SDIIS (wt  1.000):  0.0000 -0.0000 -0.0001  0.0001 -0.0002 -0.0094 -0.0232  1.0327
  DIIS coefficients:  0.0000 -0.0000 -0.0001  0.0001 -0.0002 -0.0094 -0.0232  1.0327
 SCF Error: norm([F,P])=      0.000019361449, max([F,P])=      0.000012105781
 orbitals (Q,E):
 ---------------
 S :1...3            ( 2.00   -14.1473)  ( 2.00    -0.6873)  ( 0.00     0.5152)
 P :1...2            ( 3.00    -0.2655)  ( 0.00     0.2865)
 D :1...1            ( 0.00     1.2378)
 F :1...1            ( 0.00     4.0005)

 CYCLE   10
  SDIIS (wt  1.000): -0.0000 -0.0000  0.0000  0.0000 -0.0001  0.0001  0.0232  0.9769
  DIIS coefficients: -0.0000 -0.0000  0.0000  0.0000 -0.0001  0.0001  0.0232  0.9769
 SCF Error: norm([F,P])=      0.000001838439, max([F,P])=      0.000001230955
 orbitals (Q,E):
 ---------------
 S :1...3            ( 2.00   -14.1473)  ( 2.00    -0.6873)  ( 0.00     0.5152)
 P :1...2            ( 3.00    -0.2655)  ( 0.00     0.2865)
 D :1...1            ( 0.00     1.2378)
 F :1...1            ( 0.00     4.0005)

 CYCLE   11
  SDIIS (wt  1.000): -0.0000 -0.0000 -0.0000 -0.0006 -0.0321  1.0328
  DIIS coefficients: -0.0000 -0.0000 -0.0000 -0.0006 -0.0321  1.0328
 SCF Error: norm([F,P])=      0.000000052960, max([F,P])=      0.000000032927
 orbitals (Q,E):
 ---------------
 S :1...3            ( 2.00   -14.1473)  ( 2.00    -0.6873)  ( 0.00     0.5152)
 P :1...2            ( 3.00    -0.2655)  ( 0.00     0.2865)
 D :1...1            ( 0.00     1.2378)
 F :1...1            ( 0.00     4.0005)

 CYCLE   12
  SDIIS (wt  1.000): -0.0000  0.0000 -0.0002  0.0076  0.9926
  DIIS coefficients: -0.0000  0.0000 -0.0002  0.0076  0.9926
 SCF Error: norm([F,P])=      0.000000000214, max([F,P])=      0.000000000118
 orbitals (Q,E):
 ---------------
 S :1...3            ( 2.00   -14.1473)  ( 2.00    -0.6873)  ( 0.00     0.5152)
 P :1...2            ( 3.00    -0.2655)  ( 0.00     0.2865)
 D :1...1            ( 0.00     1.2378)
 F :1...1            ( 0.00     4.0005)

 SCF CONVERGED

 CYCLE   13
1
 ***************************************************************************************************



                                                *******************
                                                *  R E S U L T S  *
                                                *******************
  
 *** Setting up for NEW gradients in Focky
 *** Using FIT density in Focky

 Orbital Energies, per Irrep and Spin:
 ======================================
                        Occup              E (au)              E (eV)       Diff (eV) with prev. cycle
                        -----      --------------------        ------       --------------------------
 S
               1        2.000     -0.14147275471391E+02      -384.967               8.94E-10
               2        2.000     -0.68732764310953E+00       -18.703               5.68E-10
               3        0.000      0.51515957710219E+00        14.018
               4        0.000      0.68959769444915E+01       187.649
               5        0.000      0.63979073432212E+02      1740.959
 P
               1        3.000     -0.26548379507191E+00        -7.224               5.44E-10
               2        0.000      0.28654429146964E+00         7.797
               3        0.000      0.32908032270942E+01        89.547
 D
               1        0.000      0.12378131244837E+01        33.683
 F
               1        0.000      0.40004783530592E+01       108.859


 Partially Occupied:
               1 P                -0.26548379507191E+00
  
 HOMO :        2 S                -0.68732764310953E+00
 LUMO :        2 P                 0.28654429146964E+00
  


 Orbital Energies, all Irreps
 ========================================

 Irrep        no.  (spin)   Occup              E (au)                E (eV)
 ---------------------------------------------------------------------------
 S             1             2.00       -0.14147275471391E+02      -384.9670
 S             2             2.00       -0.68732764310953E+00       -18.7031
 P             1             3.00       -0.26548379507191E+00        -7.2242
 P             2             0.00        0.28654429146964E+00         7.7973
 S             3             0.00        0.51515957710219E+00        14.0182
 D             1             0.00        0.12378131244837E+01        33.6826
 P             3             0.00        0.32908032270942E+01        89.5473
 F             1             0.00        0.40004783530592E+01       108.8586
 S             4             0.00        0.68959769444915E+01       187.6491
 S             5             0.00        0.63979073432212E+02      1740.9592


 All Electron Calculation, thus no Orbital Energies of the Core Orbitals are calculated



 =======================================
 M U L L I K E N   P O P U L A T I O N S
 =======================================
  
 The survey below gives for each atom:
 a) the total charge (Z minus electrons)
 b) the net spin polarization (nr of electrons spin-A minus spin-B)
 c) for each spin the atomic electron valence density (integrated) per L-value.

 Atom              Charge    Spin density          S         P         D         F
 ----              ------    ------------       ------    ------    ------    ------
 1 N              -0.0000                       4.0000    3.0000    0.0000    0.0000

 Populations of individual BAS functions
 ----------------------------------------
 1 N            0.5256  1.4646 -0.0480  1.1588  0.8990  0.1407  0.1407  0.1407  0.5661  0.5661
                0.5661  0.2932  0.2932  0.2932  0.0000  0.0000  0.0000  0.0000  0.0000  0.0000
                0.0000  0.0000  0.0000  0.0000  0.0000  0.0000  0.0000  0.0000  0.0000  0.0000

 Gross Charges per Atom (Z minus electrons)
 ==========================================
            -0.0000
 Net Total: -0.00000000



 =======================================================================
 Electrostatic potential at the Nuclei due to electrons and other nuclei
 =======================================================================
  
         Atom                  Potential
         ----                  ---------
     1)   N                  18.29008691
 
 
 ========================
 No memory problems found
 ========================
 
 Maximum number of active allocate calls:         447
 
 *******************************************************************************

                             A D F   E X I T
 NORMAL TERMINATION



 =================
 Timing Statistics
 =================
  
 Total Used :                     CPU=        0.48      System=        0.03     Elapsed=        0.52

 Calls  Section                     ( Mean, Percentage )
 ---------------------------------------------------------------------------------------------------
     3  ><      ................      0.00    0.00             0.00    3.45             0.00    0.15
     1  INIT    ................      0.01    2.06             0.01   48.27             0.03    4.91
     1  GEOMET  ................      0.00    1.03             0.00   10.35             0.01    1.62
     1  INPUTA  ................      0.00    0.41             0.00    0.00             0.00    0.30
     1  MAINSY  ................      0.00    1.03             0.00    3.45             0.01    1.15
     1  SYMFIT  ................      0.00    0.00             0.00    0.00             0.00    0.15
     1  CORORT  ................      0.00    0.21             0.00    0.00             0.00    0.05
     1  SYMORB  ................      0.00    0.00             0.00    0.00             0.00    0.13
     1  CLSMAT  ................      0.00    1.03             0.00    0.00             0.01    1.01
     1  ORTHON  ................      0.00    0.41             0.00    0.00             0.00    0.28
     1  GENPT   ................      0.01    3.09             0.00    0.00             0.01    2.86
     1  PTBAS   ................      0.00    0.62             0.00    0.00             0.00    0.67
    13  FOCKY   ................      0.03   74.85             0.00   24.14             0.03   71.81
    13  FOCKTR  ................      0.00    2.68             0.00    0.00             0.00    2.09
    13  SDIIS   ................      0.00    3.71             0.00    3.45             0.00    4.03
     1  COREPS  ................      0.02    4.33             0.00    0.00             0.02    4.07
     1  POPAN   ................      0.00    1.03             0.00    0.00             0.01    1.01
     1  DEBYE   ................      0.00    0.00             0.00    0.00             0.00    0.11
     1  EXIT PROCEDURE .........      0.02    3.51             0.00    6.90             0.02    3.58


 Currently Open Files (EXIT00)
 ====================

 Unit    Access Format  Status   Type       Ident (file)
 -------------------------------------------------------
   3      SEQ    FORM   TRANSP  NORMAL      LOGFILE
                                          ( logfile )


 Buffered I/O statistics
 =======================
 Memory available:                     67108864
 Number of records fitting in memory:     16131
 Input :   0.1% of                        27821  *4k bytes
 Output:  13.6% of                         1374  *4k bytes
 Records from serial files evicted:           0
                    others evicted:           0
 Hash table lookups:      71921 with          0 conflicts (  0.00%)

 ***************************************************************************************************
 (LOGFILE)
 <Apr24-2019> <15:50:23>  ADF development version  RunTime: Apr24-2019 15:50:23  Nodes: 1  Procs: 1
 <Apr24-2019> <15:50:23>  Hydrogen (TZ2P)
 <Apr24-2019> <15:50:23>  RunType   : CREATE
 <Apr24-2019> <15:50:23>  Net Charge: 0 (Nuclei minus Electrons)
 <Apr24-2019> <15:50:23>  Symmetry  : ATOM
  Coordinates
    Atom         X           Y           Z   (Angstrom)
    1.H         0.000000    0.000000    0.000000
 <Apr24-2019> <15:50:23>  >>>> CORORT
 <Apr24-2019> <15:50:23>  >>>> CLSMAT
 <Apr24-2019> <15:50:23>  >>>> ORTHON
 <Apr24-2019> <15:50:23>  >>>> GENPT
 <Apr24-2019> <15:50:23>  Block Length=  64
 <Apr24-2019> <15:50:23>  >>>> PTBAS
 <Apr24-2019> <15:50:23>  >>>> CYCLE
 <Apr24-2019> <15:50:23>              |Error|         MaxErr       Wt(A-DIIS)
 <Apr24-2019> <15:50:23>      1      0.00000000      0.00000000
 <Apr24-2019> <15:50:23>      2      0.03052616      0.02968253
 <Apr24-2019> <15:50:23>      3      0.00718306      0.00671215    100.0
 <Apr24-2019> <15:50:23>      4      0.00117509      0.00114306      0.1
 <Apr24-2019> <15:50:23>      5      0.00002753      0.00002354      0.0
 <Apr24-2019> <15:50:23>      6      0.00000151      0.00000129      0.0
 <Apr24-2019> <15:50:23>      7      0.00000000      0.00000000      0.0
 <Apr24-2019> <15:50:23>  SCF converged
 <Apr24-2019> <15:50:23>      8      0.00000000      0.00000000      0.0
 <Apr24-2019> <15:50:23>  >>>> POPAN
 <Apr24-2019> <15:50:23>  >>>> DEBYE
 <Apr24-2019> <15:50:23>  NORMAL TERMINATION
 <Apr24-2019> <15:50:23>  END
 <Apr24-2019> <15:50:23>  ADF development version  RunTime: Apr24-2019 15:50:23  Nodes: 1  Procs: 1
 <Apr24-2019> <15:50:23>  Nitrogen (TZ2P)
 <Apr24-2019> <15:50:23>  RunType   : CREATE
 <Apr24-2019> <15:50:23>  Net Charge: 0 (Nuclei minus Electrons)
 <Apr24-2019> <15:50:23>  Symmetry  : ATOM
  Coordinates
    Atom         X           Y           Z   (Angstrom)
    1.N         0.000000    0.000000    0.000000
 <Apr24-2019> <15:50:23>  >>>> CORORT
 <Apr24-2019> <15:50:23>  >>>> CLSMAT
 <Apr24-2019> <15:50:23>  >>>> ORTHON
 <Apr24-2019> <15:50:23>  >>>> GENPT
 <Apr24-2019> <15:50:23>  Block Length=  72
 <Apr24-2019> <15:50:23>  >>>> PTBAS
 <Apr24-2019> <15:50:23>  >>>> CYCLE
 <Apr24-2019> <15:50:23>              |Error|         MaxErr       Wt(A-DIIS)
 <Apr24-2019> <15:50:23>      1      0.00000000      0.00000000
 <Apr24-2019> <15:50:23>      2      6.45136737      4.21970309    100.0
 <Apr24-2019> <15:50:23>      3      2.48151769      1.95479559    100.0
 <Apr24-2019> <15:50:23>      4      0.97037111      0.64106549    100.0
 <Apr24-2019> <15:50:23>      5      0.83103458      0.57851138    100.0
 <Apr24-2019> <15:50:23>      6      0.05965521      0.03113872     30.4
 <Apr24-2019> <15:50:23>      7      0.02772165      0.01840468     17.6
 <Apr24-2019> <15:50:24>      8      0.00449923      0.00308126      2.1
 <Apr24-2019> <15:50:24>      9      0.00001936      0.00001211      0.0
 <Apr24-2019> <15:50:24>     10      0.00000184      0.00000123      0.0
 <Apr24-2019> <15:50:24>     11      0.00000005      0.00000003      0.0
 <Apr24-2019> <15:50:24>     12      0.00000000      0.00000000      0.0
 <Apr24-2019> <15:50:24>  SCF converged
 <Apr24-2019> <15:50:24>     13      0.00000000      0.00000000      0.0
 <Apr24-2019> <15:50:24>  >>>> POPAN
 <Apr24-2019> <15:50:24>  >>>> DEBYE
 <Apr24-2019> <15:50:24>  NORMAL TERMINATION
 <Apr24-2019> <15:50:24>  END

Create C   file=TZ2P-C
XC
  GGA BP86
End
End Input

 *******************************************************************************
 *                                                                             *
 *  -------------------------------------                                      *
 *   Amsterdam Density Functional  (ADF)         development version           *
 *  -------------------------------------                                      *
 *                                               r61132 2017-09-08             *
 *                                                                             *
 *                                                                             *
 *                              =================                              *
 *                              |               |                              *
 *                              |     A D F     |                              *
 *                              |               |                              *
 *                              =================                              *
 *                                                                             *
 *                                                                             *
 *   Online information and documentation:  https://www.scm.com/support/       *
 *   E-mail:  support@scm.com   info@scm.com                                   *
 *                                                                             *
 *   Scientific publications using ADF results must be properly referenced     *
 *   See the User Manuals (or the web site) for recommended citations          *
 *   The terms and conditions of the End User License Agreement apply to       *
 *   the use of ADF, https://www.scm.com/license-terms/                        *
 *                                                                             *
 **********************  x86_64_linux_intel / intelmpi  ************************
 
 Licensed to: VU/FEW (+ SARA) / ALGEMEEN / Amsterdam / THE NETHERLANDS
 SCM User ID: u7668
  
 ADF development version  RunTime: Apr24-2019 15:50:24  Nodes: 1  Procs: 1

 Temporary files are created in /local/datastore0/tcst25/187516/kid_0.rXJwdu

 Carbon (TZ2P)



 ===========================
 A T T A C H E D   F I L E S
 ===========================
  
 CREATE - Data File:    TZ2P-C
                        Carbon (TZ2P)



 ===============================
 M O D E L   P A R A M E T E R S
 ===============================
  
 DENSITY FUNCTIONAL POTENTIAL (scf)
    LDA:                               VWN                                      
    Gradient Corrections:              Becke88 Perdew86                        == Not Default ==

 SPIN  (restricted / unrestr.)
    Molecule:                          Restricted                               

 OTHER ASPECTS
    Relativistic Corrections:          ---                                      

    Nuclear Charge Density Model:      Point Charge Nuclei                      
    Core Treatment:                    Frozen Orbital(s)                        

    Hyperfine or Zeeman Interaction:   ---                                      



 =====================================
 S Y M M E T R Y ,   E L E C T R O N S
 =====================================
  
 Symmetry: ATOM

 Irreducible Representations, including subspecies
 -------------------------------------------------
 S
 P:x  P:y  P:z
 D:z2  D:x2-y2  D:xy  D:xz  D:yz
 F:z3  F:z  F:xyz  F:z2x  F:z2y  F:x  F:y


 Configuration of Valence Electrons
 ==================================

          Occupation Numbers
          -------------------------------------------------
 S        2*2
 P        2
 D        0
 F        0
          -------------------------------------------------

 Total:   6

 Net Charge: 0 (Nuclei minus Electrons)

 Preset values for MO occupations will be applied through SCF cycle no. 1000000
 Thereafter, the program will assign electrons to MOs that are spatially
 similar to the occupied MOs in a "reference" cycle ("KeepOrbitals").
 The reference cycle is always the PREVIOUS cycle: it will evolve with
 the SCF procedure.



 ================================
 (Slater-type)  F U N C T I O N S  ***  (Basis and Fit)  ***
 ================================
  

 Atom Type    1  (C)
 ==============

 Valence Basis Sets:  10
 -----------------------
   1 S    7.680000
   1 S    5.000000
   2 S    1.280000
   2 S    2.100000
   2 S    4.600000
   2 P    0.820000
   2 P    1.480000
   2 P    2.940000
   3 D    2.200000
   4 F    3.300000


 BAS: List of all Elementary Cartesian Basis Functions
 =====================================================

 The numbering in the list below (to the right of the function characteristics) is referred
 to in print-outs of MO eigenvectors and Mulliken populations in the BAS representation
 (as contrasted to the SFO representation).

 Notes:
 1. The functions are characterized by a polynomial prefactor (powers of x,y,z and r) and
    an exponential decay factor alpha.
 2. Since the basis sets are specific for an atom TYPE, the individual functions occur on
    all atoms of that type.
 3. The word 'Core' in the left margin signals that it is a Core Function (CF) : not a
    degree of freedom in the valence set, but only used to ensure orthogonalization of
    the other valence basis functions on the frozen Core Orbitals.


 (power of) X  Y  Z  R     Alpha  on Atom
            ==========     =====     ==========

 C                                    1
                                  ---------------------------------------------------------------------------
            0  0  0  0     7.680      1
            0  0  0  0     5.000      2
            0  0  0  1     1.280      3
            0  0  0  1     2.100      4
            0  0  0  1     4.600      5
            1  0  0  0     0.820      6
            0  1  0  0     0.820      7
            0  0  1  0     0.820      8
            1  0  0  0     1.480      9
            0  1  0  0     1.480     10
            0  0  1  0     1.480     11
            1  0  0  0     2.940     12
            0  1  0  0     2.940     13
            0  0  1  0     2.940     14
            2  0  0  0     2.200     15
            1  1  0  0     2.200     16
            1  0  1  0     2.200     17
            0  2  0  0     2.200     18
            0  1  1  0     2.200     19
            0  0  2  0     2.200     20
            3  0  0  0     3.300     21
            2  1  0  0     3.300     22
            2  0  1  0     3.300     23
            1  2  0  0     3.300     24
            1  1  1  0     3.300     25
            1  0  2  0     3.300     26
            0  3  0  0     3.300     27
            0  2  1  0     3.300     28
            0  1  2  0     3.300     29
            0  0  3  0     3.300     30

 Total number of charge fitting functions (nprimf)        84
 Total number of Cartesian basis functions (naos)         30
 Total number of Cartesian core functions  (ncos)          0



 BAS: List of all Elementary Cartesian Basis Functions
 =====================================================

 The numbering in the list below (to the right of the function characteristics) is referred
 to in print-outs of MO eigenvectors and Mulliken populations in the BAS representation
 (as contrasted to the SFO representation).

 Notes:
 1. The functions are characterized by a polynomial prefactor (powers of x,y,z and r) and
    an exponential decay factor alpha.
 2. Since the basis sets are specific for an atom TYPE, the individual functions occur on
    all atoms of that type.
 3. The word 'Core' in the left margin signals that it is a Core Function (CF) : not a
    degree of freedom in the valence set, but only used to ensure orthogonalization of
    the other valence basis functions on the frozen Core Orbitals.


 (power of) X  Y  Z  R     Alpha  on Atom
            ==========     =====     ==========

 C                                    1
                                  ---------------------------------------------------------------------------
            0  0  0  0     7.680      1
            0  0  0  0     5.000      2
            0  0  0  1     1.280      3
            0  0  0  1     2.100      4
            0  0  0  1     4.600      5
            1  0  0  0     0.820      6
            0  1  0  0     0.820      7
            0  0  1  0     0.820      8
            1  0  0  0     1.480      9
            0  1  0  0     1.480     10
            0  0  1  0     1.480     11
            1  0  0  0     2.940     12
            0  1  0  0     2.940     13
            0  0  1  0     2.940     14
            2  0  0  0     2.200     15
            1  1  0  0     2.200     16
            1  0  1  0     2.200     17
            0  2  0  0     2.200     18
            0  1  1  0     2.200     19
            0  0  2  0     2.200     20
            3  0  0  0     3.300     21
            2  1  0  0     3.300     22
            2  0  1  0     3.300     23
            1  2  0  0     3.300     24
            1  1  1  0     3.300     25
            1  0  2  0     3.300     26
            0  3  0  0     3.300     27
            0  2  1  0     3.300     28
            0  1  2  0     3.300     29
            0  0  3  0     3.300     30
1
 ***************************************************************************************************



                                              ***********************
                                              *  T E C H N I C A L  *
                                              ***********************
  



 =============================================================
 P A R A L L E L I Z A T I O N  and  V E C T O R I Z A T I O N
 =============================================================
  
 Nr of parallel processes:                                1
 Maximum vector length in NumInt loops:                 128

 IO buffersize (Mb):                                     64.000000



 =====================
 S C F   U P D A T E S
 =====================
  
 Max. nr. of cycles:                               300
 Convergence criterion:                              0.0000000100
   secondary criterion:                              0.0000000100

 Mix parameter (when DIIS does not apply):           0.2000000000
 Special mix parameter for the first cycle:          1.0000000000
 Mixed ADIIS+DIIS will be used
    Max number of expansion vectors:                10
    Pure ADIIS when Max([F,P]) is above              0.1000000000
    Pure DIIS when Max([F,P]) is below               0.0010000000
 Automatic ElectronSmearing (in case of problematic SCF convergence) disabled



 =================
 P R E C I S I O N  ***  (General: NumInt, NeglectFunctionTails, ...)  ***
 =================
  

 NumInt:           Target precision:                12.0000000000
 -------           Initial precision:               10.0000000000
                   Min. precision (optimization):   10.0000000000

 Neglect Functions:          Basis functions:        0.1000000000E-13
 ------------------          Fit functions:          0.1000000000E-13



 ===========================
 L I N E A R   S C A L I N G
 ===========================
  

 Cut-off radii density fit:                        0.1000000000E-97
 Overlap cut-off criterion AO matrix elements:     0.1000000000E-97
 Cut-offs for Coulomb potential and fitted density:0.1000000000E-97
 Cut-off criterion for Coulomb multipole terms:    0.1000000000E-97
 Progressive Convergence parameter:                 0.000000000    
1
 ***************************************************************************************************



                                            ***************************
                                            *  C O M P U T A T I O N  *
                                            ***************************
  

 Number of elements of the density matrix on this node (used, total):       465       465



 ===========================================
 Numerical Integration : Fuzzy Cells (Becke)
 ===========================================
  
 Becke grid quality: VERYGOOD       
  
 Lebedev angular grid order:             min:  13 max:  41
 Nr. of radial points:                   min:  72 max:  72

 Total nr. of points:         72
 Nr. of blocks:                1
 Block length:                72
 Nr. of dummy points:          0


 Test of Precision of the Numerical Integration Grid
 ===================================================

 Integral of the Total Core Density:                   0.00000000000000



 ========================
 Density Fitting (zlmFit)
 ========================
  
 ZlmFit Fit Quality: VERYGOOD       
  
 Max L-expansion:                        min:   0 max:   0
 Nr. of radial interpolation points:     min: 160 max: 160



 =====
 S C F  ***  ScaSCF  ***
 =====
  

 CYCLE    1
 SCF Error: norm([F,P])=      0.000000000000, max([F,P])=      0.000000000000
 orbitals (Q,E):
 ---------------
 S :1...5            ( 2.00   -17.9995)  ( 2.00    -4.4761)  ( 0.00    -1.9482)  ( 0.00     0.6812)
                     ( 0.00    42.8100)
 P :1...3            ( 2.00    -4.4994)  ( 0.00    -1.9807)  ( 0.00    -1.0849)
 D :1...1            ( 0.00    -1.9800)
 F :1...1            ( 0.00     0.4950)

 CYCLE    2
  SDIIS (wt  0.000):  1.0000 -0.0000
 A-DIIS (wt  1.000):  0.0000  1.0000
  DIIS coefficients:  0.0000  1.0000
 SCF Error: norm([F,P])=      4.483247543453, max([F,P])=      3.319692437215
 orbitals (Q,E):
 ---------------
 S :1...3            ( 2.00    -7.7796)  ( 2.00    -0.0272)  ( 0.00     0.8405)
 P :1...2            ( 2.00     0.1088)  ( 0.00     0.5815)
 D :1...1            ( 0.00     1.7650)
 F :1...1            ( 0.00     4.6321)

 CYCLE    3
  SDIIS (wt  0.000):  0.2146  0.7854
 A-DIIS (wt  1.000):  0.1002  0.8998
  DIIS coefficients:  0.1002  0.8998
 SCF Error: norm([F,P])=      1.615377071090, max([F,P])=      1.304101935147
 orbitals (Q,E):
 ---------------
 S :1...3            ( 2.00   -11.0618)  ( 2.00    -0.9719)  ( 0.00     0.1026)
 P :1...2            ( 2.00    -0.6633)  ( 0.00     0.0057)
 D :1...1            ( 0.00     0.8110)
 F :1...1            ( 0.00     3.5316)

 CYCLE    4
  SDIIS (wt  0.000): -0.0646  0.2204  0.8442
 A-DIIS (wt  1.000):  0.0000  0.0669  0.9331
  DIIS coefficients:  0.0000  0.0669  0.9331
 SCF Error: norm([F,P])=      0.727062835235, max([F,P])=      0.590531306529
 orbitals (Q,E):
 ---------------
 S :1...3            ( 2.00    -9.5928)  ( 2.00    -0.3589)  ( 0.00     0.4870)
 P :1...2            ( 2.00    -0.0657)  ( 0.00     0.2593)
 D :1...1            ( 0.00     1.3775)
 F :1...1            ( 0.00     4.1761)

 CYCLE    5
  SDIIS (wt  0.000): -0.0190 -0.0582  0.3730  0.7042
 A-DIIS (wt  1.000):  0.0000  0.0000  0.2349  0.7651
  DIIS coefficients:  0.0000  0.0000  0.2349  0.7651
 SCF Error: norm([F,P])=      0.408986877990, max([F,P])=      0.332637996056
 orbitals (Q,E):
 ---------------
 S :1...3            ( 2.00   -10.2125)  ( 2.00    -0.5796)  ( 0.00     0.3271)
 P :1...2            ( 2.00    -0.2644)  ( 0.00     0.1416)
 D :1...1            ( 0.00     1.1659)
 F :1...1            ( 0.00     3.9304)

 CYCLE    6
  SDIIS (wt  0.000):  0.0033 -0.0108 -0.0812  0.2121  0.8767
 A-DIIS (wt  1.000):  0.0000  0.0000  0.0000  0.0000  1.0000
  DIIS coefficients:  0.0000  0.0000  0.0000  0.0000  1.0000
 SCF Error: norm([F,P])=      0.135489187246, max([F,P])=      0.105944162354
 orbitals (Q,E):
 ---------------
 S :1...3            ( 2.00    -9.9299)  ( 2.00    -0.4611)  ( 0.00     0.4052)
 P :1...2            ( 2.00    -0.1536)  ( 0.00     0.1986)
 D :1...1            ( 0.00     1.2786)
 F :1...1            ( 0.00     4.0598)

 CYCLE    7
  SDIIS (wt  0.092): -0.0004  0.0033  0.0106 -0.1524  0.2655  0.8734
 A-DIIS (wt  0.908):  0.0000  0.0000  0.0000  0.0000  0.3950  0.6050
  DIIS coefficients: -0.0000  0.0003  0.0010 -0.0140  0.3831  0.6297
 SCF Error: norm([F,P])=      0.114064321572, max([F,P])=      0.090880191346
 orbitals (Q,E):
 ---------------
 S :1...3            ( 2.00   -10.0707)  ( 2.00    -0.5153)  ( 0.00     0.3674)
 P :1...2            ( 2.00    -0.2035)  ( 0.00     0.1706)
 D :1...1            ( 0.00     1.2270)
 F :1...1            ( 0.00     4.0001)

 CYCLE    8
  SDIIS (wt  0.917): -0.0001  0.0008  0.0035 -0.0258 -0.0091  0.1766  0.8542
 A-DIIS (wt  0.083):  0.0000  0.0000  0.0000  0.0000  0.0000  0.0000  1.0000
  DIIS coefficients: -0.0001  0.0008  0.0032 -0.0237 -0.0084  0.1619  0.8663
 SCF Error: norm([F,P])=      0.011703250036, max([F,P])=      0.009265507995
 orbitals (Q,E):
 ---------------
 S :1...3            ( 2.00   -10.0567)  ( 2.00    -0.5096)  ( 0.00     0.3711)
 P :1...2            ( 2.00    -0.1982)  ( 0.00     0.1732)
 D :1...1            ( 0.00     1.2325)
 F :1...1            ( 0.00     4.0064)

 CYCLE    9
  SDIIS (wt  1.000): -0.0000 -0.0000  0.0001  0.0005  0.0017 -0.0121 -0.0564  1.0662
  DIIS coefficients: -0.0000 -0.0000  0.0001  0.0005  0.0017 -0.0121 -0.0564  1.0662
 SCF Error: norm([F,P])=      0.000780147844, max([F,P])=      0.000617910359
 orbitals (Q,E):
 ---------------
 S :1...3            ( 2.00   -10.0576)  ( 2.00    -0.5099)  ( 0.00     0.3708)
 P :1...2            ( 2.00    -0.1985)  ( 0.00     0.1730)
 D :1...1            ( 0.00     1.2321)
 F :1...1            ( 0.00     4.0060)

 CYCLE   10
  SDIIS (wt  1.000): -0.0000  0.0000  0.0000 -0.0001  0.0000  0.0004  0.0021  0.0101  0.9875
  DIIS coefficients: -0.0000  0.0000  0.0000 -0.0001  0.0000  0.0004  0.0021  0.0101  0.9875
 SCF Error: norm([F,P])=      0.000001779707, max([F,P])=      0.000001066207
 orbitals (Q,E):
 ---------------
 S :1...3            ( 2.00   -10.0576)  ( 2.00    -0.5099)  ( 0.00     0.3708)
 P :1...2            ( 2.00    -0.1985)  ( 0.00     0.1730)
 D :1...1            ( 0.00     1.2321)
 F :1...1            ( 0.00     4.0060)

 CYCLE   11
  SDIIS (wt  1.000): -0.0000  0.0000  0.0000 -0.0003 -0.0294  1.0296
  DIIS coefficients: -0.0000  0.0000  0.0000 -0.0003 -0.0294  1.0296
 SCF Error: norm([F,P])=      0.000000243303, max([F,P])=      0.000000187858
 orbitals (Q,E):
 ---------------
 S :1...3            ( 2.00   -10.0576)  ( 2.00    -0.5099)  ( 0.00     0.3708)
 P :1...2            ( 2.00    -0.1985)  ( 0.00     0.1730)
 D :1...1            ( 0.00     1.2321)
 F :1...1            ( 0.00     4.0060)

 CYCLE   12
  SDIIS (wt  1.000): -0.0000  0.0000 -0.0010  0.0336  0.9674
  DIIS coefficients: -0.0000  0.0000 -0.0010  0.0336  0.9674
 SCF Error: norm([F,P])=      0.000000000721, max([F,P])=      0.000000000394
 orbitals (Q,E):
 ---------------
 S :1...3            ( 2.00   -10.0576)  ( 2.00    -0.5099)  ( 0.00     0.3708)
 P :1...2            ( 2.00    -0.1985)  ( 0.00     0.1730)
 D :1...1            ( 0.00     1.2321)
 F :1...1            ( 0.00     4.0060)

 SCF CONVERGED

 CYCLE   13
1
 ***************************************************************************************************



                                                *******************
                                                *  R E S U L T S  *
                                                *******************
  
 *** Setting up for NEW gradients in Focky
 *** Using FIT density in Focky

 Orbital Energies, per Irrep and Spin:
 ======================================
                        Occup              E (au)              E (eV)       Diff (eV) with prev. cycle
                        -----      --------------------        ------       --------------------------
 S
               1        2.000     -0.10057606152104E+02      -273.681               4.15E-11
               2        2.000     -0.50994760171307E+00       -13.876               2.96E-11
               3        0.000      0.37082872313775E+00        10.091
               4        0.000      0.54281205268456E+01       147.707
               5        0.000      0.50180681036974E+02      1365.486
 P
               1        2.000     -0.19854276084075E+00        -5.403               3.88E-11
               2        0.000      0.17303455321757E+00         4.709
               3        0.000      0.20264846286165E+01        55.143
 D
               1        0.000      0.12321250634418E+01        33.528
 F
               1        0.000      0.40060208332446E+01       109.009


 Partially Occupied:
               1 P                -0.19854276084075E+00
  
 HOMO :        2 S                -0.50994760171307E+00
 LUMO :        2 P                 0.17303455321757E+00
  


 Orbital Energies, all Irreps
 ========================================

 Irrep        no.  (spin)   Occup              E (au)                E (eV)
 ---------------------------------------------------------------------------
 S             1             2.00       -0.10057606152104E+02      -273.6814
 S             2             2.00       -0.50994760171307E+00       -13.8764
 P             1             2.00       -0.19854276084075E+00        -5.4026
 P             2             0.00        0.17303455321757E+00         4.7085
 S             3             0.00        0.37082872313775E+00        10.0908
 D             1             0.00        0.12321250634418E+01        33.5278
 P             3             0.00        0.20264846286165E+01        55.1435
 F             1             0.00        0.40060208332446E+01       109.0094
 S             4             0.00        0.54281205268456E+01       147.7067
 S             5             0.00        0.50180681036974E+02      1365.4858


 All Electron Calculation, thus no Orbital Energies of the Core Orbitals are calculated



 =======================================
 M U L L I K E N   P O P U L A T I O N S
 =======================================
  
 The survey below gives for each atom:
 a) the total charge (Z minus electrons)
 b) the net spin polarization (nr of electrons spin-A minus spin-B)
 c) for each spin the atomic electron valence density (integrated) per L-value.

 Atom              Charge    Spin density          S         P         D         F
 ----              ------    ------------       ------    ------    ------    ------
 1 C              -0.0000                       4.0000    2.0000    0.0000    0.0000

 Populations of individual BAS functions
 ----------------------------------------
 1 C            0.4834  1.5186  0.9350  1.1213 -0.0582  0.1723  0.1723  0.1723  0.3913  0.3913
                0.3913  0.1031  0.1031  0.1031  0.0000  0.0000  0.0000  0.0000  0.0000  0.0000
                0.0000  0.0000  0.0000  0.0000  0.0000  0.0000  0.0000  0.0000  0.0000  0.0000

 Gross Charges per Atom (Z minus electrons)
 ==========================================
            -0.0000
 Net Total: -0.00000000



 =======================================================================
 Electrostatic potential at the Nuclei due to electrons and other nuclei
 =======================================================================
  
         Atom                  Potential
         ----                  ---------
     1)   C                  14.66972860
 
 
 ========================
 No memory problems found
 ========================
 
 Maximum number of active allocate calls:         447
 
 *******************************************************************************

                             A D F   E X I T
 NORMAL TERMINATION



 =================
 Timing Statistics
 =================
  
 Total Used :                     CPU=        0.49      System=        0.02     Elapsed=        0.51

 Calls  Section                     ( Mean, Percentage )
 ---------------------------------------------------------------------------------------------------
     3  ><      ................      0.00    0.20             0.00    0.00             0.00    0.15
     1  INIT    ................      0.01    1.63             0.02   69.56             0.03    4.88
     1  GEOMET  ................      0.00    1.02             0.00   13.05             0.01    1.61
     1  INPUTA  ................      0.00    0.20             0.00    0.00             0.00    0.29
     1  MAINSY  ................      0.01    1.22             0.00    0.00             0.01    1.16
     1  SYMFIT  ................      0.00    0.20             0.00    0.00             0.00    0.15
     1  CORORT  ................      0.00    0.00             0.00    0.00             0.00    0.05
     1  SYMORB  ................      0.00    0.20             0.00    0.00             0.00    0.13
     1  CLSMAT  ................      0.01    1.02             0.00    0.00             0.01    1.01
     1  ORTHON  ................      0.00    0.41             0.00    0.00             0.00    0.29
     1  GENPT   ................      0.01    3.06             0.00    0.00             0.01    2.87
     1  PTBAS   ................      0.00    0.61             0.00    0.00             0.00    0.68
    13  FOCKY   ................      0.03   75.31             0.00    0.00             0.03   71.78
    13  FOCKTR  ................      0.00    1.84             0.00    0.00             0.00    2.12
    13  SDIIS   ................      0.00    4.29             0.00    8.70             0.00    4.05
     1  COREPS  ................      0.02    4.08             0.00    4.34             0.02    4.07
     1  POPAN   ................      0.00    1.02             0.00    0.00             0.01    1.01
     1  DEBYE   ................      0.00    0.00             0.00    0.00             0.00    0.11
     1  EXIT PROCEDURE .........      0.02    3.67             0.00    4.35             0.02    3.58


 Currently Open Files (EXIT00)
 ====================

 Unit    Access Format  Status   Type       Ident (file)
 -------------------------------------------------------
   3      SEQ    FORM   TRANSP  NORMAL      LOGFILE
                                          ( logfile )


 Buffered I/O statistics
 =======================
 Memory available:                     67108864
 Number of records fitting in memory:     16131
 Input :   0.1% of                        27797  *4k bytes
 Output:  13.6% of                         1374  *4k bytes
 Records from serial files evicted:           0
                    others evicted:           0
 Hash table lookups:      71849 with          0 conflicts (  0.00%)

 ***************************************************************************************************
 (LOGFILE)
 <Apr24-2019> <15:50:23>  ADF development version  RunTime: Apr24-2019 15:50:23  Nodes: 1  Procs: 1
 <Apr24-2019> <15:50:23>  Hydrogen (TZ2P)
 <Apr24-2019> <15:50:23>  RunType   : CREATE
 <Apr24-2019> <15:50:23>  Net Charge: 0 (Nuclei minus Electrons)
 <Apr24-2019> <15:50:23>  Symmetry  : ATOM
  Coordinates
    Atom         X           Y           Z   (Angstrom)
    1.H         0.000000    0.000000    0.000000
 <Apr24-2019> <15:50:23>  >>>> CORORT
 <Apr24-2019> <15:50:23>  >>>> CLSMAT
 <Apr24-2019> <15:50:23>  >>>> ORTHON
 <Apr24-2019> <15:50:23>  >>>> GENPT
 <Apr24-2019> <15:50:23>  Block Length=  64
 <Apr24-2019> <15:50:23>  >>>> PTBAS
 <Apr24-2019> <15:50:23>  >>>> CYCLE
 <Apr24-2019> <15:50:23>              |Error|         MaxErr       Wt(A-DIIS)
 <Apr24-2019> <15:50:23>      1      0.00000000      0.00000000
 <Apr24-2019> <15:50:23>      2      0.03052616      0.02968253
 <Apr24-2019> <15:50:23>      3      0.00718306      0.00671215    100.0
 <Apr24-2019> <15:50:23>      4      0.00117509      0.00114306      0.1
 <Apr24-2019> <15:50:23>      5      0.00002753      0.00002354      0.0
 <Apr24-2019> <15:50:23>      6      0.00000151      0.00000129      0.0
 <Apr24-2019> <15:50:23>      7      0.00000000      0.00000000      0.0
 <Apr24-2019> <15:50:23>  SCF converged
 <Apr24-2019> <15:50:23>      8      0.00000000      0.00000000      0.0
 <Apr24-2019> <15:50:23>  >>>> POPAN
 <Apr24-2019> <15:50:23>  >>>> DEBYE
 <Apr24-2019> <15:50:23>  NORMAL TERMINATION
 <Apr24-2019> <15:50:23>  END
 <Apr24-2019> <15:50:23>  ADF development version  RunTime: Apr24-2019 15:50:23  Nodes: 1  Procs: 1
 <Apr24-2019> <15:50:23>  Nitrogen (TZ2P)
 <Apr24-2019> <15:50:23>  RunType   : CREATE
 <Apr24-2019> <15:50:23>  Net Charge: 0 (Nuclei minus Electrons)
 <Apr24-2019> <15:50:23>  Symmetry  : ATOM
  Coordinates
[...]


                      2999.943                      3001.983                      3002.238
              ------------------------      ------------------------      ------------------------
    1.C         -0.016  -0.055   0.019         0.019   0.064  -0.022         0.001   0.010  -0.004
    2.N         -0.000  -0.000   0.000         0.000   0.001  -0.000         0.001  -0.000  -0.001
    3.C          0.039   0.005  -0.029         0.024   0.002  -0.019         0.059   0.008  -0.043
    4.C         -0.028   0.042   0.014        -0.028   0.043   0.016         0.030  -0.046  -0.014
    5.H          0.355   0.269  -0.087        -0.415  -0.314   0.103        -0.063  -0.043   0.015
    6.H         -0.004  -0.013   0.004         0.004   0.017  -0.008         0.010   0.005   0.013
    7.H         -0.155   0.405  -0.143         0.182  -0.471   0.164         0.027  -0.078   0.028
    8.H         -0.288  -0.213   0.073        -0.175  -0.133   0.043        -0.435  -0.323   0.110
    9.H         -0.190   0.149   0.280        -0.122   0.093   0.177        -0.286   0.227   0.419
   10.H          0.009   0.001  -0.007         0.016   0.002   0.009         0.013   0.002  -0.015
   11.H          0.200  -0.163  -0.294         0.208  -0.171  -0.303        -0.218   0.174   0.319
   12.H         -0.006   0.010   0.005        -0.015   0.010  -0.007         0.002  -0.013  -0.013
   13.H          0.139  -0.346   0.120         0.138  -0.352   0.124        -0.151   0.378  -0.130




 List of All Frequencies:


 Intensities
 ===========

               Frequency       Dipole Strength        Absorption Intensity (degeneracy not counted)
                 cm-1           1e-40 esu2 cm2          km/mole
              ----------          ----------          ----------
              304.065618            0.001261            0.000096
              313.396868            3.490478            0.274194
              314.181788            3.496635            0.275365
              393.453256           65.162991            6.426466
              415.799532            0.000949            0.000099
              416.350053            0.003861            0.000403
              746.005616          131.003430           24.496432
              954.301468           99.949801           23.908129
              954.404019           99.772734           23.868339
             1025.806812            0.000174            0.000045
             1068.089467           12.325683            3.299869
             1068.353622           12.373929            3.313605
             1165.931503           82.838591           24.209388
             1215.588452           11.685116            3.560391
             1215.722612           11.710419            3.568494
             1367.271167            0.170431            0.058409
             1367.432734            0.171811            0.058889
             1401.636780           20.497662            7.201416
             1428.083075            0.005486            0.001964
             1435.211803           16.651494            5.990282
             1435.222200           16.978548            6.107982
             1449.322605           18.885556            6.860771
             1449.436063           18.691566            6.790829
             1454.521609           73.201371           26.688088
             2876.691063           77.963751           56.216528
             2876.845923           77.918982           56.187271
             2886.114234          170.042475          123.012432
             2963.888757          119.156794           88.523541
             2965.081753           14.307725           10.633723
             2965.231776           14.978332           11.132691
             2999.943437            0.389035            0.292536
             3001.983097           44.587430           33.550481
             3002.238088           44.948339           33.824926



 ============================
 Statistical Thermal Analysis  ***  ideal gas assumed  ***
 ============================
  
 Pressure:                  1.000000 atm.
 Temperature:             298.150000 K



 Moments of Inertia (and direction vectors)
 ==========================================

         212.7052        212.7405        371.3099
 ------------------------------------------------
          -0.8100          0.1021          0.5775
          -0.0487         -0.9930          0.1073
           0.5844          0.0588          0.8093


 The rotational contribution to the molecular entropy includes
 a term, dependent on the symmetry number sigma. The results 
 reported below were computed using sigma = 1, determined from
 the point group symmetry of the input geometry (NOSYM). 
 If this is not the correct symmetry, please contact SCM to report a bug.
 Contributions from frequencies below 20 1/cm are not included in
 the vibrational sums. Their contributions, if any, are reported separately.


     Temp                                                       Transl     Rotat    Vibrat     Total
     ----                                                       ------     -----    ------     -----

     298.15   Entropy (cal/mole-K):                             38.149    24.334     7.859    70.341
              Internal Energy (Kcal/mole):                       0.889     0.889    74.338    76.115
              Constant Volume Heat Capacity (cal/mole-K):        2.981     2.981    13.398    19.359

              Summary of energy terms
                                                   hartree              eV         kcal/mol           kJ/mol
                                      --------------------     -----------       ----------      -----------
              Bond Energy:              -2.475787046797885        -67.3696         -1553.58         -6500.18
              Internal Energy:           0.121297027573593          3.3007            76.12           318.47
              pV/n = RT:                 0.000944186013486          0.0257             0.59             2.48
              Enthalpy H:               -2.353545833210806        -64.0432         -1476.87         -6179.23
              -T*S:                     -0.033421290970430         -0.9094           -20.97           -87.75
              Gibbs free energy:        -2.386967124181235        -64.9527         -1497.84         -6266.98
 

 ***************************************************************************************************
 


====================================================================
*** DONE CALCULATING ANALYTICAL SECOND DERIVATIVES OF THE ENERGY ***
====================================================================

 
 
 ========================
 No memory problems found
 ========================
 
 Maximum number of active allocate calls:        2062
 
 *******************************************************************************

                             A D F   E X I T
 NORMAL TERMINATION



 =================
 Timing Statistics
 =================
  
 Total Used :                     CPU=      192.86      System=        2.37     Elapsed=      195.72

 Calls  Section                     ( Mean, Percentage )
 ---------------------------------------------------------------------------------------------------
     3  ><      ................      0.00    0.00             0.00    0.00             0.00    0.00
     1  INIT    ................      0.46    0.24             0.02    0.80             0.48    0.25
     1  GEOMET  ................      0.04    0.02             0.00    0.17             0.04    0.02
     1  FRAGM   ................      0.02    0.01             0.02    0.72             0.04    0.02
     1  INPUTA  ................      0.00    0.00             0.00    0.00             0.00    0.00
     1  ATDEN   ................      0.01    0.01             0.00    0.00             0.01    0.01
     1  MAINSY  ................      0.01    0.01             0.01    0.59             0.04    0.02
     1  SYMFIT  ................      0.01    0.00             0.00    0.00             0.01    0.00
     1  CORORT  ................      0.00    0.00             0.00    0.00             0.00    0.00
     1  SYMORB  ................      0.00    0.00             0.00    0.00             0.01    0.00
     1  CLSMAT  ................      0.01    0.01             0.00    0.08             0.01    0.01
     1  ORTHON  ................      0.01    0.01             0.01    0.38             0.02    0.01
     1  GENPT   ................      0.14    0.07             0.01    0.38             0.15    0.08
     1  PTBAS   ................      0.25    0.13             0.01    0.34             0.26    0.13
    12  FOCKY   ................      0.69    4.27             0.00    1.77             0.69    4.23
    12  FOCKTR  ................      0.00    0.02             0.00    0.63             0.00    0.03
    12  SDIIS   ................      0.00    0.02             0.00    0.25             0.00    0.02
     1  COREPS  ................      0.55    0.28             0.00    0.13             0.55    0.28
     1  TOTEN   ................      1.64    0.85             0.01    0.55             1.66    0.85
     1  POPAN   ................      0.00    0.00             0.00    0.13             0.01    0.00
     1  DEBYE   ................      0.01    0.00             0.00    0.04             0.01    0.00
     1  INPUTE  ................      0.00    0.00             0.00    0.00             0.00    0.00
     1  SYMORE  ................      0.00    0.00             0.00    0.00             0.00    0.00
     1  METS    ................      0.00    0.00             0.00    0.00             0.00    0.00
     1  CETS    ................      0.01    0.00             0.00    0.08             0.01    0.00
     2  ELNRGY  ................      0.48    0.49             0.00    0.21             0.48    0.49
     1  POPUL   ................      0.02    0.01             0.00    0.08             0.03    0.01
     1  ENGRAD  ................      0.00    0.00             0.00    0.04             0.00    0.00
     1  ENHESS  ................    180.38   93.53             2.18   92.19           183.01   93.51
     1  EXIT PROCEDURE .........      0.03    0.01             0.01    0.42             0.04    0.02


 Currently Open Files (EXIT00)
 ====================

 Unit    Access Format  Status   Type       Ident (file)
 -------------------------------------------------------
   3      SEQ    FORM   TRANSP  NORMAL      LOGFILE
                                          ( logfile )


 Buffered I/O statistics
 =======================
 Memory available:                     67108864
 Number of records fitting in memory:     16131
 Input :   0.1% of                      1018575  *4k bytes
 Output:   4.5% of                        33720  *4k bytes
 Records from serial files evicted:           0
                    others evicted:           0
 Hash table lookups:    2631604 with       9383 conflicts (  0.36%)

 ***************************************************************************************************
 (LOGFILE)
 <Apr24-2019> <15:50:23>  ADF development version  RunTime: Apr24-2019 15:50:23  Nodes: 1  Procs: 1
 <Apr24-2019> <15:50:23>  Hydrogen (TZ2P)
 <Apr24-2019> <15:50:23>  RunType   : CREATE
 <Apr24-2019> <15:50:23>  Net Charge: 0 (Nuclei minus Electrons)
 <Apr24-2019> <15:50:23>  Symmetry  : ATOM
  Coordinates
    Atom         X           Y           Z   (Angstrom)
    1.H         0.000000    0.000000    0.000000
 <Apr24-2019> <15:50:23>  >>>> CORORT
 <Apr24-2019> <15:50:23>  >>>> CLSMAT
 <Apr24-2019> <15:50:23>  >>>> ORTHON
 <Apr24-2019> <15:50:23>  >>>> GENPT
 <Apr24-2019> <15:50:23>  Block Length=  64
 <Apr24-2019> <15:50:23>  >>>> PTBAS
 <Apr24-2019> <15:50:23>  >>>> CYCLE
 <Apr24-2019> <15:50:23>              |Error|         MaxErr       Wt(A-DIIS)
 <Apr24-2019> <15:50:23>      1      0.00000000      0.00000000
 <Apr24-2019> <15:50:23>      2      0.03052616      0.02968253
 <Apr24-2019> <15:50:23>      3      0.00718306      0.00671215    100.0
 <Apr24-2019> <15:50:23>      4      0.00117509      0.00114306      0.1
 <Apr24-2019> <15:50:23>      5      0.00002753      0.00002354      0.0
 <Apr24-2019> <15:50:23>      6      0.00000151      0.00000129      0.0
 <Apr24-2019> <15:50:23>      7      0.00000000      0.00000000      0.0
 <Apr24-2019> <15:50:23>  SCF converged
 <Apr24-2019> <15:50:23>      8      0.00000000      0.00000000      0.0
 <Apr24-2019> <15:50:23>  >>>> POPAN
 <Apr24-2019> <15:50:23>  >>>> DEBYE
 <Apr24-2019> <15:50:23>  NORMAL TERMINATION
 <Apr24-2019> <15:50:23>  END
 <Apr24-2019> <15:50:23>  ADF development version  RunTime: Apr24-2019 15:50:23  Nodes: 1  Procs: 1
 <Apr24-2019> <15:50:23>  Nitrogen (TZ2P)
 <Apr24-2019> <15:50:23>  RunType   : CREATE
 <Apr24-2019> <15:50:23>  Net Charge: 0 (Nuclei minus Electrons)
 <Apr24-2019> <15:50:23>  Symmetry  : ATOM
  Coordinates
    Atom         X           Y           Z   (Angstrom)
    1.N         0.000000    0.000000    0.000000
 <Apr24-2019> <15:50:23>  >>>> CORORT
 <Apr24-2019> <15:50:23>  >>>> CLSMAT
 <Apr24-2019> <15:50:23>  >>>> ORTHON
 <Apr24-2019> <15:50:23>  >>>> GENPT
 <Apr24-2019> <15:50:23>  Block Length=  72
 <Apr24-2019> <15:50:23>  >>>> PTBAS
 <Apr24-2019> <15:50:23>  >>>> CYCLE
 <Apr24-2019> <15:50:23>              |Error|         MaxErr       Wt(A-DIIS)
 <Apr24-2019> <15:50:23>      1      0.00000000      0.00000000
 <Apr24-2019> <15:50:23>      2      6.45136737      4.21970309    100.0
 <Apr24-2019> <15:50:23>      3      2.48151769      1.95479559    100.0
 <Apr24-2019> <15:50:23>      4      0.97037111      0.64106549    100.0
 <Apr24-2019> <15:50:23>      5      0.83103458      0.57851138    100.0
 <Apr24-2019> <15:50:23>      6      0.05965521      0.03113872     30.4
 <Apr24-2019> <15:50:23>      7      0.02772165      0.01840468     17.6
 <Apr24-2019> <15:50:24>      8      0.00449923      0.00308126      2.1
 <Apr24-2019> <15:50:24>      9      0.00001936      0.00001211      0.0
 <Apr24-2019> <15:50:24>     10      0.00000184      0.00000123      0.0
 <Apr24-2019> <15:50:24>     11      0.00000005      0.00000003      0.0
 <Apr24-2019> <15:50:24>     12      0.00000000      0.00000000      0.0
 <Apr24-2019> <15:50:24>  SCF converged
 <Apr24-2019> <15:50:24>     13      0.00000000      0.00000000      0.0
 <Apr24-2019> <15:50:24>  >>>> POPAN
 <Apr24-2019> <15:50:24>  >>>> DEBYE
 <Apr24-2019> <15:50:24>  NORMAL TERMINATION
 <Apr24-2019> <15:50:24>  END
 <Apr24-2019> <15:50:24>  ADF development version  RunTime: Apr24-2019 15:50:24  Nodes: 1  Procs: 1
 <Apr24-2019> <15:50:24>  Carbon (TZ2P)
 <Apr24-2019> <15:50:24>  RunType   : CREATE
 <Apr24-2019> <15:50:24>  Net Charge: 0 (Nuclei minus Electrons)
 <Apr24-2019> <15:50:24>  Symmetry  : ATOM
  Coordinates
    Atom         X           Y           Z   (Angstrom)
    1.C         0.000000    0.000000    0.000000
 <Apr24-2019> <15:50:24>  >>>> CORORT
 <Apr24-2019> <15:50:24>  >>>> CLSMAT
 <Apr24-2019> <15:50:24>  >>>> ORTHON
 <Apr24-2019> <15:50:24>  >>>> GENPT
 <Apr24-2019> <15:50:24>  Block Length=  72
 <Apr24-2019> <15:50:24>  >>>> PTBAS
 <Apr24-2019> <15:50:24>  >>>> CYCLE
 <Apr24-2019> <15:50:24>              |Error|         MaxErr       Wt(A-DIIS)
 <Apr24-2019> <15:50:24>      1      0.00000000      0.00000000
 <Apr24-2019> <15:50:24>      2      4.48324754      3.31969244    100.0
 <Apr24-2019> <15:50:24>      3      1.61537707      1.30410194    100.0
 <Apr24-2019> <15:50:24>      4      0.72706284      0.59053131    100.0
 <Apr24-2019> <15:50:24>      5      0.40898688      0.33263800    100.0
 <Apr24-2019> <15:50:24>      6      0.13548919      0.10594416    100.0
 <Apr24-2019> <15:50:24>      7      0.11406432      0.09088019     90.8
 <Apr24-2019> <15:50:24>      8      0.01170325      0.00926551      8.3
 <Apr24-2019> <15:50:24>      9      0.00078015      0.00061791      0.0
 <Apr24-2019> <15:50:24>     10      0.00000178      0.00000107      0.0
 <Apr24-2019> <15:50:24>     11      0.00000024      0.00000019      0.0
 <Apr24-2019> <15:50:24>     12      0.00000000      0.00000000      0.0
 <Apr24-2019> <15:50:24>  SCF converged
 <Apr24-2019> <15:50:24>     13      0.00000000      0.00000000      0.0
 <Apr24-2019> <15:50:24>  >>>> POPAN
 <Apr24-2019> <15:50:24>  >>>> DEBYE
 <Apr24-2019> <15:50:24>  NORMAL TERMINATION
 <Apr24-2019> <15:50:24>  END
 <Apr24-2019> <15:50:24>  ADF development version  RunTime: Apr24-2019 15:50:24  Nodes: 1  Procs: 12
 <Apr24-2019> <15:50:25>  *** (NO TITLE) ***
 <Apr24-2019> <15:50:25>  RunType   : SINGLE POINT
 <Apr24-2019> <15:50:25>  Net Charge: 0 (Nuclei minus Electrons)
 <Apr24-2019> <15:50:25>  Symmetry  : NOSYM
 <Apr24-2019> <15:50:25>  >>>> FRAGM
  Coordinates
    Atom         X           Y           Z   (Angstrom)
    1.C         1.156324   -0.871820   -0.975393
    2.N         0.369650   -0.257841    0.135666
    3.C        -0.138996    1.074230   -0.308947
    4.C        -0.793487   -1.139857    0.451621
    5.H         2.012123   -0.215582   -1.203437
    6.H         0.522746   -0.989753   -1.873577
    7.H         1.522687   -1.856954   -0.643228
    8.H         0.723811    1.718498   -0.544617
    9.H        -0.720968    1.520109    0.514079
   10.H        -0.778810    0.960636   -1.203301
   11.H        -1.372133   -0.678360    1.268367
   12.H        -1.434792   -1.262204   -0.440532
   13.H        -0.411541   -2.121565    0.776248
 <Apr24-2019> <15:50:25>  >>>> CORORT
 <Apr24-2019> <15:50:25>  >>>> CLSMAT
 <Apr24-2019> <15:50:25>  >>>> ORTHON
 <Apr24-2019> <15:50:25>  >>>> GENPT
 <Apr24-2019> <15:50:25>  Block Length= 128
 <Apr24-2019> <15:50:25>  >>>> PTBAS
 <Apr24-2019> <15:50:25>  >>>> CYCLE
 <Apr24-2019> <15:50:26>              |Error|         MaxErr       Wt(A-DIIS)
 <Apr24-2019> <15:50:26>      1      5.02919471      0.99921545
 <Apr24-2019> <15:50:27>      2      0.94332017      0.16940791    100.0
 <Apr24-2019> <15:50:28>      3      0.50107326      0.08590893    100.0
 <Apr24-2019> <15:50:28>      4      0.79992155      0.14717474    100.0
 <Apr24-2019> <15:50:29>      5      0.14464698      0.02422910     23.5
 <Apr24-2019> <15:50:30>      6      0.09438866      0.02126122     20.5
 <Apr24-2019> <15:50:30>      7      0.01644661      0.00398733      3.0
 <Apr24-2019> <15:50:31>      8      0.00191705      0.00044357      0.0
 <Apr24-2019> <15:50:32>      9      0.00027665      0.00005077      0.0
 <Apr24-2019> <15:50:32>     10      0.00002331      0.00000377      0.0
 <Apr24-2019> <15:50:33>     11      0.00000346      0.00000063      0.0
 <Apr24-2019> <15:50:33>  SCF converged
 <Apr24-2019> <15:50:34>     12      0.00000304      0.00000068      0.0
 <Apr24-2019> <15:50:34>  >>>> TOTEN
 <Apr24-2019> <15:50:36>  >>>> POPAN
 <Apr24-2019> <15:50:36>  >>>> DEBYE
 <Apr24-2019> <15:50:36>  >>>> AMETS
 <Apr24-2019> <15:50:36>   Bond Energy          -2.47578705 a.u.
 <Apr24-2019> <15:50:36>   Bond Energy         -67.36959333 eV
 <Apr24-2019> <15:50:36>   Bond Energy       -1553.58       kcal/mol
 <Apr24-2019> <15:50:36>  >>>> POPUL
 <Apr24-2019> <15:50:36>  >>>> ENGRAD
 <Apr24-2019> <15:50:37>  >>>> ENHESS
 <Apr24-2019> <15:50:37>  === NUCLEUS:     1
 <Apr24-2019> <15:50:53>  === NUCLEUS:     2
 <Apr24-2019> <15:51:07>  === NUCLEUS:     3
 <Apr24-2019> <15:51:21>  === NUCLEUS:     4
 <Apr24-2019> <15:51:36>  === NUCLEUS:     5
 <Apr24-2019> <15:51:50>  === NUCLEUS:     6
 <Apr24-2019> <15:52:03>  === NUCLEUS:     7
 <Apr24-2019> <15:52:16>  === NUCLEUS:     8
 <Apr24-2019> <15:52:30>  === NUCLEUS:     9
 <Apr24-2019> <15:52:43>  === NUCLEUS:    10
 <Apr24-2019> <15:52:57>  === NUCLEUS:    11
 <Apr24-2019> <15:53:10>  === NUCLEUS:    12
 <Apr24-2019> <15:53:24>  === NUCLEUS:    13
 <Apr24-2019> <15:53:37>  >>>> CALC_HESS_PMAT
 <Apr24-2019> <15:53:39>  >>>> CALC_HESS_WMAT
 <Apr24-2019> <15:53:40>  NORMAL TERMINATION
 <Apr24-2019> <15:53:40>  END
