
Create H   file=TZ2P-H
XC
  GGA BP86
End
End Input

 *******************************************************************************
 *                                                                             *
 *  -------------------------------------                                      *
 *   Amsterdam Density Functional  (ADF)         development version           *
 *  -------------------------------------                                      *
 *                                               r61132 2017-09-08             *
 *                                                                             *
 *                                                                             *
 *                              =================                              *
 *                              |               |                              *
 *                              |     A D F     |                              *
 *                              |               |                              *
 *                              =================                              *
 *                                                                             *
 *                                                                             *
 *   Online information and documentation:  https://www.scm.com/support/       *
 *   E-mail:  support@scm.com   info@scm.com                                   *
 *                                                                             *
 *   Scientific publications using ADF results must be properly referenced     *
 *   See the User Manuals (or the web site) for recommended citations          *
 *   The terms and conditions of the End User License Agreement apply to       *
 *   the use of ADF, https://www.scm.com/license-terms/                        *
 *                                                                             *
 **********************  x86_64_linux_intel / intelmpi  ************************
 
 Licensed to: VU/FEW (+ SARA) / ALGEMEEN / Amsterdam / THE NETHERLANDS
 SCM User ID: u7668
  
 ADF development version  RunTime: Apr24-2019 15:49:54  Nodes: 1  Procs: 1

 Temporary files are created in /local/datastore0/tcst25/187509/kid_0.nYccJj

 Hydrogen (TZ2P)



 ===========================
 A T T A C H E D   F I L E S
 ===========================
  
 CREATE - Data File:    TZ2P-H
                        Hydrogen (TZ2P)



 ===============================
 M O D E L   P A R A M E T E R S
 ===============================
  
 DENSITY FUNCTIONAL POTENTIAL (scf)
    LDA:                               VWN                                      
    Gradient Corrections:              Becke88 Perdew86                        == Not Default ==

 SPIN  (restricted / unrestr.)
    Molecule:                          Restricted                               

 OTHER ASPECTS
    Relativistic Corrections:          ---                                      

    Nuclear Charge Density Model:      Point Charge Nuclei                      
    Core Treatment:                    Frozen Orbital(s)                        

    Hyperfine or Zeeman Interaction:   ---                                      



 =====================================
 S Y M M E T R Y ,   E L E C T R O N S
 =====================================
  
 Symmetry: ATOM

 Irreducible Representations, including subspecies
 -------------------------------------------------
 S
 P:x  P:y  P:z
 D:z2  D:x2-y2  D:xy  D:xz  D:yz
 F:z3  F:z  F:xyz  F:z2x  F:z2y  F:x  F:y


 Configuration of Valence Electrons
 ==================================

          Occupation Numbers
          -------------------------------------------------
 S        1
 P        0
 D        0
 F        0
          -------------------------------------------------

 Total:   1

 Net Charge: 0 (Nuclei minus Electrons)

 Preset values for MO occupations will be applied through SCF cycle no. 1000000
 Thereafter, the program will assign electrons to MOs that are spatially
 similar to the occupied MOs in a "reference" cycle ("KeepOrbitals").
 The reference cycle is always the PREVIOUS cycle: it will evolve with
 the SCF procedure.



 ================================
 (Slater-type)  F U N C T I O N S  ***  (Basis and Fit)  ***
 ================================
  

 Atom Type    1  (H)
 ==============

 Valence Basis Sets:   5
 -----------------------
   1 S    0.690000
   1 S    0.920000
   1 S    1.580000
   2 P    1.250000
   3 D    2.500000


 BAS: List of all Elementary Cartesian Basis Functions
 =====================================================

 The numbering in the list below (to the right of the function characteristics) is referred
 to in print-outs of MO eigenvectors and Mulliken populations in the BAS representation
 (as contrasted to the SFO representation).

 Notes:
 1. The functions are characterized by a polynomial prefactor (powers of x,y,z and r) and
    an exponential decay factor alpha.
 2. Since the basis sets are specific for an atom TYPE, the individual functions occur on
    all atoms of that type.
 3. The word 'Core' in the left margin signals that it is a Core Function (CF) : not a
    degree of freedom in the valence set, but only used to ensure orthogonalization of
    the other valence basis functions on the frozen Core Orbitals.


 (power of) X  Y  Z  R     Alpha  on Atom
            ==========     =====     ==========

 H                                    1
                                  ---------------------------------------------------------------------------
            0  0  0  0     0.690      1
            0  0  0  0     0.920      2
            0  0  0  0     1.580      3
            1  0  0  0     1.250      4
            0  1  0  0     1.250      5
            0  0  1  0     1.250      6
            2  0  0  0     2.500      7
            1  1  0  0     2.500      8
            1  0  1  0     2.500      9
            0  2  0  0     2.500     10
            0  1  1  0     2.500     11
            0  0  2  0     2.500     12

 Total number of charge fitting functions (nprimf)        50
 Total number of Cartesian basis functions (naos)         12
 Total number of Cartesian core functions  (ncos)          0



 BAS: List of all Elementary Cartesian Basis Functions
 =====================================================

 The numbering in the list below (to the right of the function characteristics) is referred
 to in print-outs of MO eigenvectors and Mulliken populations in the BAS representation
 (as contrasted to the SFO representation).

 Notes:
 1. The functions are characterized by a polynomial prefactor (powers of x,y,z and r) and
    an exponential decay factor alpha.
 2. Since the basis sets are specific for an atom TYPE, the individual functions occur on
    all atoms of that type.
 3. The word 'Core' in the left margin signals that it is a Core Function (CF) : not a
    degree of freedom in the valence set, but only used to ensure orthogonalization of
    the other valence basis functions on the frozen Core Orbitals.


 (power of) X  Y  Z  R     Alpha  on Atom
            ==========     =====     ==========

 H                                    1
                                  ---------------------------------------------------------------------------
            0  0  0  0     0.690      1
            0  0  0  0     0.920      2
            0  0  0  0     1.580      3
            1  0  0  0     1.250      4
            0  1  0  0     1.250      5
            0  0  1  0     1.250      6
            2  0  0  0     2.500      7
            1  1  0  0     2.500      8
            1  0  1  0     2.500      9
            0  2  0  0     2.500     10
            0  1  1  0     2.500     11
            0  0  2  0     2.500     12
1
 ***************************************************************************************************



                                              ***********************
                                              *  T E C H N I C A L  *
                                              ***********************
  



 =============================================================
 P A R A L L E L I Z A T I O N  and  V E C T O R I Z A T I O N
 =============================================================
  
 Nr of parallel processes:                                1
 Maximum vector length in NumInt loops:                 128

 IO buffersize (Mb):                                     64.000000



 =====================
 S C F   U P D A T E S
 =====================
  
 Max. nr. of cycles:                               300
 Convergence criterion:                              0.0000000100
   secondary criterion:                              0.0000000100

 Mix parameter (when DIIS does not apply):           0.2000000000
 Special mix parameter for the first cycle:          1.0000000000
 Mixed ADIIS+DIIS will be used
    Max number of expansion vectors:                10
    Pure ADIIS when Max([F,P]) is above              0.1000000000
    Pure DIIS when Max([F,P]) is below               0.0010000000
 Automatic ElectronSmearing (in case of problematic SCF convergence) disabled



 =================
 P R E C I S I O N  ***  (General: NumInt, NeglectFunctionTails, ...)  ***
 =================
  

 NumInt:           Target precision:                12.0000000000
 -------           Initial precision:               10.0000000000
                   Min. precision (optimization):   10.0000000000

 Neglect Functions:          Basis functions:        0.1000000000E-13
 ------------------          Fit functions:          0.1000000000E-13



 ===========================
 L I N E A R   S C A L I N G
 ===========================
  

 Cut-off radii density fit:                        0.1000000000E-97
 Overlap cut-off criterion AO matrix elements:     0.1000000000E-97
 Cut-offs for Coulomb potential and fitted density:0.1000000000E-97
 Cut-off criterion for Coulomb multipole terms:    0.1000000000E-97
 Progressive Convergence parameter:                 0.000000000    
1
 ***************************************************************************************************



                                            ***************************
                                            *  C O M P U T A T I O N  *
                                            ***************************
  

 Number of elements of the density matrix on this node (used, total):        78        78



 ===========================================
 Numerical Integration : Fuzzy Cells (Becke)
 ===========================================
  
 Becke grid quality: VERYGOOD       
  
 Lebedev angular grid order:             min:  13 max:  41
 Nr. of radial points:                   min:  64 max:  64

 Total nr. of points:         64
 Nr. of blocks:                1
 Block length:                64
 Nr. of dummy points:          0


 Test of Precision of the Numerical Integration Grid
 ===================================================

 Integral of the Total Core Density:                   0.00000000000000



 ========================
 Density Fitting (zlmFit)
 ========================
  
 ZlmFit Fit Quality: VERYGOOD       
  
 Max L-expansion:                        min:   0 max:   0
 Nr. of radial interpolation points:     min: 130 max: 130



 =====
 S C F  ***  ScaSCF  ***
 =====
  

 CYCLE    1
 SCF Error: norm([F,P])=      0.000000000000, max([F,P])=      0.000000000000
 orbitals (Q,E):
 ---------------
 S :1...3            ( 1.00    -0.5000)  ( 0.00    -0.0900)  ( 0.00     1.2939)
 P :1...1            ( 0.00     0.1562)
 D :1...1            ( 0.00     2.2917)

 CYCLE    2
 SCF Error: norm([F,P])=      0.030526162244, max([F,P])=      0.029682528591
 orbitals (Q,E):
 ---------------
 S :1...2            ( 1.00    -0.2270)  ( 0.00     0.1038)
 P :1...1            ( 0.00     0.4131)
 D :1...1            ( 0.00     2.5768)

 CYCLE    3
  SDIIS (wt  0.000):  0.1733  0.8267
 A-DIIS (wt  1.000):  0.0000  1.0000
  DIIS coefficients:  0.0000  1.0000
 SCF Error: norm([F,P])=      0.007183061946, max([F,P])=      0.006712148192
 orbitals (Q,E):
 ---------------
 S :1...2            ( 1.00    -0.2462)  ( 0.00     0.0917)
 P :1...1            ( 0.00     0.3973)
 D :1...1            ( 0.00     2.5583)

 CYCLE    4
  SDIIS (wt  0.999):  0.1398  0.8602
 A-DIIS (wt  0.001):  0.0000  1.0000
  DIIS coefficients:  0.1396  0.8604
 SCF Error: norm([F,P])=      0.001175086780, max([F,P])=      0.001143060931
 orbitals (Q,E):
 ---------------
 S :1...2            ( 1.00    -0.2434)  ( 0.00     0.0933)
 P :1...1            ( 0.00     0.3996)
 D :1...1            ( 0.00     2.5611)

 CYCLE    5
  SDIIS (wt  1.000):  0.0219  0.9781
  DIIS coefficients:  0.0219  0.9781
 SCF Error: norm([F,P])=      0.000027525369, max([F,P])=      0.000023543474
 orbitals (Q,E):
 ---------------
 S :1...2            ( 1.00    -0.2435)  ( 0.00     0.0932)
 P :1...1            ( 0.00     0.3996)
 D :1...1            ( 0.00     2.5610)

 CYCLE    6
  SDIIS (wt  1.000): -0.0582  1.0582
  DIIS coefficients: -0.0582  1.0582
 SCF Error: norm([F,P])=      0.000001514450, max([F,P])=      0.000001285214
 orbitals (Q,E):
 ---------------
 S :1...2            ( 1.00    -0.2435)  ( 0.00     0.0932)
 P :1...1            ( 0.00     0.3996)
 D :1...1            ( 0.00     2.5610)

 CYCLE    7
  SDIIS (wt  1.000): -0.0031  1.0031
  DIIS coefficients: -0.0031  1.0031
 SCF Error: norm([F,P])=      0.000000004705, max([F,P])=      0.000000004158
 orbitals (Q,E):
 ---------------
 S :1...2            ( 1.00    -0.2435)  ( 0.00     0.0932)
 P :1...1            ( 0.00     0.3996)
 D :1...1            ( 0.00     2.5610)

 SCF CONVERGED

 CYCLE    8
1
 ***************************************************************************************************



                                                *******************
                                                *  R E S U L T S  *
                                                *******************
  
 *** Setting up for NEW gradients in Focky
 *** Using FIT density in Focky

 Orbital Energies, per Irrep and Spin:
 ======================================
                        Occup              E (au)              E (eV)       Diff (eV) with prev. cycle
                        -----      --------------------        ------       --------------------------
 S
               1        1.000     -0.24350452296405E+00        -6.626               4.48E-09
               2        0.000      0.93233330888585E-01         2.537
               3        0.000      0.15154066862623E+01        41.236
 P
               1        0.000      0.39955072057198E+00        10.872
 D
               1        0.000      0.25610214787646E+01        69.689


 Partially Occupied:
               1 S                -0.24350452296405E+00
  
 LUMO :        2 S                 0.93233330888585E-01
  


 Orbital Energies, all Irreps
 ========================================

 Irrep        no.  (spin)   Occup              E (au)                E (eV)
 ---------------------------------------------------------------------------
 S             1             1.00       -0.24350452296405E+00        -6.6261
 S             2             0.00        0.93233330888585E-01         2.5370
 P             1             0.00        0.39955072057198E+00        10.8723
 S             3             0.00        0.15154066862623E+01        41.2363
 D             1             0.00        0.25610214787646E+01        69.6889


 All Electron Calculation, thus no Orbital Energies of the Core Orbitals are calculated



 =======================================
 M U L L I K E N   P O P U L A T I O N S
 =======================================
  
 The survey below gives for each atom:
 a) the total charge (Z minus electrons)
 b) the net spin polarization (nr of electrons spin-A minus spin-B)
 c) for each spin the atomic electron valence density (integrated) per L-value.

 Atom              Charge    Spin density          S         P         D         F
 ----              ------    ------------       ------    ------    ------    ------
 1 H               0.0000                       1.0000    0.0000    0.0000    0.0000

 Populations of individual BAS functions
 ----------------------------------------
 1 H            0.1853  0.7115  0.1032  0.0000  0.0000  0.0000  0.0000  0.0000  0.0000  0.0000
                0.0000  0.0000

 Gross Charges per Atom (Z minus electrons)
 ==========================================
             0.0000
 Net Total:  0.00000000



 =======================================================================
 Electrostatic potential at the Nuclei due to electrons and other nuclei
 =======================================================================
  
         Atom                  Potential
         ----                  ---------
     1)   H                   0.94550094
 
 
 ========================
 No memory problems found
 ========================
 
 Maximum number of active allocate calls:         363
 
 *******************************************************************************

                             A D F   E X I T
 NORMAL TERMINATION



 =================
 Timing Statistics
 =================
  
 Total Used :                     CPU=        0.30      System=        0.02     Elapsed=        0.33

 Calls  Section                     ( Mean, Percentage )
 ---------------------------------------------------------------------------------------------------
     3  ><      ................      0.00    0.33             0.00    0.00             0.00    0.24
     1  INIT    ................      0.01    2.98             0.02   68.00             0.03    8.74
     1  GEOMET  ................      0.01    2.32             0.00    8.00             0.01    2.65
     1  INPUTA  ................      0.00    0.33             0.00    0.00             0.00    0.44
     1  MAINSY  ................      0.00    1.32             0.00    8.00             0.01    1.79
     1  SYMFIT  ................      0.00    0.00             0.00    4.00             0.00    0.26
     1  CORORT  ................      0.00    0.00             0.00    0.00             0.00    0.08
     1  SYMORB  ................      0.00    0.33             0.00    0.00             0.00    0.16
     1  CLSMAT  ................      0.00    0.99             0.00    4.00             0.00    1.22
     1  ORTHON  ................      0.00    0.33             0.00    0.00             0.00    0.39
     1  GENPT   ................      0.01    3.31             0.00    0.00             0.01    2.96
     1  PTBAS   ................      0.00    0.99             0.00    0.00             0.00    1.03
     8  FOCKY   ................      0.03   68.87             0.00    4.00             0.03   63.56
     8  FOCKTR  ................      0.00    1.99             0.00    0.00             0.00    1.63
     8  SDIIS   ................      0.00    3.31             0.00    4.00             0.00    3.53
     1  COREPS  ................      0.02    5.30             0.00    0.00             0.02    4.77
     1  POPAN   ................      0.00    1.32             0.00    0.00             0.00    1.14
     1  DEBYE   ................      0.00    0.00             0.00    0.00             0.00    0.14
     1  EXIT PROCEDURE .........      0.02    5.96             0.00    0.00             0.02    5.25


 Currently Open Files (EXIT00)
 ====================

 Unit    Access Format  Status   Type       Ident (file)
 -------------------------------------------------------
   3      SEQ    FORM   TRANSP  NORMAL      LOGFILE
                                          ( logfile )


 Buffered I/O statistics
 =======================
 Memory available:                     67108864
 Number of records fitting in memory:     16131
 Input :   0.2% of                        17478  *4k bytes
 Output:  15.2% of                         1046  *4k bytes
 Records from serial files evicted:           0
                    others evicted:           0
 Hash table lookups:      44676 with          0 conflicts (  0.00%)

 ***************************************************************************************************
 (LOGFILE)
 <Apr24-2019> <15:49:54>  ADF development version  RunTime: Apr24-2019 15:49:54  Nodes: 1  Procs: 1
 <Apr24-2019> <15:49:54>  Hydrogen (TZ2P)
 <Apr24-2019> <15:49:54>  RunType   : CREATE
 <Apr24-2019> <15:49:54>  Net Charge: 0 (Nuclei minus Electrons)
 <Apr24-2019> <15:49:54>  Symmetry  : ATOM
  Coordinates
    Atom         X           Y           Z   (Angstrom)
    1.H         0.000000    0.000000    0.000000
 <Apr24-2019> <15:49:54>  >>>> CORORT
 <Apr24-2019> <15:49:54>  >>>> CLSMAT
 <Apr24-2019> <15:49:54>  >>>> ORTHON
 <Apr24-2019> <15:49:54>  >>>> GENPT
 <Apr24-2019> <15:49:54>  Block Length=  64
 <Apr24-2019> <15:49:54>  >>>> PTBAS
 <Apr24-2019> <15:49:54>  >>>> CYCLE
 <Apr24-2019> <15:49:54>              |Error|         MaxErr       Wt(A-DIIS)
 <Apr24-2019> <15:49:54>      1      0.00000000      0.00000000
 <Apr24-2019> <15:49:54>      2      0.03052616      0.02968253
 <Apr24-2019> <15:49:54>      3      0.00718306      0.00671215    100.0
 <Apr24-2019> <15:49:54>      4      0.00117509      0.00114306      0.1
 <Apr24-2019> <15:49:54>      5      0.00002753      0.00002354      0.0
 <Apr24-2019> <15:49:54>      6      0.00000151      0.00000129      0.0
 <Apr24-2019> <15:49:54>      7      0.00000000      0.00000000      0.0
 <Apr24-2019> <15:49:54>  SCF converged
 <Apr24-2019> <15:49:54>      8      0.00000000      0.00000000      0.0
 <Apr24-2019> <15:49:54>  >>>> POPAN
 <Apr24-2019> <15:49:54>  >>>> DEBYE
 <Apr24-2019> <15:49:54>  NORMAL TERMINATION
 <Apr24-2019> <15:49:54>  END

Create B   file=TZ2P-B
XC
  GGA BP86
End
End Input

 *******************************************************************************
 *                                                                             *
 *  -------------------------------------                                      *
 *   Amsterdam Density Functional  (ADF)         development version           *
 *  -------------------------------------                                      *
 *                                               r61132 2017-09-08             *
 *                                                                             *
 *                                                                             *
 *                              =================                              *
 *                              |               |                              *
 *                              |     A D F     |                              *
 *                              |               |                              *
 *                              =================                              *
 *                                                                             *
 *                                                                             *
 *   Online information and documentation:  https://www.scm.com/support/       *
 *   E-mail:  support@scm.com   info@scm.com                                   *
 *                                                                             *
 *   Scientific publications using ADF results must be properly referenced     *
 *   See the User Manuals (or the web site) for recommended citations          *
 *   The terms and conditions of the End User License Agreement apply to       *
 *   the use of ADF, https://www.scm.com/license-terms/                        *
 *                                                                             *
 **********************  x86_64_linux_intel / intelmpi  ************************
 
 Licensed to: VU/FEW (+ SARA) / ALGEMEEN / Amsterdam / THE NETHERLANDS
 SCM User ID: u7668
  
 ADF development version  RunTime: Apr24-2019 15:49:54  Nodes: 1  Procs: 1

 Temporary files are created in /local/datastore0/tcst25/187509/kid_0.5rqNWM

 Boron (TZ2P)



 ===========================
 A T T A C H E D   F I L E S
 ===========================
  
 CREATE - Data File:    TZ2P-B
                        Boron (TZ2P)



 ===============================
 M O D E L   P A R A M E T E R S
 ===============================
  
 DENSITY FUNCTIONAL POTENTIAL (scf)
    LDA:                               VWN                                      
    Gradient Corrections:              Becke88 Perdew86                        == Not Default ==

 SPIN  (restricted / unrestr.)
    Molecule:                          Restricted                               

 OTHER ASPECTS
    Relativistic Corrections:          ---                                      

    Nuclear Charge Density Model:      Point Charge Nuclei                      
    Core Treatment:                    Frozen Orbital(s)                        

    Hyperfine or Zeeman Interaction:   ---                                      



 =====================================
 S Y M M E T R Y ,   E L E C T R O N S
 =====================================
  
 Symmetry: ATOM

 Irreducible Representations, including subspecies
 -------------------------------------------------
 S
 P:x  P:y  P:z
 D:z2  D:x2-y2  D:xy  D:xz  D:yz
 F:z3  F:z  F:xyz  F:z2x  F:z2y  F:x  F:y


 Configuration of Valence Electrons
 ==================================

          Occupation Numbers
          -------------------------------------------------
 S        2*2
 P        1
 D        0
 F        0
          -------------------------------------------------

 Total:   5

 Net Charge: 0 (Nuclei minus Electrons)

 Preset values for MO occupations will be applied through SCF cycle no. 1000000
 Thereafter, the program will assign electrons to MOs that are spatially
 similar to the occupied MOs in a "reference" cycle ("KeepOrbitals").
 The reference cycle is always the PREVIOUS cycle: it will evolve with
 the SCF procedure.



 ================================
 (Slater-type)  F U N C T I O N S  ***  (Basis and Fit)  ***
 ================================
  

 Atom Type    1  (B)
 ==============

 Valence Basis Sets:  10
 -----------------------
   1 S    6.500000
   1 S    4.080000
   2 S    2.800000
   2 S    1.700000
   2 S    1.040000
   2 P    2.600000
   2 P    1.260000
   2 P    0.680000
   3 D    2.000000
   4 F    3.000000


 BAS: List of all Elementary Cartesian Basis Functions
 =====================================================

 The numbering in the list below (to the right of the function characteristics) is referred
 to in print-outs of MO eigenvectors and Mulliken populations in the BAS representation
 (as contrasted to the SFO representation).

 Notes:
 1. The functions are characterized by a polynomial prefactor (powers of x,y,z and r) and
    an exponential decay factor alpha.
 2. Since the basis sets are specific for an atom TYPE, the individual functions occur on
    all atoms of that type.
 3. The word 'Core' in the left margin signals that it is a Core Function (CF) : not a
    degree of freedom in the valence set, but only used to ensure orthogonalization of
    the other valence basis functions on the frozen Core Orbitals.


 (power of) X  Y  Z  R     Alpha  on Atom
            ==========     =====     ==========

 B                                    1
                                  ---------------------------------------------------------------------------
            0  0  0  0     6.500      1
            0  0  0  0     4.080      2
            0  0  0  1     2.800      3
            0  0  0  1     1.700      4
            0  0  0  1     1.040      5
            1  0  0  0     2.600      6
            0  1  0  0     2.600      7
            0  0  1  0     2.600      8
            1  0  0  0     1.260      9
            0  1  0  0     1.260     10
            0  0  1  0     1.260     11
            1  0  0  0     0.680     12
            0  1  0  0     0.680     13
            0  0  1  0     0.680     14
            2  0  0  0     2.000     15
            1  1  0  0     2.000     16
            1  0  1  0     2.000     17
            0  2  0  0     2.000     18
            0  1  1  0     2.000     19
            0  0  2  0     2.000     20
            3  0  0  0     3.000     21
            2  1  0  0     3.000     22
            2  0  1  0     3.000     23
            1  2  0  0     3.000     24
            1  1  1  0     3.000     25
            1  0  2  0     3.000     26
            0  3  0  0     3.000     27
            0  2  1  0     3.000     28
            0  1  2  0     3.000     29
            0  0  3  0     3.000     30

 Total number of charge fitting functions (nprimf)        84
 Total number of Cartesian basis functions (naos)         30
 Total number of Cartesian core functions  (ncos)          0



 BAS: List of all Elementary Cartesian Basis Functions
 =====================================================

 The numbering in the list below (to the right of the function characteristics) is referred
 to in print-outs of MO eigenvectors and Mulliken populations in the BAS representation
 (as contrasted to the SFO representation).

 Notes:
 1. The functions are characterized by a polynomial prefactor (powers of x,y,z and r) and
    an exponential decay factor alpha.
 2. Since the basis sets are specific for an atom TYPE, the individual functions occur on
    all atoms of that type.
 3. The word 'Core' in the left margin signals that it is a Core Function (CF) : not a
    degree of freedom in the valence set, but only used to ensure orthogonalization of
    the other valence basis functions on the frozen Core Orbitals.


 (power of) X  Y  Z  R     Alpha  on Atom
            ==========     =====     ==========

 B                                    1
                                  ---------------------------------------------------------------------------
            0  0  0  0     6.500      1
            0  0  0  0     4.080      2
            0  0  0  1     2.800      3
            0  0  0  1     1.700      4
            0  0  0  1     1.040      5
            1  0  0  0     2.600      6
            0  1  0  0     2.600      7
            0  0  1  0     2.600      8
            1  0  0  0     1.260      9
            0  1  0  0     1.260     10
            0  0  1  0     1.260     11
            1  0  0  0     0.680     12
            0  1  0  0     0.680     13
            0  0  1  0     0.680     14
            2  0  0  0     2.000     15
            1  1  0  0     2.000     16
            1  0  1  0     2.000     17
            0  2  0  0     2.000     18
            0  1  1  0     2.000     19
            0  0  2  0     2.000     20
            3  0  0  0     3.000     21
            2  1  0  0     3.000     22
            2  0  1  0     3.000     23
            1  2  0  0     3.000     24
            1  1  1  0     3.000     25
            1  0  2  0     3.000     26
            0  3  0  0     3.000     27
            0  2  1  0     3.000     28
            0  1  2  0     3.000     29
            0  0  3  0     3.000     30
1
 ***************************************************************************************************



                                              ***********************
                                              *  T E C H N I C A L  *
                                              ***********************
  



 =============================================================
 P A R A L L E L I Z A T I O N  and  V E C T O R I Z A T I O N
 =============================================================
  
 Nr of parallel processes:                                1
 Maximum vector length in NumInt loops:                 128

 IO buffersize (Mb):                                     64.000000



 =====================
 S C F   U P D A T E S
 =====================
  
 Max. nr. of cycles:                               300
 Convergence criterion:                              0.0000000100
   secondary criterion:                              0.0000000100

 Mix parameter (when DIIS does not apply):           0.2000000000
 Special mix parameter for the first cycle:          1.0000000000
 Mixed ADIIS+DIIS will be used
    Max number of expansion vectors:                10
    Pure ADIIS when Max([F,P]) is above              0.1000000000
    Pure DIIS when Max([F,P]) is below               0.0010000000
 Automatic ElectronSmearing (in case of problematic SCF convergence) disabled



 =================
 P R E C I S I O N  ***  (General: NumInt, NeglectFunctionTails, ...)  ***
 =================
  

 NumInt:           Target precision:                12.0000000000
 -------           Initial precision:               10.0000000000
                   Min. precision (optimization):   10.0000000000

 Neglect Functions:          Basis functions:        0.1000000000E-13
 ------------------          Fit functions:          0.1000000000E-13



 ===========================
 L I N E A R   S C A L I N G
 ===========================
  

 Cut-off radii density fit:                        0.1000000000E-97
 Overlap cut-off criterion AO matrix elements:     0.1000000000E-97
 Cut-offs for Coulomb potential and fitted density:0.1000000000E-97
 Cut-off criterion for Coulomb multipole terms:    0.1000000000E-97
 Progressive Convergence parameter:                 0.000000000    
1
 ***************************************************************************************************



                                            ***************************
                                            *  C O M P U T A T I O N  *
                                            ***************************
  

 Number of elements of the density matrix on this node (used, total):       465       465



 ===========================================
 Numerical Integration : Fuzzy Cells (Becke)
 ===========================================
  
 Becke grid quality: VERYGOOD       
  
 Lebedev angular grid order:             min:  13 max:  41
 Nr. of radial points:                   min:  76 max:  76

 Total nr. of points:         76
 Nr. of blocks:                1
 Block length:                76
 Nr. of dummy points:          0


 Test of Precision of the Numerical Integration Grid
 ===================================================

 Integral of the Total Core Density:                   0.00000000000000



 ========================
 Density Fitting (zlmFit)
 ========================
  
 ZlmFit Fit Quality: VERYGOOD       
  
 Max L-expansion:                        min:   0 max:   0
 Nr. of radial interpolation points:     min: 160 max: 160



 =====
 S C F  ***  ScaSCF  ***
 =====
  

 CYCLE    1
 SCF Error: norm([F,P])=      0.000000000000, max([F,P])=      0.000000000000
 orbitals (Q,E):
 ---------------
 S :1...5            ( 2.00   -12.4973)  ( 2.00    -3.1204)  ( 0.00    -1.3604)  ( 0.00    -0.2943)
                     ( 0.00    21.5464)
 P :1...3            ( 1.00    -3.1235)  ( 0.00    -1.3596)  ( 0.00    -0.7394)
 D :1...1            ( 0.00    -1.3333)
 F :1...1            ( 0.00     0.7500)

 CYCLE    2
  SDIIS (wt  0.000):  1.0000  0.0000
 A-DIIS (wt  1.000):  0.0000  1.0000
  DIIS coefficients:  0.0000  1.0000
 SCF Error: norm([F,P])=      3.206930624403, max([F,P])=      2.044237717286
 orbitals (Q,E):
 ---------------
 S :1...3            ( 2.00    -5.1374)  ( 2.00    -0.0371)  ( 0.00     0.4555)
 P :1...2            ( 1.00     0.0686)  ( 0.00     0.3929)
 D :1...1            ( 0.00     1.4209)
 F :1...1            ( 0.00     3.7855)

 CYCLE    3
  SDIIS (wt  0.000):  0.1983  0.8017
 A-DIIS (wt  1.000):  0.0000  1.0000
  DIIS coefficients:  0.0000  1.0000
 SCF Error: norm([F,P])=      1.040807263909, max([F,P])=      0.886703810621
 orbitals (Q,E):
 ---------------
 S :1...3            ( 2.00    -7.3692)  ( 2.00    -0.6224)  ( 0.00     0.0443)
 P :1...2            ( 1.00    -0.4031)  ( 0.00     0.0084)
 D :1...1            ( 0.00     0.7598)
 F :1...1            ( 0.00     3.0368)

 CYCLE    4
  SDIIS (wt  0.000): -0.0590  0.2096  0.8494
 A-DIIS (wt  1.000):  0.0000  0.0000  1.0000
  DIIS coefficients:  0.0000  0.0000  1.0000
 SCF Error: norm([F,P])=      0.442042017553, max([F,P])=      0.386566792489
 orbitals (Q,E):
 ---------------
 S :1...3            ( 2.00    -6.3214)  ( 2.00    -0.2478)  ( 0.00     0.2723)
 P :1...2            ( 1.00    -0.0468)  ( 0.00     0.1916)
 D :1...1            ( 0.00     1.1452)
 F :1...1            ( 0.00     3.4686)

 CYCLE    5
  SDIIS (wt  0.000): -0.0164 -0.0293  0.3638  0.6819
 A-DIIS (wt  1.000):  0.0000  0.0000  0.0966  0.9034
  DIIS coefficients:  0.0000  0.0000  0.0966  0.9034
 SCF Error: norm([F,P])=      0.215593907540, max([F,P])=      0.197107993768
 orbitals (Q,E):
 ---------------
 S :1...3            ( 2.00    -6.7835)  ( 2.00    -0.4032)  ( 0.00     0.1648)
 P :1...2            ( 1.00    -0.1843)  ( 0.00     0.0973)
 D :1...1            ( 0.00     0.9774)
 F :1...1            ( 0.00     3.2785)

 CYCLE    6
  SDIIS (wt  0.212):  0.0014 -0.0175 -0.0520  0.2997  0.7685
 A-DIIS (wt  0.788):  0.0000  0.0000  0.0000  0.0000  1.0000
  DIIS coefficients:  0.0003 -0.0037 -0.0110  0.0634  0.9510
 SCF Error: norm([F,P])=      0.087896467660, max([F,P])=      0.079060506992
 orbitals (Q,E):
 ---------------
 S :1...3            ( 2.00    -6.5865)  ( 2.00    -0.3297)  ( 0.00     0.2120)
 P :1...2            ( 1.00    -0.1166)  ( 0.00     0.1383)
 D :1...1            ( 0.00     1.0553)
 F :1...1            ( 0.00     3.3662)

 CYCLE    7
  SDIIS (wt  0.645): -0.0002  0.0016 -0.0012 -0.0706  0.2336  0.8367
 A-DIIS (wt  0.355):  0.0000  0.0000  0.0000  0.0000  0.0000  1.0000
  DIIS coefficients: -0.0001  0.0010 -0.0008 -0.0456  0.1508  0.8946
 SCF Error: norm([F,P])=      0.039810040971, max([F,P])=      0.036102929289
 orbitals (Q,E):
 ---------------
 S :1...3            ( 2.00    -6.6597)  ( 2.00    -0.3558)  ( 0.00     0.1943)
 P :1...2            ( 1.00    -0.1403)  ( 0.00     0.1227)
 D :1...1            ( 0.00     1.0274)
 F :1...1            ( 0.00     3.3347)

 CYCLE    8
  SDIIS (wt  0.936):  0.0000 -0.0000  0.0001  0.0045 -0.0468  0.0722  0.9699
 A-DIIS (wt  0.064):  0.0000  0.0000  0.0000  0.0000  0.0000  0.0000  1.0000
  DIIS coefficients:  0.0000 -0.0000  0.0001  0.0042 -0.0438  0.0676  0.9718
 SCF Error: norm([F,P])=      0.008085664981, max([F,P])=      0.007315306127
 orbitals (Q,E):
 ---------------
 S :1...3            ( 2.00    -6.6469)  ( 2.00    -0.3512)  ( 0.00     0.1973)
 P :1...2            ( 1.00    -0.1360)  ( 0.00     0.1254)
 D :1...1            ( 0.00     1.0323)
 F :1...1            ( 0.00     3.3402)

 CYCLE    9
  SDIIS (wt  1.000): -0.0000 -0.0000  0.0000 -0.0000  0.0014 -0.0057 -0.0076  1.0119
  DIIS coefficients: -0.0000 -0.0000  0.0000 -0.0000  0.0014 -0.0057 -0.0076  1.0119
 SCF Error: norm([F,P])=      0.000296891091, max([F,P])=      0.000268546514
 orbitals (Q,E):
 ---------------
 S :1...3            ( 2.00    -6.6473)  ( 2.00    -0.3513)  ( 0.00     0.1972)
 P :1...2            ( 1.00    -0.1362)  ( 0.00     0.1253)
 D :1...1            ( 0.00     1.0321)
 F :1...1            ( 0.00     3.3400)

 CYCLE   10
  SDIIS (wt  1.000): -0.0000 -0.0000  0.0000  0.0000 -0.0003 -0.0005  0.0184  0.9824
  DIIS coefficients: -0.0000 -0.0000  0.0000  0.0000 -0.0003 -0.0005  0.0184  0.9824
 SCF Error: norm([F,P])=      0.000000323230, max([F,P])=      0.000000256951
 orbitals (Q,E):
 ---------------
 S :1...3            ( 2.00    -6.6473)  ( 2.00    -0.3513)  ( 0.00     0.1972)
 P :1...2            ( 1.00    -0.1362)  ( 0.00     0.1253)
 D :1...1            ( 0.00     1.0321)
 F :1...1            ( 0.00     3.3400)

 CYCLE   11
  SDIIS (wt  1.000): -0.0000  0.0000  0.0002  0.0044  0.9954
  DIIS coefficients: -0.0000  0.0000  0.0002  0.0044  0.9954
 SCF Error: norm([F,P])=      0.000000003188, max([F,P])=      0.000000002647
 orbitals (Q,E):
 ---------------
 S :1...3            ( 2.00    -6.6473)  ( 2.00    -0.3513)  ( 0.00     0.1972)
 P :1...2            ( 1.00    -0.1362)  ( 0.00     0.1253)
 D :1...1            ( 0.00     1.0321)
 F :1...1            ( 0.00     3.3400)

 SCF CONVERGED

 CYCLE   12
1
 ***************************************************************************************************



                                                *******************
                                                *  R E S U L T S  *
                                                *******************
  
 *** Setting up for NEW gradients in Focky
 *** Using FIT density in Focky

 Orbital Energies, per Irrep and Spin:
 ======================================
                        Occup              E (au)              E (eV)       Diff (eV) with prev. cycle
                        -----      --------------------        ------       --------------------------
 S
               1        2.000     -0.66473159094863E+01      -180.883              -6.83E-09
               2        2.000     -0.35134921977183E+00        -9.561              -4.00E-09
               3        0.000      0.19724151702901E+00         5.367
               4        0.000      0.25814438752340E+01        70.245
               5        0.000      0.26826620261348E+02       729.989
 P
               1        1.000     -0.13617927732071E+00        -3.706              -3.70E-09
               2        0.000      0.12531170360136E+00         3.410
               3        0.000      0.16747264371451E+01        45.572
 D
               1        0.000      0.10321145268327E+01        28.085
 F
               1        0.000      0.33400309304585E+01        90.887


 Partially Occupied:
               1 P                -0.13617927732071E+00
  
 HOMO :        2 S                -0.35134921977183E+00
 LUMO :        2 P                 0.12531170360136E+00
  


 Orbital Energies, all Irreps
 ========================================

 Irrep        no.  (spin)   Occup              E (au)                E (eV)
 ---------------------------------------------------------------------------
 S             1             2.00       -0.66473159094863E+01      -180.8827
 S             2             2.00       -0.35134921977183E+00        -9.5607
 P             1             1.00       -0.13617927732071E+00        -3.7056
 P             2             0.00        0.12531170360136E+00         3.4099
 S             3             0.00        0.19724151702901E+00         5.3672
 D             1             0.00        0.10321145268327E+01        28.0853
 P             3             0.00        0.16747264371451E+01        45.5716
 S             4             0.00        0.25814438752340E+01        70.2447
 F             1             0.00        0.33400309304585E+01        90.8869
 S             5             0.00        0.26826620261348E+02       729.9895


 All Electron Calculation, thus no Orbital Energies of the Core Orbitals are calculated



 =======================================
 M U L L I K E N   P O P U L A T I O N S
 =======================================
  
 The survey below gives for each atom:
 a) the total charge (Z minus electrons)
 b) the net spin polarization (nr of electrons spin-A minus spin-B)
 c) for each spin the atomic electron valence density (integrated) per L-value.

 Atom              Charge    Spin density          S         P         D         F
 ----              ------    ------------       ------    ------    ------    ------
 1 B              -0.0000                       4.0000    1.0000    0.0000    0.0000

 Populations of individual BAS functions
 ----------------------------------------
 1 B            0.4730  1.5255 -0.1291  1.2093  0.9214  0.0290  0.0290  0.0290  0.1965  0.1965
                0.1965  0.1078  0.1078  0.1078  0.0000  0.0000  0.0000  0.0000  0.0000  0.0000
                0.0000  0.0000  0.0000  0.0000  0.0000  0.0000  0.0000  0.0000  0.0000  0.0000

 Gross Charges per Atom (Z minus electrons)
 ==========================================
            -0.0000
 Net Total: -0.00000000



 =======================================================================
 Electrostatic potential at the Nuclei due to electrons and other nuclei
 =======================================================================
  
         Atom                  Potential
         ----                  ---------
     1)   B                  11.37741465
 
 
 ========================
 No memory problems found
 ========================
 
 Maximum number of active allocate calls:         447
 
 *******************************************************************************

                             A D F   E X I T
 NORMAL TERMINATION



 =================
 Timing Statistics
 =================
  
 Total Used :                     CPU=        0.46      System=        0.03     Elapsed=        0.49

 Calls  Section                     ( Mean, Percentage )
 ---------------------------------------------------------------------------------------------------
     3  ><      ................      0.00    0.00             0.00    0.00             0.00    0.16
     1  INIT    ................      0.01    2.16             0.01   48.15             0.03    5.19
     1  GEOMET  ................      0.01    1.51             0.00    7.41             0.01    1.68
     1  INPUTA  ................      0.00    0.22             0.00    3.70             0.00    0.31
     1  MAINSY  ................      0.00    0.86             0.00    7.40             0.01    1.20
     1  SYMFIT  ................      0.00    0.22             0.00    0.00             0.00    0.16
     1  CORORT  ................      0.00    0.00             0.00    0.00             0.00    0.05
     1  SYMORB  ................      0.00    0.00             0.00    0.00             0.00    0.13
     1  CLSMAT  ................      0.01    1.29             0.00    0.00             0.01    1.06
     1  ORTHON  ................      0.00    0.22             0.00    0.00             0.00    0.30
     1  GENPT   ................      0.01    3.02             0.00    3.70             0.01    3.02
     1  PTBAS   ................      0.00    0.65             0.00    0.00             0.00    0.70
    12  FOCKY   ................      0.03   74.78             0.00   11.11             0.03   70.99
    12  FOCKTR  ................      0.00    2.16             0.00    0.00             0.00    1.98
    12  SDIIS   ................      0.00    4.10             0.00    3.70             0.00    3.91
     1  COREPS  ................      0.02    4.09             0.00    7.41             0.02    4.25
     1  POPAN   ................      0.00    1.08             0.00    0.00             0.01    1.06
     1  DEBYE   ................      0.00    0.00             0.00    0.00             0.00    0.11
     1  EXIT PROCEDURE .........      0.02    3.66             0.00    7.41             0.02    3.74


 Currently Open Files (EXIT00)
 ====================

 Unit    Access Format  Status   Type       Ident (file)
 -------------------------------------------------------
   3      SEQ    FORM   TRANSP  NORMAL      LOGFILE
                                          ( logfile )


 Buffered I/O statistics
 =======================
 Memory available:                     67108864
 Number of records fitting in memory:     16131
 Input :   0.1% of                        26729  *4k bytes
 Output:  13.8% of                         1360  *4k bytes
 Records from serial files evicted:           0
                    others evicted:           0
 Hash table lookups:      69030 with          0 conflicts (  0.00%)

 ***************************************************************************************************
 (LOGFILE)
 <Apr24-2019> <15:49:54>  ADF development version  RunTime: Apr24-2019 15:49:54  Nodes: 1  Procs: 1
 <Apr24-2019> <15:49:54>  Hydrogen (TZ2P)
 <Apr24-2019> <15:49:54>  RunType   : CREATE
 <Apr24-2019> <15:49:54>  Net Charge: 0 (Nuclei minus Electrons)
 <Apr24-2019> <15:49:54>  Symmetry  : ATOM
  Coordinates
    Atom         X           Y           Z   (Angstrom)
    1.H         0.000000    0.000000    0.000000
 <Apr24-2019> <15:49:54>  >>>> CORORT
 <Apr24-2019> <15:49:54>  >>>> CLSMAT
 <Apr24-2019> <15:49:54>  >>>> ORTHON
 <Apr24-2019> <15:49:54>  >>>> GENPT
 <Apr24-2019> <15:49:54>  Block Length=  64
 <Apr24-2019> <15:49:54>  >>>> PTBAS
 <Apr24-2019> <15:49:54>  >>>> CYCLE
 <Apr24-2019> <15:49:54>              |Error|         MaxErr       Wt(A-DIIS)
 <Apr24-2019> <15:49:54>      1      0.00000000      0.00000000
 <Apr24-2019> <15:49:54>      2      0.03052616      0.02968253
 <Apr24-2019> <15:49:54>      3      0.00718306      0.00671215    100.0
 <Apr24-2019> <15:49:54>      4      0.00117509      0.00114306      0.1
 <Apr24-2019> <15:49:54>      5      0.00002753      0.00002354      0.0
 <Apr24-2019> <15:49:54>      6      0.00000151      0.00000129      0.0
 <Apr24-2019> <15:49:54>      7      0.00000000      0.00000000      0.0
 <Apr24-2019> <15:49:54>  SCF converged
 <Apr24-2019> <15:49:54>      8      0.00000000      0.00000000      0.0
 <Apr24-2019> <15:49:54>  >>>> POPAN
 <Apr24-2019> <15:49:54>  >>>> DEBYE
 <Apr24-2019> <15:49:54>  NORMAL TERMINATION
 <Apr24-2019> <15:49:54>  END
 <Apr24-2019> <15:49:54>  ADF development version  RunTime: Apr24-2019 15:49:54  Nodes: 1  Procs: 1
 <Apr24-2019> <15:49:54>  Boron (TZ2P)
 <Apr24-2019> <15:49:54>  RunType   : CREATE
 <Apr24-2019> <15:49:54>  Net Charge: 0 (Nuclei minus Electrons)
 <Apr24-2019> <15:49:54>  Symmetry  : ATOM
  Coordinates
    Atom         X           Y           Z   (Angstrom)
    1.B         0.000000    0.000000    0.000000
 <Apr24-2019> <15:49:54>  >>>> CORORT
 <Apr24-2019> <15:49:54>  >>>> CLSMAT
 <Apr24-2019> <15:49:54>  >>>> ORTHON
 <Apr24-2019> <15:49:54>  >>>> GENPT
 <Apr24-2019> <15:49:54>  Block Length=  76
 <Apr24-2019> <15:49:54>  >>>> PTBAS
 <Apr24-2019> <15:49:54>  >>>> CYCLE
 <Apr24-2019> <15:49:54>              |Error|         MaxErr       Wt(A-DIIS)
 <Apr24-2019> <15:49:54>      1      0.00000000      0.00000000
 <Apr24-2019> <15:49:54>      2      3.20693062      2.04423772    100.0
 <Apr24-2019> <15:49:54>      3      1.04080726      0.88670381    100.0
 <Apr24-2019> <15:49:55>      4      0.44204202      0.38656679    100.0
 <Apr24-2019> <15:49:55>      5      0.21559391      0.19710799    100.0
 <Apr24-2019> <15:49:55>      6      0.08789647      0.07906051     78.8
 <Apr24-2019> <15:49:55>      7      0.03981004      0.03610293     35.5
 <Apr24-2019> <15:49:55>      8      0.00808566      0.00731531      6.4
 <Apr24-2019> <15:49:55>      9      0.00029689      0.00026855      0.0
 <Apr24-2019> <15:49:55>     10      0.00000032      0.00000026      0.0
 <Apr24-2019> <15:49:55>     11      0.00000000      0.00000000      0.0
 <Apr24-2019> <15:49:55>  SCF converged
 <Apr24-2019> <15:49:55>     12      0.00000000      0.00000000      0.0
 <Apr24-2019> <15:49:55>  >>>> POPAN
 <Apr24-2019> <15:49:55>  >>>> DEBYE
 <Apr24-2019> <15:49:55>  NORMAL TERMINATION
 <Apr24-2019> <15:49:55>  END


 Parallel Execution: Process Information
 ==============================================================================
 Rank   Node Name                              NodeID   MyNodeRank  NodeMaster
    0   BAZIS-cn076                               0          0          0
    1   BAZIS-cn076                               0          1         -1
    2   BAZIS-cn076                               0          2         -1
    3   BAZIS-cn076                               0          3         -1
    4   BAZIS-cn076                               0          4         -1
    5   BAZIS-cn076                               0          5         -1
    6   BAZIS-cn076                               0          6         -1
    7   BAZIS-cn076                               0          7         -1
    8   BAZIS-cn076                               0          8         -1
    9   BAZIS-cn076                               0          9         -1
   10   BAZIS-cn076                               0         10         -1
   11   BAZIS-cn076                               0         11         -1
 ==============================================================================


May use up to 30736MB of RAM as shared memory on node 0


XC
  GGA BP86
END

ANALYTICALFREQ
END

SCF
  iterations 250
END

SYMMETRY nosym
CHARGE 0

ZLMFIT
  Quality normal
END

BECKEGRID
  Quality good
End

ATOMS
5.B        -0.699821   -0.921212    0.039035
6.H        -1.066308    0.233402   -0.146240
7.H         0.063525   -0.997313    0.994773
8.H        -0.194418   -1.394523   -0.972052
END

Fragments
H t21.H
B t21.B
End
end input

 *******************************************************************************
 *                                                                             *
 *  -------------------------------------                                      *
 *   Amsterdam Density Functional  (ADF)         development version           *
 *  -------------------------------------                                      *
 *                                               r61132 2017-09-08             *
 *                                                                             *
 *                                                                             *
 *                              =================                              *
 *                              |               |                              *
 *                              |     A D F     |                              *
 *                              |               |                              *
 *                              =================                              *
 *                                                                             *
 *                                                                             *
 *   Online information and documentation:  https://www.scm.com/support/       *
 *   E-mail:  support@scm.com   info@scm.com                                   *
 *                                                                             *
 *   Scientific publications using ADF results must be properly referenced     *
 *   See the User Manuals (or the web site) for recommended citations          *
 *   The terms and conditions of the End User License Agreement apply to       *
 *   the use of ADF, https://www.scm.com/license-terms/                        *
 *                                                                             *
 **********************  x86_64_linux_intel / intelmpi  ************************
 
 Licensed to: VU/FEW (+ SARA) / ALGEMEEN / Amsterdam / THE NETHERLANDS
 SCM User ID: u7668
  
 ADF development version  RunTime: Apr24-2019 15:49:55  Nodes: 1  Procs: 12

 Temporary files are created in /local/datastore0/tcst25/187509/kid_0.3gPPkg


Communication costs MPI_COMM_WORLD:      2.574 usec per message,   0.0134 usec per 8-byte item
Communication costs for intra-node:      2.602 usec per message,   0.0133 usec per 8-byte item

 *** (NO TITLE) ***



 ===========================
 A T T A C H E D   F I L E S
 ===========================
  



 ===============================
 M O D E L   P A R A M E T E R S
 ===============================
  
 DENSITY FUNCTIONAL POTENTIAL (scf)
    LDA:                               VWN                                      
    Gradient Corrections:              Becke88 Perdew86                        == Not Default ==

 SPIN  (restricted / unrestr.)
    Molecule:                          Restricted                               
    Fragments:                         Restricted                               

 OTHER ASPECTS
    Relativistic Corrections:          ---                                      

    Nuclear Charge Density Model:      Point Charge Nuclei                      
    Core Treatment:                    Frozen Orbital(s)                        

    Hyperfine or Zeeman Interaction:   ---                                      


 Fragment File(s)
 ----------------
 B:
         file : t21.B
         jobid: ADF development version  RunTime: Apr24-2019 15:49:54  Nodes: 1  Procs: 1
         title: Boron (TZ2P)
 H:
         file : t21.H
         jobid: ADF development version  RunTime: Apr24-2019 15:49:54  Nodes: 1  Procs: 1
         title: Hydrogen (TZ2P)



                                        ************************************
                                        *  R U N   T Y P E : SINGLE POINT  *
                                        ************************************
  



 ===============
 G E O M E T R Y  ***  3D  Molecule  ***
 ===============
  

 ATOMS
 =====                            X Y Z                    CHARGE
                                (Angstrom)             Nucl     +Core       At.Mass
                       --------------------------    ----------------       -------
    1  B              -0.6998   -0.9212    0.0390      5.00      5.00       11.0093
    2  H              -1.0663    0.2334   -0.1462      1.00      1.00        1.0078
    3  H               0.0635   -0.9973    0.9948      1.00      1.00        1.0078
    4  H              -0.1944   -1.3945   -0.9721      1.00      1.00        1.0078


 FRAGMENTS
 =========                                     Atoms in this Fragment     Cart. coord.s (Angstrom)
                                               -------------------------------------------------------
    1  B                                                 1  B           -0.6998   -0.9212    0.0390
    2  H                                                 2  H           -1.0663    0.2334   -0.1462
    3  H                                                 3  H            0.0635   -0.9973    0.9948
    4  H                                                 4  H           -0.1944   -1.3945   -0.9721


 Interatomic Distance Matrix (Angstrom)
 --------------------------------------

   1)     0.000
   2)     1.225   0.000
   3)     1.226   2.023   0.000
   4)     1.225   2.023   2.023   0.000

 Min. Distance =    1.2255
 Max. Distance =    2.0231



 =====================================
 S Y M M E T R Y ,   E L E C T R O N S
 =====================================
  
 Symmetry: NOSYM

 Irreducible Representations, including subspecies
 -------------------------------------------------
 A


 Configuration of Valence Electrons
 ==================================
 ( determined in the SCF procedure )

 Total:   8

 Net Charge: 0 (Nuclei minus Electrons)

 Aufbau principle for MO occupations will be applied through SCF cycle no.     125
 Thereafter, the program will assign electrons to MOs that are spatially
 similar to the occupied MOs in a "reference" cycle ("KeepOrbitals").
 The reference cycle is always the PREVIOUS cycle: it will evolve with
 the SCF procedure.
1
 ***************************************************************************************************



                                      ****************************************
                                      *  B U I L D : (Fragments, Functions)  *
                                      ****************************************
  



 =======
 S F O s  ***  (Symmetrized Fragment Orbitals)  ***
 =======
  
 SFOs are linear combinations of (valence) Fragment Orbitals (FOs), such that the SFOs transform as the
 irreducible representations of the (molecular) symmetry group. Each SFO is therefore characterized by
 an irrep of the molecule and by a few (or only one) generating FOs.
 The SFOs constitute a symmetry-adapted basis for the Fock matrix. The MO eigenvector coefficients in
 this basis provide a direct interpretation of the MOs in terms of Frontier Orbital Theory.

 The SFOs are combined with auxiliary Core Functions (CFs) to ensure orthogonalization on the (frozen)
 Core Orbitals (COs). The Core-orthogonalized SFOs (CSFOs) constitute the true Fock basis.

 The FOs, and hence also the (C)SFOs are combinations of the elementary basis functions (BAS). The basis
 functions that participate in the description of the SFOs depend on the irrep. The indices of the
 involved functions are printed below for each irrep.
 (The complete list of primitive basis functions is printed in another section)

 Total nr. of (C)SFOs (summation over all irreps) :    59

 NOTE: a (C)SFO that is defined as a combination of more than one FO is usually NOT normalized.



                                       === A ===
 Nr. of SFOs :   59
 Cartesian basis functions that participate in this irrep (total number =    66) :
      1     2     3     4     5     6     9    12     7    10
     13     8    11    14    15    16    17    18    19    20
     21    22    23    24    25    26    27    28    29    30
     31    32    33    34    35    36    37    38    39    40
     41    42    43    44    45    46    47    48    49    50
     51    52    53    54    55    56    57    58    59    60
     61    62    63    64    65    66

    SFO  (index         Fragment          Generating    Expansion in Fragment Orbitals
  indx  incl.CFs)   Occup   Orb.Energy   FragmentType  Coeff.   Orbital     on Fragment
 --------------------------------------------------------------------------------------
     1       1      2.000      -6.647 au  B             1.00      1 S               1
                        (    -180.883 eV)
     2       2      2.000      -0.351 au  B             1.00      2 S               1
                        (      -9.561 eV)
     3       3       --         0.197 au  B             1.00      3 S               1
                        (       5.367 eV)
     4       4       --         2.581 au  B             1.00      4 S               1
                        (      70.245 eV)
     5       5       --        26.827 au  B             1.00      5 S               1
                        (     729.989 eV)
     6       6      0.333      -0.136 au  B             1.00      1 P:x             1
                        (      -3.706 eV)
     7       7       --         0.125 au  B             1.00      2 P:x             1
                        (       3.410 eV)
     8       8       --         1.675 au  B             1.00      3 P:x             1
                        (      45.572 eV)
     9       9      0.333      -0.136 au  B             1.00      1 P:y             1
                        (      -3.706 eV)
    10      10       --         0.125 au  B             1.00      2 P:y             1
                        (       3.410 eV)
    11      11       --         1.675 au  B             1.00      3 P:y             1
                        (      45.572 eV)
    12      12      0.333      -0.136 au  B             1.00      1 P:z             1
                        (      -3.706 eV)
    13      13       --         0.125 au  B             1.00      2 P:z             1
                        (       3.410 eV)
    14      14       --         1.675 au  B             1.00      3 P:z             1
                        (      45.572 eV)
    15      15       --         1.032 au  B             1.00      1 D:z2            1
                        (      28.085 eV)
    16      16       --         1.032 au  B             1.00      1 D:x2-y2         1
                        (      28.085 eV)
    17      17       --         1.032 au  B             1.00      1 D:xy            1
                        (      28.085 eV)
    18      18       --         1.032 au  B             1.00      1 D:xz            1
                        (      28.085 eV)
    19      19       --         1.032 au  B             1.00      1 D:yz            1
                        (      28.085 eV)
    20      20       --         3.340 au  B             1.00      1 F:z3            1
                        (      90.887 eV)
    21      21       --         3.340 au  B             1.00      1 F:z             1
                        (      90.887 eV)
    22      22       --         3.340 au  B             1.00      1 F:xyz           1
                        (      90.887 eV)
    23      23       --         3.340 au  B             1.00      1 F:z2x           1
                        (      90.887 eV)
    24      24       --         3.340 au  B             1.00      1 F:z2y           1
                        (      90.887 eV)
    25      25       --         3.340 au  B             1.00      1 F:x             1
                        (      90.887 eV)
    26      26       --         3.340 au  B             1.00      1 F:y             1
                        (      90.887 eV)
    27      27      1.000      -0.244 au  H             1.00      1 S               2
                        (      -6.626 eV)
    28      28       --         0.093 au  H             1.00      2 S               2
                        (       2.537 eV)
    29      29       --         1.515 au  H             1.00      3 S               2
                        (      41.236 eV)
    30      30       --         0.400 au  H             1.00      1 P:x             2
                        (      10.872 eV)
    31      31       --         0.400 au  H             1.00      1 P:y             2
                        (      10.872 eV)
    32      32       --         0.400 au  H             1.00      1 P:z             2
                        (      10.872 eV)
    33      33       --         2.561 au  H             1.00      1 D:z2            2
                        (      69.689 eV)
    34      34       --         2.561 au  H             1.00      1 D:x2-y2         2
                        (      69.689 eV)
    35      35       --         2.561 au  H             1.00      1 D:xy            2
                        (      69.689 eV)
    36      36       --         2.561 au  H             1.00      1 D:xz            2
                        (      69.689 eV)
    37      37       --         2.561 au  H             1.00      1 D:yz            2
                        (      69.689 eV)
    38      38      1.000      -0.244 au  H             1.00      1 S               3
                        (      -6.626 eV)
    39      39       --         0.093 au  H             1.00      2 S               3
                        (       2.537 eV)
    40      40       --         1.515 au  H             1.00      3 S               3
                        (      41.236 eV)
    41      41       --         0.400 au  H             1.00      1 P:x             3
                        (      10.872 eV)
    42      42       --         0.400 au  H             1.00      1 P:y             3
                        (      10.872 eV)
    43      43       --         0.400 au  H             1.00      1 P:z             3
                        (      10.872 eV)
    44      44       --         2.561 au  H             1.00      1 D:z2            3
                        (      69.689 eV)
    45      45       --         2.561 au  H             1.00      1 D:x2-y2         3
                        (      69.689 eV)
    46      46       --         2.561 au  H             1.00      1 D:xy            3
                        (      69.689 eV)
    47      47       --         2.561 au  H             1.00      1 D:xz            3
                        (      69.689 eV)
    48      48       --         2.561 au  H             1.00      1 D:yz            3
                        (      69.689 eV)
    49      49      1.000      -0.244 au  H             1.00      1 S               4
                        (      -6.626 eV)
    50      50       --         0.093 au  H             1.00      2 S               4
                        (       2.537 eV)
    51      51       --         1.515 au  H             1.00      3 S               4
                        (      41.236 eV)
    52      52       --         0.400 au  H             1.00      1 P:x             4
                        (      10.872 eV)
    53      53       --         0.400 au  H             1.00      1 P:y             4
                        (      10.872 eV)
    54      54       --         0.400 au  H             1.00      1 P:z             4
                        (      10.872 eV)
    55      55       --         2.561 au  H             1.00      1 D:z2            4
                        (      69.689 eV)
    56      56       --         2.561 au  H             1.00      1 D:x2-y2         4
                        (      69.689 eV)
    57      57       --         2.561 au  H             1.00      1 D:xy            4
                        (      69.689 eV)
    58      58       --         2.561 au  H             1.00      1 D:xz            4
                        (      69.689 eV)
    59      59       --         2.561 au  H             1.00      1 D:yz            4
                        (      69.689 eV)



 ================================
 (Slater-type)  F U N C T I O N S  ***  (Basis and Fit)  ***
 ================================
  

 Atom Type    1  (B)
 ==============

 Valence Basis Sets:  10
 -----------------------
   1 S    6.500000
   1 S    4.080000
   2 S    2.800000
   2 S    1.700000
   2 S    1.040000
   2 P    2.600000
   2 P    1.260000
   2 P    0.680000
   3 D    2.000000
   4 F    3.000000

 Atom Type    2  (H)
 ==============

 Valence Basis Sets:   5
 -----------------------
   1 S    0.690000
   1 S    0.920000
   1 S    1.580000
   2 P    1.250000
   3 D    2.500000


 BAS: List of all Elementary Cartesian Basis Functions
 =====================================================

 The numbering in the list below (to the right of the function characteristics) is referred
 to in print-outs of MO eigenvectors and Mulliken populations in the BAS representation
 (as contrasted to the SFO representation).

 Notes:
 1. The functions are characterized by a polynomial prefactor (powers of x,y,z and r) and
    an exponential decay factor alpha.
 2. Since the basis sets are specific for an atom TYPE, the individual functions occur on
    all atoms of that type.
 3. The word 'Core' in the left margin signals that it is a Core Function (CF) : not a
    degree of freedom in the valence set, but only used to ensure orthogonalization of
    the other valence basis functions on the frozen Core Orbitals.


 (power of) X  Y  Z  R     Alpha  on Atom
            ==========     =====     ==========

 B                                    1
                                  ---------------------------------------------------------------------------
            0  0  0  0     6.500      1
            0  0  0  0     4.080      2
            0  0  0  1     2.800      3
            0  0  0  1     1.700      4
            0  0  0  1     1.040      5
            1  0  0  0     2.600      6
            0  1  0  0     2.600      7
            0  0  1  0     2.600      8
            1  0  0  0     1.260      9
            0  1  0  0     1.260     10
            0  0  1  0     1.260     11
            1  0  0  0     0.680     12
            0  1  0  0     0.680     13
            0  0  1  0     0.680     14
            2  0  0  0     2.000     15
            1  1  0  0     2.000     16
            1  0  1  0     2.000     17
            0  2  0  0     2.000     18
            0  1  1  0     2.000     19
            0  0  2  0     2.000     20
            3  0  0  0     3.000     21
            2  1  0  0     3.000     22
            2  0  1  0     3.000     23
            1  2  0  0     3.000     24
            1  1  1  0     3.000     25
            1  0  2  0     3.000     26
            0  3  0  0     3.000     27
            0  2  1  0     3.000     28
            0  1  2  0     3.000     29
            0  0  3  0     3.000     30

 H                                    2    3    4
                                  ---------------------------------------------------------------------------
            0  0  0  0     0.690     31   43   55
            0  0  0  0     0.920     32   44   56
            0  0  0  0     1.580     33   45   57
            1  0  0  0     1.250     34   46   58
            0  1  0  0     1.250     35   47   59
            0  0  1  0     1.250     36   48   60
            2  0  0  0     2.500     37   49   61
            1  1  0  0     2.500     38   50   62
            1  0  1  0     2.500     39   51   63
            0  2  0  0     2.500     40   52   64
            0  1  1  0     2.500     41   53   65
            0  0  2  0     2.500     42   54   66

 Total number of charge fitting functions (nprimf)       234
 Total number of Cartesian basis functions (naos)         66
 Total number of Cartesian core functions  (ncos)          0

1
 ***************************************************************************************************



                                              ***********************
                                              *  T E C H N I C A L  *
                                              ***********************
  



 =============================================================
 P A R A L L E L I Z A T I O N  and  V E C T O R I Z A T I O N
 =============================================================
  
 Nr of parallel processes:                               12
 Maximum vector length in NumInt loops:                 128

 IO buffersize (Mb):                                     64.000000



 =====================
 S C F   U P D A T E S
 =====================
  
 Max. nr. of cycles:                               250
 Convergence criterion:                              0.0000010000
   secondary criterion:                              0.0010000000

 Mix parameter (when DIIS does not apply):           0.2000000000
 Mixed ADIIS+DIIS will be used
    Max number of expansion vectors:                10
    Pure ADIIS when Max([F,P]) is above              0.1000000000
    Pure DIIS when Max([F,P]) is below               0.0010000000
 Automatic ElectronSmearing (in case of problematic SCF convergence) disabled



 =================
 P R E C I S I O N  ***  (General: NumInt, NeglectFunctionTails, ...)  ***
 =================
  

 NumInt:           Target precision:                 6.0000000000
 -------           Initial precision:                6.0000000000
                   Min. precision (optimization):    6.0000000000

 Neglect Functions:          Basis functions:        0.1000000000E-07
 ------------------          Fit functions:          0.1000000000E-07



 ===========================
 L I N E A R   S C A L I N G
 ===========================
  

 Cut-off radii density fit:                        0.1000000000E-09
 Overlap cut-off criterion AO matrix elements:     0.1000000000E-07
 Cut-offs for Coulomb potential and fitted density:0.1000000000E-09
 Cut-off criterion for Coulomb multipole terms:    0.1000000000E-09
 Progressive Convergence parameter:                 0.000000000    
1
 ***************************************************************************************************



                                            ***************************
                                            *  C O M P U T A T I O N  *
                                            ***************************
  

 Number of elements of the density matrix on this node (used, total):       465      2211



 ===========================================
 Numerical Integration : Fuzzy Cells (Becke)
 ===========================================
  
 Becke grid quality: GOOD           
  
 Lebedev angular grid order:             min:  11 max:  31
 Nr. of radial points:                   min:  54 max:  65

 Total nr. of points:      49214
 Nr. of blocks:              385
 Block length:               128
 Nr. of dummy points:         66


 Test of Precision of the Numerical Integration Grid
 ===================================================

 Integral of the Total Core Density:                   0.00000000000000



 ========================
 Density Fitting (zlmFit)
 ========================
  
 ZlmFit Fit Quality: NORMAL         
  
 Max L-expansion:                        min:   6 max:   7
 Nr. of radial interpolation points:     min:  39 max:  48



 =====
 S C F  ***  ScaSCF  ***
 =====
  
 Initial density matrix is calculated as sum of fragments

 CYCLE    1
 SCF Error: norm([F,P])=      1.380218833234, max([F,P])=      0.619372679568
 orbitals (Q,E):
 ---------------
 A :1...14           ( 2.00    -6.7152)  ( 2.00    -0.6028)  ( 2.00    -0.4353)  ( 2.00    -0.4353)
                     ( 0.00    -0.2226)  ( 0.00    -0.0229)  ( 0.00     0.0166)  ( 0.00     0.0166)
                     ( 0.00     0.0445)  ( 0.00     0.0445)  ( 0.00     0.0830)  ( 0.00     0.1423)
                     ( 0.00     0.2669)  ( 0.00     0.2669)

 CYCLE    2
  SDIIS (wt  0.000):  0.0873  0.9127
 A-DIIS (wt  1.000):  0.0000  1.0000
  DIIS coefficients:  0.0000  1.0000
 SCF Error: norm([F,P])=      0.274970541778, max([F,P])=      0.051034437989
 orbitals (Q,E):
 ---------------
 A :1...5            ( 2.00    -6.4379)  ( 2.00    -0.4058)  ( 2.00    -0.2488)  ( 2.00    -0.2488)
                     ( 0.00    -0.0985)

 CYCLE    3
  SDIIS (wt  0.000):  0.0081  0.4157  0.5762
 A-DIIS (wt  1.000):  0.0000  0.2803  0.7197
  DIIS coefficients:  0.0000  0.2803  0.7197
 SCF Error: norm([F,P])=      0.195582522199, max([F,P])=      0.038002112054
 orbitals (Q,E):
 ---------------
 A :1...5            ( 2.00    -6.5984)  ( 2.00    -0.4827)  ( 2.00    -0.3166)  ( 2.00    -0.3166)
                     ( 0.00    -0.1520)

 CYCLE    4
  SDIIS (wt  0.840):  0.0966  0.3116  0.5918
 A-DIIS (wt  0.160):  0.0000  0.0000  1.0000
  DIIS coefficients:  0.0811  0.2619  0.6570
 SCF Error: norm([F,P])=      0.064668557904, max([F,P])=      0.016805368820
 orbitals (Q,E):
 ---------------
 A :1...5            ( 2.00    -6.5488)  ( 2.00    -0.4648)  ( 2.00    -0.3019)  ( 2.00    -0.3019)
                     ( 0.00    -0.1377)

 CYCLE    5
  SDIIS (wt  0.971):  0.0185  0.0973  0.3104  0.5738
 A-DIIS (wt  0.029):  0.0000  0.0000  0.0000  1.0000
  DIIS coefficients:  0.0180  0.0945  0.3013  0.5862
 SCF Error: norm([F,P])=      0.012543862060, max([F,P])=      0.003883942615
 orbitals (Q,E):
 ---------------
 A :1...5            ( 2.00    -6.5572)  ( 2.00    -0.4672)  ( 2.00    -0.3039)  ( 2.00    -0.3039)
                     ( 0.00    -0.1404)

 CYCLE    6
  SDIIS (wt  1.000): -0.0005  0.0084  0.0483  0.1900  0.7539
  DIIS coefficients: -0.0005  0.0084  0.0483  0.1900  0.7539
 SCF Error: norm([F,P])=      0.001415236226, max([F,P])=      0.000396605158
 orbitals (Q,E):
 ---------------
 A :1...5            ( 2.00    -6.5564)  ( 2.00    -0.4669)  ( 2.00    -0.3035)  ( 2.00    -0.3035)
                     ( 0.00    -0.1401)

 CYCLE    7
  SDIIS (wt  1.000):  0.0001  0.0001  0.0007 -0.0001 -0.0392  1.0385
  DIIS coefficients:  0.0001  0.0001  0.0007 -0.0001 -0.0392  1.0385
 SCF Error: norm([F,P])=      0.000057937405, max([F,P])=      0.000015579463
 orbitals (Q,E):
 ---------------
 A :1...5            ( 2.00    -6.5564)  ( 2.00    -0.4669)  ( 2.00    -0.3035)  ( 2.00    -0.3035)
                     ( 0.00    -0.1401)

 CYCLE    8
  SDIIS (wt  1.000):  0.0000 -0.0000 -0.0001 -0.0008 -0.0016 -0.0045  1.0069
  DIIS coefficients:  0.0000 -0.0000 -0.0001 -0.0008 -0.0016 -0.0045  1.0069
 SCF Error: norm([F,P])=      0.000003190571, max([F,P])=      0.000000898926
 orbitals (Q,E):
 ---------------
 A :1...5            ( 2.00    -6.5564)  ( 2.00    -0.4669)  ( 2.00    -0.3035)  ( 2.00    -0.3035)
                     ( 0.00    -0.1401)

 SCF CONVERGED

 CYCLE    9
1
 ***************************************************************************************************



                                                *******************
                                                *  R E S U L T S  *
                                                *******************
  
 *** Setting up for NEW gradients in Focky
 *** Using FIT density in Focky
[...]
    4       1          4       0.32746503D-04
    4       1          5       0.64210125D-05
*** CPKS converged.
----------------------------------------------
    4       2          1       0.11103345D-01
    4       2          2       0.73804751D-03
    4       2          3       0.14424842D-03
    4       2          4       0.37913253D-04
    4       2          5       0.70871851D-05
*** CPKS converged.
----------------------------------------------
    4       3          1       0.13707958D-01
    4       3          2       0.11985199D-02
    4       3          3       0.34482192D-03
    4       3          4       0.47561888D-04
    4       3          5       0.78037153D-05
*** CPKS converged.
----------------------------------------------

====================  end of solving CPKS equations  ====================

 ***************************************************************************************************



                                     ******************************************
                                     *  F R E Q U E N C Y    A N A L Y S I S  *
                                     ******************************************
  


 Atomic Masses:
 ---------------
    1. B              11.00930500
    2. H               1.00782500
    3. H               1.00782500
    4. H               1.00782500



 ======================================
 Normal Modes in Symmetry Displacements  ***  (cartesians, not mass-weighted)  ***
 ======================================
  


                                       === A ===

 Symmetry Displacements


                          1                             2                             3
              ------------------------      ------------------------      ------------------------
    1.B          0.137   0.009  -0.003         0.000   0.133  -0.002         0.000   0.000   0.130
    2.H         -0.365   0.057  -0.023        -0.203  -0.620   0.062         0.022   0.015  -0.481
    3.H         -0.589  -0.093   0.037         0.063  -0.441  -0.009        -0.217  -0.145  -0.417
    4.H         -0.538  -0.059   0.023         0.141  -0.389  -0.030         0.195   0.131  -0.527


                          4                             5                             6
              ------------------------      ------------------------      ------------------------
    1.B          0.000   0.000   0.000         0.000   0.000   0.000         0.000   0.000   0.000
    2.H          0.470  -0.638   0.159         0.000   0.215   0.541         0.000   0.000   0.000
    3.H         -0.280   0.382  -0.087        -0.281   0.294  -0.315         0.090   0.138   0.685
    4.H         -0.191   0.256  -0.073         0.281  -0.509  -0.226        -0.090  -0.138  -0.685


 Frequencies and Normal Modes
 ============================

             1           2           3           4           5           6

         1128.1641   1128.2821   1136.2903   2351.2290   2425.4412   2425.6243
        ----------  ----------  ----------  ----------  ----------  ----------
   1    0.31158710 -0.22286073  0.80248550 -0.19656237 -0.33876772  0.23635408
   2   -0.55480833  0.11284332  0.51239420 -0.12305666  0.31817503 -0.54820433
   3   -0.21212543 -0.62249591 -0.19354022  0.04624754 -0.57802588 -0.44021708
   4    0.51821230 -0.10377577 -0.17244718 -0.67886746  0.24090820 -0.41479006
   5    0.22216668  0.70297321  0.02378512  0.10585849 -0.53805075 -0.39395466
   6    0.48187340 -0.21250314  0.16033595  0.68703305  0.31992467 -0.35009515


 Intensities
 ===========

               Frequency       Dipole Strength        Absorption Intensity (degeneracy not counted)
                 cm-1           1e-40 esu2 cm2          km/mole
              ----------          ----------          ----------
             1128.164127           15.198601            4.297877
             1128.282076           15.113954            4.274387
             1136.290290          207.511910           59.103118
             2351.229034            4.912932            2.895435
             2425.441194          212.286727          129.060000
             2425.624343          212.279026          129.065063



 Zero-Point Energy :      0.024137 a.u.
 ===================      0.656808 eV
                                                   hartree              eV         kcal/mol           kJ/mol
                                      --------------------     -----------       ----------      -----------
              Bond Energy:              -0.549941828973582        -14.9647          -345.09         -1443.87
              Zero-Point Energy:         0.024137257447922          0.6568            15.15            63.37
              Enthalpy (T=0K):          -0.525804571525660        -14.3079          -329.95         -1380.50



 ===========================
 Vibrations and Normal Modes  ***  (cartesian coordinates, NOT mass-weighted)  ***
 ===========================
  
 The headers on the normal mode eigenvectors below give the Frequency in cm-1
 (a negative value means an imaginary frequency, no output for (almost-)zero frequencies)


                      1128.164                      1128.282                      1136.290
              ------------------------      ------------------------      ------------------------
    1.B          0.044  -0.074  -0.029         0.032  -0.014   0.084        -0.122  -0.083   0.032
    2.H          0.249   0.079   0.275         0.004  -0.131  -0.705         0.536   0.177  -0.102
    3.H         -0.351   0.602   0.334        -0.090  -0.208   0.112         0.381   0.344  -0.248
    4.H         -0.383   0.128  -0.295        -0.262   0.488  -0.327         0.414   0.389  -0.003


                      2351.229                      2425.441                      2425.624
              ------------------------      ------------------------      ------------------------
    1.B          0.027   0.018  -0.007         0.049  -0.041   0.079         0.034  -0.075  -0.060
    2.H          0.224  -0.526   0.077        -0.168   0.521  -0.056        -0.189   0.555  -0.113
    3.H         -0.323   0.068  -0.475        -0.482   0.049  -0.625         0.123  -0.041   0.124
    4.H         -0.197   0.259   0.475         0.118  -0.118  -0.182        -0.306   0.300   0.646




 List of All Frequencies:


 Intensities
 ===========

               Frequency       Dipole Strength        Absorption Intensity (degeneracy not counted)
                 cm-1           1e-40 esu2 cm2          km/mole
              ----------          ----------          ----------
             1128.164127           15.198601            4.297877
             1128.282076           15.113954            4.274387
             1136.290290          207.511910           59.103118
             2351.229034            4.912932            2.895435
             2425.441194          212.286727          129.060000
             2425.624343          212.279026          129.065063



 ============================
 Statistical Thermal Analysis  ***  ideal gas assumed  ***
 ============================
  
 Pressure:                  1.000000 atm.
 Temperature:             298.150000 K



 Moments of Inertia (and direction vectors)
 ==========================================

           8.5294          8.5311         14.7297
 ------------------------------------------------
           0.4904          0.3195         -0.8108
          -0.4297         -0.7207         -0.5439
           0.7582         -0.6152          0.2162


 The rotational contribution to the molecular entropy includes
 a term, dependent on the symmetry number sigma. The results 
 reported below were computed using sigma = 3, determined from
 the point group symmetry of the input geometry (C(3V)). 
 If this is not the correct symmetry, please contact SCM to report a bug.
 Contributions from frequencies below 20 1/cm are not included in
 the vibrational sums. Their contributions, if any, are reported separately.


     Temp                                                       Transl     Rotat    Vibrat     Total
     ----                                                       ------     -----    ------     -----

     298.15   Entropy (cal/mole-K):                             33.864    12.552     0.166    46.582
              Internal Energy (Kcal/mole):                       0.889     0.889    15.188    16.966
              Constant Volume Heat Capacity (cal/mole-K):        2.981     2.981     0.771     6.733

              Summary of energy terms
                                                   hartree              eV         kcal/mol           kJ/mol
                                      --------------------     -----------       ----------      -----------
              Bond Energy:              -0.549941828973582        -14.9647          -345.09         -1443.87
              Internal Energy:           0.027036336836099          0.7357            16.97            70.98
              pV/n = RT:                 0.000944186013486          0.0257             0.59             2.48
              Enthalpy H:               -0.521961306123997        -14.2033          -327.54         -1370.41
              -T*S:                     -0.022132698888817         -0.6023           -13.89           -58.11
              Gibbs free energy:        -0.544094005012813        -14.8056          -341.42         -1428.52
 

 ***************************************************************************************************
 


====================================================================
*** DONE CALCULATING ANALYTICAL SECOND DERIVATIVES OF THE ENERGY ***
====================================================================

 
 
 ========================
 No memory problems found
 ========================
 
 Maximum number of active allocate calls:         993
 
 *******************************************************************************

                             A D F   E X I T
 NORMAL TERMINATION



 =================
 Timing Statistics
 =================
  
 Total Used :                     CPU=        7.72      System=        0.34     Elapsed=        8.11

 Calls  Section                     ( Mean, Percentage )
 ---------------------------------------------------------------------------------------------------
     3  ><      ................      0.00    0.01             0.00    0.00             0.00    0.01
     1  INIT    ................      0.48    6.16             0.02    5.65             0.50    6.10
     1  GEOMET  ................      0.02    0.30             0.00    1.49             0.03    0.36
     1  FRAGM   ................      0.01    0.10             0.01    3.57             0.02    0.25
     1  INPUTA  ................      0.00    0.00             0.00    0.00             0.00    0.00
     1  ATDEN   ................      0.01    0.09             0.00    0.00             0.01    0.08
     1  MAINSY  ................      0.01    0.08             0.01    1.79             0.02    0.19
     1  SYMFIT  ................      0.00    0.03             0.00    0.00             0.00    0.02
     1  CORORT  ................      0.00    0.00             0.00    0.00             0.00    0.00
     1  SYMORB  ................      0.00    0.03             0.00    0.00             0.00    0.03
     1  CLSMAT  ................      0.01    0.13             0.00    0.00             0.01    0.11
     1  ORTHON  ................      0.00    0.05             0.00    0.30             0.01    0.06
     1  GENPT   ................      0.05    0.70             0.00    1.19             0.06    0.72
     1  PTBAS   ................      0.01    0.18             0.00    0.60             0.02    0.20
     9  FOCKY   ................      0.08    9.17             0.00    0.89             0.08    8.73
     9  FOCKTR  ................      0.00    0.13             0.00    0.00             0.00    0.16
     9  SDIIS   ................      0.00    0.21             0.00    0.30             0.00    0.24
     1  COREPS  ................      0.07    0.87             0.00    0.00             0.07    0.82
     1  TOTEN   ................      0.18    2.36             0.00    1.19             0.19    2.31
     1  POPAN   ................      0.00    0.03             0.00    0.30             0.00    0.04
     1  DEBYE   ................      0.00    0.04             0.00    0.00             0.00    0.03
     1  INPUTE  ................      0.00    0.00             0.00    0.00             0.00    0.00
     1  SYMORE  ................      0.00    0.01             0.00    0.30             0.00    0.01
     1  METS    ................      0.00    0.00             0.00    0.00             0.00    0.01
     1  CETS    ................      0.00    0.04             0.00    0.00             0.00    0.04
     2  ELNRGY  ................      0.03    0.76             0.00    1.19             0.03    0.78
     1  POPUL   ................      0.01    0.10             0.00    0.30             0.01    0.11
     1  ENGRAD  ................      0.00    0.00             0.00    0.30             0.00    0.02
     1  ENHESS  ................      6.04   78.21             0.27   79.46             6.35   78.28
     1  EXIT PROCEDURE .........      0.02    0.22             0.00    1.19             0.02    0.27


 Currently Open Files (EXIT00)
 ====================

 Unit    Access Format  Status   Type       Ident (file)
 -------------------------------------------------------
   3      SEQ    FORM   TRANSP  NORMAL      LOGFILE
                                          ( logfile )


 Buffered I/O statistics
 =======================
 Memory available:                     67108864
 Number of records fitting in memory:     16131
 Input :   0.5% of                       156683  *4k bytes
 Output:   6.3% of                         6350  *4k bytes
 Records from serial files evicted:           0
                    others evicted:           0
 Hash table lookups:     412778 with          0 conflicts (  0.00%)

 ***************************************************************************************************
 (LOGFILE)
 <Apr24-2019> <15:49:54>  ADF development version  RunTime: Apr24-2019 15:49:54  Nodes: 1  Procs: 1
 <Apr24-2019> <15:49:54>  Hydrogen (TZ2P)
 <Apr24-2019> <15:49:54>  RunType   : CREATE
 <Apr24-2019> <15:49:54>  Net Charge: 0 (Nuclei minus Electrons)
 <Apr24-2019> <15:49:54>  Symmetry  : ATOM
  Coordinates
    Atom         X           Y           Z   (Angstrom)
    1.H         0.000000    0.000000    0.000000
 <Apr24-2019> <15:49:54>  >>>> CORORT
 <Apr24-2019> <15:49:54>  >>>> CLSMAT
 <Apr24-2019> <15:49:54>  >>>> ORTHON
 <Apr24-2019> <15:49:54>  >>>> GENPT
 <Apr24-2019> <15:49:54>  Block Length=  64
 <Apr24-2019> <15:49:54>  >>>> PTBAS
 <Apr24-2019> <15:49:54>  >>>> CYCLE
 <Apr24-2019> <15:49:54>              |Error|         MaxErr       Wt(A-DIIS)
 <Apr24-2019> <15:49:54>      1      0.00000000      0.00000000
 <Apr24-2019> <15:49:54>      2      0.03052616      0.02968253
 <Apr24-2019> <15:49:54>      3      0.00718306      0.00671215    100.0
 <Apr24-2019> <15:49:54>      4      0.00117509      0.00114306      0.1
 <Apr24-2019> <15:49:54>      5      0.00002753      0.00002354      0.0
 <Apr24-2019> <15:49:54>      6      0.00000151      0.00000129      0.0
 <Apr24-2019> <15:49:54>      7      0.00000000      0.00000000      0.0
 <Apr24-2019> <15:49:54>  SCF converged
 <Apr24-2019> <15:49:54>      8      0.00000000      0.00000000      0.0
 <Apr24-2019> <15:49:54>  >>>> POPAN
 <Apr24-2019> <15:49:54>  >>>> DEBYE
 <Apr24-2019> <15:49:54>  NORMAL TERMINATION
 <Apr24-2019> <15:49:54>  END
 <Apr24-2019> <15:49:54>  ADF development version  RunTime: Apr24-2019 15:49:54  Nodes: 1  Procs: 1
 <Apr24-2019> <15:49:54>  Boron (TZ2P)
 <Apr24-2019> <15:49:54>  RunType   : CREATE
 <Apr24-2019> <15:49:54>  Net Charge: 0 (Nuclei minus Electrons)
 <Apr24-2019> <15:49:54>  Symmetry  : ATOM
  Coordinates
    Atom         X           Y           Z   (Angstrom)
    1.B         0.000000    0.000000    0.000000
 <Apr24-2019> <15:49:54>  >>>> CORORT
 <Apr24-2019> <15:49:54>  >>>> CLSMAT
 <Apr24-2019> <15:49:54>  >>>> ORTHON
 <Apr24-2019> <15:49:54>  >>>> GENPT
 <Apr24-2019> <15:49:54>  Block Length=  76
 <Apr24-2019> <15:49:54>  >>>> PTBAS
 <Apr24-2019> <15:49:54>  >>>> CYCLE
 <Apr24-2019> <15:49:54>              |Error|         MaxErr       Wt(A-DIIS)
 <Apr24-2019> <15:49:54>      1      0.00000000      0.00000000
 <Apr24-2019> <15:49:54>      2      3.20693062      2.04423772    100.0
 <Apr24-2019> <15:49:54>      3      1.04080726      0.88670381    100.0
 <Apr24-2019> <15:49:55>      4      0.44204202      0.38656679    100.0
 <Apr24-2019> <15:49:55>      5      0.21559391      0.19710799    100.0
 <Apr24-2019> <15:49:55>      6      0.08789647      0.07906051     78.8
 <Apr24-2019> <15:49:55>      7      0.03981004      0.03610293     35.5
 <Apr24-2019> <15:49:55>      8      0.00808566      0.00731531      6.4
 <Apr24-2019> <15:49:55>      9      0.00029689      0.00026855      0.0
 <Apr24-2019> <15:49:55>     10      0.00000032      0.00000026      0.0
 <Apr24-2019> <15:49:55>     11      0.00000000      0.00000000      0.0
 <Apr24-2019> <15:49:55>  SCF converged
 <Apr24-2019> <15:49:55>     12      0.00000000      0.00000000      0.0
 <Apr24-2019> <15:49:55>  >>>> POPAN
 <Apr24-2019> <15:49:55>  >>>> DEBYE
 <Apr24-2019> <15:49:55>  NORMAL TERMINATION
 <Apr24-2019> <15:49:55>  END
 <Apr24-2019> <15:49:55>  ADF development version  RunTime: Apr24-2019 15:49:55  Nodes: 1  Procs: 12
 <Apr24-2019> <15:49:55>  *** (NO TITLE) ***
 <Apr24-2019> <15:49:55>  RunType   : SINGLE POINT
 <Apr24-2019> <15:49:55>  Net Charge: 0 (Nuclei minus Electrons)
 <Apr24-2019> <15:49:55>  Symmetry  : NOSYM
 <Apr24-2019> <15:49:55>  >>>> FRAGM
  Coordinates
    Atom         X           Y           Z   (Angstrom)
    1.B        -0.699821   -0.921212    0.039035
    2.H        -1.066308    0.233402   -0.146240
    3.H         0.063525   -0.997313    0.994773
    4.H        -0.194418   -1.394523   -0.972052
 <Apr24-2019> <15:49:55>  >>>> CORORT
 <Apr24-2019> <15:49:55>  >>>> CLSMAT
 <Apr24-2019> <15:49:55>  >>>> ORTHON
 <Apr24-2019> <15:49:56>  >>>> GENPT
 <Apr24-2019> <15:49:56>  Block Length= 128
 <Apr24-2019> <15:49:56>  >>>> PTBAS
 <Apr24-2019> <15:49:56>  >>>> CYCLE
 <Apr24-2019> <15:49:56>              |Error|         MaxErr       Wt(A-DIIS)
 <Apr24-2019> <15:49:56>      1      1.38021883      0.61937268
 <Apr24-2019> <15:49:56>      2      0.27497054      0.05103444    100.0
 <Apr24-2019> <15:49:56>      3      0.19558252      0.03800211    100.0
 <Apr24-2019> <15:49:56>      4      0.06466856      0.01680537     16.0
 <Apr24-2019> <15:49:56>      5      0.01254386      0.00388394      2.9
 <Apr24-2019> <15:49:56>      6      0.00141524      0.00039661      0.0
 <Apr24-2019> <15:49:56>      7      0.00005794      0.00001558      0.0
 <Apr24-2019> <15:49:56>      8      0.00000319      0.00000090      0.0
 <Apr24-2019> <15:49:56>  SCF converged
 <Apr24-2019> <15:49:56>      9      0.00000013      0.00000005      0.0
 <Apr24-2019> <15:49:56>  >>>> TOTEN
 <Apr24-2019> <15:49:57>  >>>> POPAN
 <Apr24-2019> <15:49:57>  >>>> DEBYE
 <Apr24-2019> <15:49:57>  >>>> AMETS
 <Apr24-2019> <15:49:57>   Bond Energy          -0.54994183 a.u.
 <Apr24-2019> <15:49:57>   Bond Energy         -14.96467857 eV
 <Apr24-2019> <15:49:57>   Bond Energy        -345.09       kcal/mol
 <Apr24-2019> <15:49:57>  >>>> POPUL
 <Apr24-2019> <15:49:57>  >>>> ENGRAD
 <Apr24-2019> <15:49:57>  >>>> ENHESS
 <Apr24-2019> <15:49:57>  === NUCLEUS:     1
 <Apr24-2019> <15:49:58>  === NUCLEUS:     2
 <Apr24-2019> <15:50:00>  === NUCLEUS:     3
 <Apr24-2019> <15:50:01>  === NUCLEUS:     4
 <Apr24-2019> <15:50:03>  >>>> CALC_HESS_PMAT
 <Apr24-2019> <15:50:03>  >>>> CALC_HESS_WMAT
 <Apr24-2019> <15:50:03>  NORMAL TERMINATION
 <Apr24-2019> <15:50:03>  END
