

 Parallel Execution: Process Information
 ==============================================================================
 Rank   Node Name                              NodeID   MyNodeRank  NodeMaster
    0   BAZIS-cn022                               0          0          0
    1   BAZIS-cn022                               0          1         -1
    2   BAZIS-cn022                               0          2         -1
    3   BAZIS-cn022                               0          3         -1
    4   BAZIS-cn022                               0          4         -1
    5   BAZIS-cn022                               0          5         -1
    6   BAZIS-cn022                               0          6         -1
    7   BAZIS-cn022                               0          7         -1
    8   BAZIS-cn022                               0          8         -1
    9   BAZIS-cn022                               0          9         -1
   10   BAZIS-cn022                               0         10         -1
   11   BAZIS-cn022                               0         11         -1
 ==============================================================================


May use up to 30771MB of RAM as shared memory on node 0


XC
    GGA BLYP
END

REMOVEFRAGORBITALS
 1
  A2 16
  E1:1 55
  E1:2 55
 SUBEND

 2
  A2 2
  E1:1 13
  E1:2 13
 SUBEND
END

SCF
    iterations 250
END

EPRINT
    SFO Eig Ovl
END

ZLMFIT
    Quality normal
END

BECKEGRID
    Quality good
End

SYMMETRY C(3V)
CHARGE 0

ATOMS
Ni       0.00000000       0.00000000       0.00000000 f=1
C      -1.69105041      -0.45311559      -0.61896741 f=1
O      -2.73847408      -0.73377192      -1.00235108 f=1
C       0.00000000       0.00000000       1.85690223 f=2
O       0.00000000       0.00000000       3.00705324 f=2
C       0.45311559       1.69105041      -0.61896741 f=1
O       0.73377192       2.73847408      -1.00235108 f=1
C       1.23793482      -1.23793482      -0.61896741 f=1
O       2.00470216      -2.00470216      -1.00235108 f=1
END

Fragments
1 /home/tcst25/advanced_comp_chemistry/exercise3/NiCO4/step3/sp_NiCO3.t21
2 /home/tcst25/advanced_comp_chemistry/exercise3/NiCO4/step3/sp_CO.t21
End
end input

 *******************************************************************************
 *                                                                             *
 *  -------------------------------------                                      *
 *   Amsterdam Density Functional  (ADF)         2017                          *
 *  -------------------------------------                                      *
 *                                               r58813 2017-04-12             *
 *                                                                             *
 *                                                                             *
 *                              =================                              *
 *                              |               |                              *
 *                              |     A D F     |                              *
 *                              |               |                              *
 *                              =================                              *
 *                                                                             *
 *                                                                             *
 *   Online information and documentation:  https://www.scm.com/support/       *
 *   E-mail:  support@scm.com   info@scm.com                                   *
 *                                                                             *
 *   Scientific publications using ADF results must be properly referenced     *
 *   See the User Manuals (or the web site) for recommended citations          *
 *   The terms and conditions of the End User License Agreement apply to       *
 *   the use of ADF, https://www.scm.com/license-terms/                        *
 *                                                                             *
 **********************  x86_64_linux_intel / intelmpi  ************************
 
 Licensed to: VU/FEW (+ SARA) / ALGEMEEN / Amsterdam / THE NETHERLANDS
 SCM User ID: u7668
  
 ADF 2017  RunTime: May19-2019 15:14:30  Nodes: 1  Procs: 12

 Temporary files are created in /local/datastore0/tcst25/190801/kid_0.cmo0cV


Communication costs MPI_COMM_WORLD:      3.854 usec per message,   0.0179 usec per 8-byte item
Communication costs for intra-node:      3.854 usec per message,   0.0173 usec per 8-byte item

 *** (NO TITLE) ***



 ===========================
 A T T A C H E D   F I L E S
 ===========================
  



 ===============================
 M O D E L   P A R A M E T E R S
 ===============================
  
 DENSITY FUNCTIONAL POTENTIAL (scf)
    LDA:                               Exchange only                           == Not Default ==
    Gradient Corrections:              Becke88 LYP                             == Not Default ==

 SPIN  (restricted / unrestr.)
    Molecule:                          Restricted                               
    Fragments:                         Restricted                               

 OTHER ASPECTS
    Relativistic Corrections:          ---                                      

    Nuclear Charge Density Model:      Point Charge Nuclei                      
    Core Treatment:                    Frozen Orbital(s)                        

    Hyperfine or Zeeman Interaction:   ---                                      


 Fragment File(s)
 ----------------
 1:
         file : /home/tcst25/advanced_comp_chemistry/exercise3/NiCO4/step3/sp_NiCO3.t21
         jobid: ADF development version  RunTime: May07-2019 19:28:13  Nodes: 1  Procs: 12
         title: *** (NO TITLE) ***
 2:
         file : /home/tcst25/advanced_comp_chemistry/exercise3/NiCO4/step3/sp_CO.t21
         jobid: ADF development version  RunTime: May07-2019 19:28:07  Nodes: 1  Procs: 12
         title: *** (NO TITLE) ***



                                        ************************************
                                        *  R U N   T Y P E : SINGLE POINT  *
                                        ************************************
  



 ===============
 G E O M E T R Y  ***  3D  Molecule  ***
 ===============
  

 ATOMS
 =====                            X Y Z                    CHARGE
                                (Angstrom)             Nucl     +Core       At.Mass
                       --------------------------    ----------------       -------
    1  Ni              0.0000    0.0000    0.0000     28.00     28.00       57.9353
    2  C              -1.7507    0.0000   -0.6190      6.00      6.00       12.0000
    3  O              -2.8351    0.0000   -1.0024      8.00      8.00       15.9949
    4  C               0.0000    0.0000    1.8569      6.00      6.00       12.0000
    5  O               0.0000    0.0000    3.0071      8.00      8.00       15.9949
    6  C               0.8754    1.5162   -0.6190      6.00      6.00       12.0000
    7  O               1.4175    2.4552   -1.0024      8.00      8.00       15.9949
    8  C               0.8754   -1.5162   -0.6190      6.00      6.00       12.0000
    9  O               1.4175   -2.4552   -1.0024      8.00      8.00       15.9949


 FRAGMENTS
 =========                                     Atoms in this Fragment     Cart. coord.s (Angstrom)
                                               -------------------------------------------------------
    1  1                                                 1  Ni           0.0000    0.0000    0.0000
                                                         2  C           -1.7507    0.0000   -0.6190
                                                         6  C            0.8754    1.5162   -0.6190
                                                         8  C            0.8754   -1.5162   -0.6190
                                                         3  O           -2.8351    0.0000   -1.0024
                                                         7  O            1.4175    2.4552   -1.0024
                                                         9  O            1.4175   -2.4552   -1.0024
    2  2                                                 4  C            0.0000    0.0000    1.8569
                                                         5  O            0.0000    0.0000    3.0071


 Interatomic Distance Matrix (Angstrom)
 --------------------------------------

   1)     0.000
   2)     1.857   0.000
   3)     3.007   1.150   0.000
   4)     1.857   3.032   4.027   0.000
   5)     3.007   4.027   4.910   1.150   0.000
   6)     1.857   3.032   4.027   3.032   4.027   0.000
   7)     3.007   4.027   4.910   4.027   4.910   1.150   0.000
   8)     1.857   3.032   4.027   3.032   4.027   3.032   4.027   0.000
   9)     3.007   4.027   4.910   4.027   4.910   4.027   4.910   1.150   0.000

 Min. Distance =    1.1502
 Max. Distance =    4.9105



 =====================================
 S Y M M E T R Y ,   E L E C T R O N S
 =====================================
  
 Symmetry: C(3V)

 Irreducible Representations, including subspecies
 -------------------------------------------------
 A1
 A2
 E1:1  E1:2


 Configuration of Valence Electrons
 ==================================
 ( determined in the SCF procedure )

 Total:   84

 Net Charge: 0 (Nuclei minus Electrons)

 Aufbau principle for MO occupations will be applied through SCF cycle no.     125
 Thereafter, the program will assign electrons to MOs that are spatially
 similar to the occupied MOs in a "reference" cycle ("KeepOrbitals").
 The reference cycle is always the PREVIOUS cycle: it will evolve with
 the SCF procedure.
1
 ***************************************************************************************************



                                      ****************************************
                                      *  B U I L D : (Fragments, Functions)  *
                                      ****************************************
  

 The individual fragments are copies of the corresponding 'Master' fragments defined on the fragment files.
 However, they may have been rotated (and translated) with respect to the Master. The local coordinate axes
 of each fragment (which define for instance the spatial orientation in the current molecule of a fragment
 P:x orbital) are not necessarily those of the molecule.
 The local frame (if different from the molecular one) is printed to enable an interpretation of the expan-
 sion of an MO in Fragment Orbitals.



                                              ***********************
                                              *  Fragment Type : 1  *
                                              ***********************
  

 Fragment no.    1   (in the list of all fragments)
 -----------------
 The local coordinate frame is identical to the molecular frame.

 Check Atomic Coordinates:

                  Master (on file)          After Computed Tranformation               As specified on Input
           ----------------------------     ----------------------------     ---------------------------------
     1)     0.00000   0.00000   0.00000      0.00000   0.00000   0.00000       1   0.00000   0.00000   0.00000
     2)    -1.75070   0.00000  -0.61897     -1.75070   0.00000  -0.61897       2  -1.75070   0.00000  -0.61897
     3)     0.87535   1.51615  -0.61897      0.87535   1.51615  -0.61897       6   0.87535   1.51615  -0.61897
     4)     0.87535  -1.51615  -0.61897      0.87535  -1.51615  -0.61897       8   0.87535  -1.51615  -0.61897
     5)    -2.83508   0.00000  -1.00235     -2.83508   0.00000  -1.00235       3  -2.83508   0.00000  -1.00235
     6)     1.41754   2.45525  -1.00235      1.41754   2.45525  -1.00235       7   1.41754   2.45525  -1.00235
     7)     1.41754  -2.45525  -1.00235      1.41754  -2.45525  -1.00235       9   1.41754  -2.45525  -1.00235



                                              ***********************
                                              *  Fragment Type : 2  *
                                              ***********************
  

 Fragment no.    2   (in the list of all fragments)
 -----------------
 The local coordinate frame is identical to the molecular frame.

 Check Atomic Coordinates:

                  Master (on file)          After Computed Tranformation               As specified on Input
           ----------------------------     ----------------------------     ---------------------------------
     1)     0.00000   0.00000   1.85690      0.00000   0.00000   1.85690       4   0.00000   0.00000   1.85690
     2)     0.00000   0.00000   3.00705      0.00000   0.00000   3.00705       5   0.00000   0.00000   3.00705



 =======
 S F O s  ***  (Symmetrized Fragment Orbitals)  ***
 =======
  
 SFOs are linear combinations of (valence) Fragment Orbitals (FOs), such that the SFOs transform as the
 irreducible representations of the (molecular) symmetry group. Each SFO is therefore characterized by
 an irrep of the molecule and by a few (or only one) generating FOs.
 The SFOs constitute a symmetry-adapted basis for the Fock matrix. The MO eigenvector coefficients in
 this basis provide a direct interpretation of the MOs in terms of Frontier Orbital Theory.

 The SFOs are combined with auxiliary Core Functions (CFs) to ensure orthogonalization on the (frozen)
 Core Orbitals (COs). The Core-orthogonalized SFOs (CSFOs) constitute the true Fock basis.

 The FOs, and hence also the (C)SFOs are combinations of the elementary basis functions (BAS). The basis
 functions that participate in the description of the SFOs depend on the irrep. The indices of the
 involved functions are printed below for each irrep.
 (The complete list of primitive basis functions is printed in another section)

 Total nr. of (C)SFOs (summation over all irreps) :   103

 NOTE: a (C)SFO that is defined as a combination of more than one FO is usually NOT normalized.



                                       === A1 ===
 Nr. of SFOs :   78
 Cartesian basis functions that participate in this irrep (total number =   223) :
      1     2     3     4    11    12    40    41    42     7
     10    15    18    21    45    27    33    39    22    25
     28    31    34    37    55    48    53    46    49    56
     86   116    57    87   117    58    88   118    59    89
    119    60    90   120    63    93   123    66    96   126
     69    99   129    61    91    92   121   122    64    94
     95   124   125    67    97    98   127   128    75   105
    135    72   102   104   132   134    70    73   100   101
    103   130   131   133    85   115   145    81   111   114
    141   144    78    83   108   110   113   138   140   143
     76    79   106   107   109   112   136   137   139   142
    146   176   206   147   177   207   148   178   208   149
    179   209   150   180   210   153   183   213   156   186
    216   159   189   219   151   181   182   211   212   154
    184   185   214   215   157   187   188   217   218   165
    195   225   162   192   194   222   224   160   163   190
    191   193   220   221   223   175   205   235   171   201
    204   231   234   168   173   198   200   203   228   230
    233   166   169   196   197   199   202   226   227   229
    232   236   237   238   239   240   243   246   249   255
    250   253   265   258   263   256   259   266   267   268
    269   270   273   276   279   285   280   283   295   288
    293   286   289

    SFO  (index         Fragment          Generating    Expansion in Fragment Orbitals
  indx  incl.CFs)   Occup   Orb.Energy   FragmentType  Coeff.   Orbital     on Fragment
 --------------------------------------------------------------------------------------
     1       1      2.000    -298.457 au  1             1.00      1 A1              1
                        (   -8121.420 eV)
     2       2      2.000     -35.261 au  1             1.00      2 A1              1
                        (    -959.510 eV)
     3       3      2.000     -30.778 au  1             1.00      3 A1              1
                        (    -837.503 eV)
     4       4      2.000     -18.871 au  1             1.00      4 A1              1
                        (    -513.515 eV)
     5       5      2.000     -10.034 au  1             1.00      5 A1              1
                        (    -273.048 eV)
     6       6      2.000      -3.836 au  1             1.00      6 A1              1
                        (    -104.391 eV)
     7       7      2.000      -2.464 au  1             1.00      7 A1              1
                        (     -67.045 eV)
     8       8      2.000      -1.050 au  1             1.00      8 A1              1
                        (     -28.584 eV)
     9       9      2.000      -0.525 au  1             1.00      9 A1              1
                        (     -14.279 eV)
    10      10      2.000      -0.432 au  1             1.00     10 A1              1
                        (     -11.745 eV)
    11      11      2.000      -0.421 au  1             1.00     11 A1              1
                        (     -11.446 eV)
    12      12      2.000      -0.230 au  1             1.00     12 A1              1
                        (      -6.268 eV)
    13      13       --        -0.129 au  1             1.00     13 A1              1
                        (      -3.505 eV)
    14      14       --        -0.000 au  1             1.00     14 A1              1
                        (      -0.001 eV)
    15      15       --         0.042 au  1             1.00     15 A1              1
                        (       1.139 eV)
    16      16       --         0.132 au  1             1.00     16 A1              1
                        (       3.585 eV)
    17      17       --         0.185 au  1             1.00     17 A1              1
                        (       5.047 eV)
    18      18       --         0.278 au  1             1.00     18 A1              1
                        (       7.578 eV)
    19      19       --         0.432 au  1             1.00     19 A1              1
                        (      11.756 eV)
    20      20       --         0.446 au  1             1.00     20 A1              1
                        (      12.132 eV)
    21      21       --         0.532 au  1             1.00     21 A1              1
                        (      14.490 eV)
    22      22       --         0.693 au  1             1.00     22 A1              1
                        (      18.868 eV)
    23      23       --         0.812 au  1             1.00     23 A1              1
                        (      22.107 eV)
    24      24       --         0.916 au  1             1.00     24 A1              1
                        (      24.936 eV)
    25      25       --         1.144 au  1             1.00     25 A1              1
                        (      31.131 eV)
    26      26       --         1.217 au  1             1.00     26 A1              1
                        (      33.123 eV)
    27      27       --         1.401 au  1             1.00     27 A1              1
                        (      38.111 eV)
    28      28       --         1.520 au  1             1.00     28 A1              1
                        (      41.367 eV)
    29      29       --         1.640 au  1             1.00     29 A1              1
                        (      44.630 eV)
    30      30       --         1.782 au  1             1.00     30 A1              1
                        (      48.490 eV)
    31      31       --         2.029 au  1             1.00     31 A1              1
                        (      55.214 eV)
    32      32       --         2.211 au  1             1.00     32 A1              1
                        (      60.160 eV)
    33      33       --         2.275 au  1             1.00     33 A1              1
                        (      61.895 eV)
    34      34       --         2.482 au  1             1.00     34 A1              1
                        (      67.537 eV)
    35      35       --         2.942 au  1             1.00     35 A1              1
                        (      80.043 eV)
    36      36       --         3.251 au  1             1.00     36 A1              1
                        (      88.452 eV)
    37      37       --         3.333 au  1             1.00     37 A1              1
                        (      90.708 eV)
    38      38       --         3.362 au  1             1.00     38 A1              1
                        (      91.481 eV)
    39      39       --         3.936 au  1             1.00     39 A1              1
                        (     107.104 eV)
    40      40       --         4.189 au  1             1.00     40 A1              1
                        (     113.979 eV)
    41      41       --         4.257 au  1             1.00     41 A1              1
                        (     115.837 eV)
    42      42       --         4.295 au  1             1.00     42 A1              1
                        (     116.885 eV)
    43      43       --         5.256 au  1             1.00     43 A1              1
                        (     143.021 eV)
    44      44       --         5.262 au  1             1.00     44 A1              1
                        (     143.198 eV)
    45      45       --         5.989 au  1             1.00     45 A1              1
                        (     162.956 eV)
    46      46       --         6.117 au  1             1.00     46 A1              1
                        (     166.455 eV)
    47      47       --         6.548 au  1             1.00     47 A1              1
                        (     178.180 eV)
    48      48       --         7.084 au  1             1.00     48 A1              1
                        (     192.754 eV)
    49      49       --        10.095 au  1             1.00     49 A1              1
                        (     274.702 eV)
    50      50       --        10.463 au  1             1.00     50 A1              1
                        (     284.713 eV)
    51      51       --        15.509 au  1             1.00     51 A1              1
                        (     422.023 eV)
    52      52       --        36.151 au  1             1.00     52 A1              1
                        (     983.727 eV)
    53      53       --        55.231 au  1             1.00     53 A1              1
                        (    1502.903 eV)
    54      54       --        76.825 au  1             1.00     54 A1              1
                        (    2090.501 eV)
    55      55       --       129.044 au  1             1.00     55 A1              1
                        (    3511.463 eV)
    56      56       --       616.615 au  1             1.00     56 A1              1
                        (   16778.960 eV)
    57      57      2.000     -18.885 au  2             1.00      1 A1              2
                        (    -513.897 eV)
    58      58      2.000     -10.033 au  2             1.00      2 A1              2
                        (    -273.024 eV)
    59      59      2.000      -1.059 au  2             1.00      3 A1              2
                        (     -28.825 eV)
    60      60      2.000      -0.514 au  2             1.00      4 A1              2
                        (     -13.979 eV)
    61      61      2.000      -0.331 au  2             1.00      5 A1              2
                        (      -9.009 eV)
    62      62       --         0.103 au  2             1.00      6 A1              2
                        (       2.794 eV)
    63      63       --         0.287 au  2             1.00      7 A1              2
                        (       7.809 eV)
    64      64       --         0.384 au  2             1.00      8 A1              2
                        (      10.454 eV)
    65      65       --         0.559 au  2             1.00      9 A1              2
                        (      15.199 eV)
    66      66       --         1.291 au  2             1.00     10 A1              2
                        (      35.126 eV)
    67      67       --         1.846 au  2             1.00     11 A1              2
                        (      50.241 eV)
    68      68       --         2.142 au  2             1.00     12 A1              2
                        (      58.290 eV)
    69      69       --         2.688 au  2             1.00     13 A1              2
                        (      73.155 eV)
    70      70       --         3.241 au  2             1.00     14 A1              2
                        (      88.197 eV)
    71      71       --         3.867 au  2             1.00     15 A1              2
                        (     105.222 eV)
    72      72       --         4.193 au  2             1.00     16 A1              2
                        (     114.092 eV)
    73      73       --         5.094 au  2             1.00     17 A1              2
                        (     138.611 eV)
    74      74       --         5.971 au  2             1.00     18 A1              2
                        (     162.478 eV)
    75      75       --         9.080 au  2             1.00     19 A1              2
                        (     247.084 eV)
    76      76       --        15.334 au  2             1.00     20 A1              2
                        (     417.270 eV)
    77      77       --        53.325 au  2             1.00     21 A1              2
                        (    1451.034 eV)
    78      78       --       128.554 au  2             1.00     22 A1              2
                        (    3498.139 eV)



                                       === A2 ===
 Nr. of SFOs :    1
 Cartesian basis functions that participate in this irrep (total number =   104) :
     47    52    62    91    92   121   122    65    94    95
    124   125    68    97    98   127   128    74   102   104
    132   134    71   100   101   103   130   131   133    84
    111   114   141   144    80   108   110   113   138   140
    143    77    82   106   107   109   112   136   137   139
    142   152   181   182   211   212   155   184   185   214
    215   158   187   188   217   218   164   192   194   222
    224   161   190   191   193   220   221   223   174   201
    204   231   234   170   198   200   203   228   230   233
    167   172   196   197   199   202   226   227   229   232
    257   262   287   292

    SFO  (index         Fragment          Generating    Expansion in Fragment Orbitals
  indx  incl.CFs)   Occup   Orb.Energy   FragmentType  Coeff.   Orbital     on Fragment
 --------------------------------------------------------------------------------------
     1       1      2.000      -0.413 au  1             1.00      1 A2              1
                        (     -11.247 eV)



                                       === E1:1 ===
 Nr. of SFOs :   12
 Cartesian basis functions that participate in this irrep (total number =   204) :
      5     8    13    16    19    43    24    30    36    22
     25    28    31    34    37    51    48    53    46    49
     56    86   116    57    87   117    58    88   118    59
     89   119    60    90   120    63    93   123    66    96
    126    69    99   129    61    91    92   121   122    64
     94    95   124   125    67    97    98   127   128    75
    105   135    72   102   104   132   134    70    73   100
    101   103   130   131   133    85   115   145    81   111
    114   141   144    78    83   108   110   113   138   140
    143    76    79   106   107   109   112   136   137   139
    142   146   176   206   147   177   207   148   178   208
    149   179   209   150   180   210   153   183   213   156
    186   216   159   189   219   151   181   182   211   212
    154   184   185   214   215   157   187   188   217   218
    165   195   225   162   192   194   222   224   160   163
    190   191   193   220   221   223   175   205   235   171
    201   204   231   234   168   173   198   200   203   228
    230   233   166   169   196   197   199   202   226   227
    229   232   241   244   247   252   250   253   261   258
    263   256   259   271   274   277   282   280   283   291
    288   293   286   289

    SFO  (index         Fragment          Generating    Expansion in Fragment Orbitals
  indx  incl.CFs)   Occup   Orb.Energy   FragmentType  Coeff.   Orbital     on Fragment
 --------------------------------------------------------------------------------------
     1       1      2.000     -30.785 au  1             1.00      1 E1:1            1
                        (    -837.698 eV)
     2       2      2.000     -18.871 au  1             1.00      2 E1:1            1
                        (    -513.515 eV)
     3       3      2.000     -10.034 au  1             1.00      3 E1:1            1
                        (    -273.048 eV)
     4       4      2.000      -2.477 au  1             1.00      4 E1:1            1
                        (     -67.399 eV)
     5       5      2.000      -1.050 au  1             1.00      5 E1:1            1
                        (     -28.579 eV)
     6       6      2.000      -0.511 au  1             1.00      6 E1:1            1
                        (     -13.895 eV)
     7       7      2.000      -0.421 au  1             1.00      7 E1:1            1
                        (     -11.451 eV)
     8       8      2.000      -0.417 au  1             1.00      8 E1:1            1
                        (     -11.344 eV)
     9       9      2.000      -0.397 au  1             1.00      9 E1:1            1
                        (     -10.811 eV)
    10      10      2.000      -0.244 au  1             1.00     10 E1:1            1
                        (      -6.652 eV)
    11      11      2.000      -0.206 au  1             1.00     11 E1:1            1
                        (      -5.615 eV)
    12      12      2.000      -0.423 au  2             1.00      1 E1:1            2
                        (     -11.516 eV)



                                       === E1:2 ===
 Nr. of SFOs :   12
 Cartesian basis functions that participate in this irrep (total number =   172) :
      6     9    14    17    20    44    26    32    38    23
     29    35    54    50    47    52    86   116    87   117
     88   118    89   119    90   120    93   123    96   126
     99   129    62    91    92   121   122    65    94    95
    124   125    68    97    98   127   128   105   135    74
    102   104   132   134    71   100   101   103   130   131
    133   115   145    84   111   114   141   144    80   108
    110   113   138   140   143    77    82   106   107   109
    112   136   137   139   142   176   206   177   207   178
    208   179   209   180   210   183   213   186   216   189
    219   152   181   182   211   212   155   184   185   214
    215   158   187   188   217   218   195   225   164   192
    194   222   224   161   190   191   193   220   221   223
    205   235   174   201   204   231   234   170   198   200
    203   228   230   233   167   172   196   197   199   202
    226   227   229   232   242   245   248   254   251   264
    260   257   262   272   275   278   284   281   294   290
    287   292

    SFO  (index         Fragment          Generating    Expansion in Fragment Orbitals
  indx  incl.CFs)   Occup   Orb.Energy   FragmentType  Coeff.   Orbital     on Fragment
 --------------------------------------------------------------------------------------
     1       1      2.000     -30.785 au  1             1.00      1 E1:2            1
                        (    -837.698 eV)
     2       2      2.000     -18.871 au  1             1.00      2 E1:2            1
                        (    -513.515 eV)
     3       3      2.000     -10.034 au  1             1.00      3 E1:2            1
                        (    -273.048 eV)
     4       4      2.000      -2.477 au  1             1.00      4 E1:2            1
                        (     -67.399 eV)
     5       5      2.000      -1.050 au  1             1.00      5 E1:2            1
                        (     -28.579 eV)
     6       6      2.000      -0.511 au  1             1.00      6 E1:2            1
                        (     -13.895 eV)
     7       7      2.000      -0.421 au  1             1.00      7 E1:2            1
                        (     -11.451 eV)
     8       8      2.000      -0.417 au  1             1.00      8 E1:2            1
                        (     -11.344 eV)
     9       9      2.000      -0.397 au  1             1.00      9 E1:2            1
                        (     -10.811 eV)
    10      10      2.000      -0.244 au  1             1.00     10 E1:2            1
                        (      -6.652 eV)
    11      11      2.000      -0.206 au  1             1.00     11 E1:2            1
                        (      -5.615 eV)
    12      12      2.000      -0.423 au  2             1.00      1 E1:2            2
                        (     -11.516 eV)



 ================================
 (Slater-type)  F U N C T I O N S  ***  (Basis and Fit)  ***
 ================================
  

 Atom Type    1  (Ni)
 ==============

 Valence Basis Sets:  19
 -----------------------
   1 S   33.000000
   1 S   25.900000
   2 S   10.950000
   2 S    7.150000
   2 P   15.450000
   2 P   10.000000
   3 S    6.600000
   3 S    4.000000
   3 P    6.800000
   3 P    4.500000
   3 P    3.050000
   3 D    7.000000
   3 D    3.350000
   3 D    1.540000
   4 S    2.450000
   4 S    1.480000
   4 S    0.940000
   4 P    1.470000
   4 F    2.300000

 Atom Type    2  (C)
 ==============

 Valence Basis Sets:  10
 -----------------------
   1 S    7.680000
   1 S    5.000000
   2 S    1.280000
   2 S    2.100000
   2 S    4.600000
   2 P    0.820000
   2 P    1.480000
   2 P    2.940000
   3 D    2.200000
   4 F    3.300000

 Atom Type    3  (O)
 ==============

 Valence Basis Sets:  10
 -----------------------
   1 S    9.800000
   1 S    6.800000
   2 S    7.580000
   2 S    2.880000
   2 S    1.720000
   2 P    4.080000
   2 P    2.080000
   2 P    1.120000
   3 D    2.000000
   4 F    3.000000

 Atom Type    4  (C)
 ==============

 Valence Basis Sets:  10
 -----------------------
   1 S    7.680000
   1 S    5.000000
   2 S    1.280000
   2 S    2.100000
   2 S    4.600000
   2 P    0.820000
   2 P    1.480000
   2 P    2.940000
   3 D    2.200000
   4 F    3.300000

 Atom Type    5  (O)
 ==============

 Valence Basis Sets:  10
 -----------------------
   1 S    9.800000
   1 S    6.800000
   2 S    7.580000
   2 S    2.880000
   2 S    1.720000
   2 P    4.080000
   2 P    2.080000
   2 P    1.120000
   3 D    2.000000
   4 F    3.000000


 BAS: List of all Elementary Cartesian Basis Functions
 =====================================================

 The numbering in the list below (to the right of the function characteristics) is referred
 to in print-outs of MO eigenvectors and Mulliken populations in the BAS representation
 (as contrasted to the SFO representation).

 Notes:
 1. The functions are characterized by a polynomial prefactor (powers of x,y,z and r) and
    an exponential decay factor alpha.
 2. Since the basis sets are specific for an atom TYPE, the individual functions occur on
    all atoms of that type.
 3. The word 'Core' in the left margin signals that it is a Core Function (CF) : not a
    degree of freedom in the valence set, but only used to ensure orthogonalization of
    the other valence basis functions on the frozen Core Orbitals.


 (power of) X  Y  Z  R     Alpha  on Atom
            ==========     =====     ==========

 Ni                                   1
                                  ---------------------------------------------------------------------------
            0  0  0  0    33.000      1
            0  0  0  0    25.900      2
            0  0  0  1    10.950      3
            0  0  0  1     7.150      4
            1  0  0  0    15.450      5
            0  1  0  0    15.450      6
            0  0  1  0    15.450      7
            1  0  0  0    10.000      8
            0  1  0  0    10.000      9
            0  0  1  0    10.000     10
            0  0  0  2     6.600     11
            0  0  0  2     4.000     12
            1  0  0  1     6.800     13
            0  1  0  1     6.800     14
            0  0  1  1     6.800     15
            1  0  0  1     4.500     16
            0  1  0  1     4.500     17
            0  0  1  1     4.500     18
            1  0  0  1     3.050     19
            0  1  0  1     3.050     20
            0  0  1  1     3.050     21
            2  0  0  0     7.000     22
            1  1  0  0     7.000     23
            1  0  1  0     7.000     24
            0  2  0  0     7.000     25
            0  1  1  0     7.000     26
            0  0  2  0     7.000     27
            2  0  0  0     3.350     28
            1  1  0  0     3.350     29
            1  0  1  0     3.350     30
            0  2  0  0     3.350     31
            0  1  1  0     3.350     32
            0  0  2  0     3.350     33
            2  0  0  0     1.540     34
            1  1  0  0     1.540     35
            1  0  1  0     1.540     36
            0  2  0  0     1.540     37
            0  1  1  0     1.540     38
            0  0  2  0     1.540     39
            0  0  0  3     2.450     40
            0  0  0  3     1.480     41
            0  0  0  3     0.940     42
            1  0  0  2     1.470     43
            0  1  0  2     1.470     44
            0  0  1  2     1.470     45
            3  0  0  0     2.300     46
            2  1  0  0     2.300     47
            2  0  1  0     2.300     48
            1  2  0  0     2.300     49
            1  1  1  0     2.300     50
            1  0  2  0     2.300     51
            0  3  0  0     2.300     52
            0  2  1  0     2.300     53
            0  1  2  0     2.300     54
            0  0  3  0     2.300     55

 C                                    2    3    4
                                  ---------------------------------------------------------------------------
            0  0  0  0     7.680     56   86  116
            0  0  0  0     5.000     57   87  117
            0  0  0  1     1.280     58   88  118
            0  0  0  1     2.100     59   89  119
            0  0  0  1     4.600     60   90  120
            1  0  0  0     0.820     61   91  121
            0  1  0  0     0.820     62   92  122
            0  0  1  0     0.820     63   93  123
            1  0  0  0     1.480     64   94  124
            0  1  0  0     1.480     65   95  125
            0  0  1  0     1.480     66   96  126
            1  0  0  0     2.940     67   97  127
            0  1  0  0     2.940     68   98  128
            0  0  1  0     2.940     69   99  129
            2  0  0  0     2.200     70  100  130
            1  1  0  0     2.200     71  101  131
            1  0  1  0     2.200     72  102  132
            0  2  0  0     2.200     73  103  133
            0  1  1  0     2.200     74  104  134
            0  0  2  0     2.200     75  105  135
            3  0  0  0     3.300     76  106  136
            2  1  0  0     3.300     77  107  137
            2  0  1  0     3.300     78  108  138
            1  2  0  0     3.300     79  109  139
            1  1  1  0     3.300     80  110  140
            1  0  2  0     3.300     81  111  141
            0  3  0  0     3.300     82  112  142
            0  2  1  0     3.300     83  113  143
            0  1  2  0     3.300     84  114  144
            0  0  3  0     3.300     85  115  145

 O                                    5    6    7
                                  ---------------------------------------------------------------------------
            0  0  0  0     9.800    146  176  206
            0  0  0  0     6.800    147  177  207
            0  0  0  1     7.580    148  178  208
            0  0  0  1     2.880    149  179  209
            0  0  0  1     1.720    150  180  210
            1  0  0  0     4.080    151  181  211
            0  1  0  0     4.080    152  182  212
            0  0  1  0     4.080    153  183  213
            1  0  0  0     2.080    154  184  214
            0  1  0  0     2.080    155  185  215
            0  0  1  0     2.080    156  186  216
            1  0  0  0     1.120    157  187  217
            0  1  0  0     1.120    158  188  218
            0  0  1  0     1.120    159  189  219
            2  0  0  0     2.000    160  190  220
            1  1  0  0     2.000    161  191  221
            1  0  1  0     2.000    162  192  222
            0  2  0  0     2.000    163  193  223
            0  1  1  0     2.000    164  194  224
            0  0  2  0     2.000    165  195  225
            3  0  0  0     3.000    166  196  226
            2  1  0  0     3.000    167  197  227
            2  0  1  0     3.000    168  198  228
            1  2  0  0     3.000    169  199  229
            1  1  1  0     3.000    170  200  230
            1  0  2  0     3.000    171  201  231
            0  3  0  0     3.000    172  202  232
            0  2  1  0     3.000    173  203  233
            0  1  2  0     3.000    174  204  234
            0  0  3  0     3.000    175  205  235

 C                                    8
                                  ---------------------------------------------------------------------------
            0  0  0  0     7.680    236
            0  0  0  0     5.000    237
            0  0  0  1     1.280    238
            0  0  0  1     2.100    239
            0  0  0  1     4.600    240
            1  0  0  0     0.820    241
            0  1  0  0     0.820    242
            0  0  1  0     0.820    243
            1  0  0  0     1.480    244
            0  1  0  0     1.480    245
            0  0  1  0     1.480    246
            1  0  0  0     2.940    247
            0  1  0  0     2.940    248
            0  0  1  0     2.940    249
            2  0  0  0     2.200    250
            1  1  0  0     2.200    251
            1  0  1  0     2.200    252
            0  2  0  0     2.200    253
            0  1  1  0     2.200    254
            0  0  2  0     2.200    255
            3  0  0  0     3.300    256
            2  1  0  0     3.300    257
            2  0  1  0     3.300    258
            1  2  0  0     3.300    259
            1  1  1  0     3.300    260
            1  0  2  0     3.300    261
            0  3  0  0     3.300    262
            0  2  1  0     3.300    263
            0  1  2  0     3.300    264
            0  0  3  0     3.300    265

 O                                    9
                                  ---------------------------------------------------------------------------
            0  0  0  0     9.800    266
            0  0  0  0     6.800    267
            0  0  0  1     7.580    268
            0  0  0  1     2.880    269
            0  0  0  1     1.720    270
            1  0  0  0     4.080    271
            0  1  0  0     4.080    272
            0  0  1  0     4.080    273
            1  0  0  0     2.080    274
            0  1  0  0     2.080    275
            0  0  1  0     2.080    276
            1  0  0  0     1.120    277
            0  1  0  0     1.120    278
            0  0  1  0     1.120    279
            2  0  0  0     2.000    280
            1  1  0  0     2.000    281
            1  0  1  0     2.000    282
            0  2  0  0     2.000    283
            0  1  1  0     2.000    284
            0  0  2  0     2.000    285
            3  0  0  0     3.000    286
            2  1  0  0     3.000    287
            2  0  1  0     3.000    288
            1  2  0  0     3.000    289
            1  1  1  0     3.000    290
            1  0  2  0     3.000    291
            0  3  0  0     3.000    292
            0  2  1  0     3.000    293
            0  1  2  0     3.000    294
            0  0  3  0     3.000    295

 Total number of charge fitting functions (nprimf)       842
 Total number of Cartesian basis functions (naos)        295
 Total number of Cartesian core functions  (ncos)          0

1
 ***************************************************************************************************



                                              ***********************
                                              *  T E C H N I C A L  *
                                              ***********************
  



 =============================================================
 P A R A L L E L I Z A T I O N  and  V E C T O R I Z A T I O N
 =============================================================
  
 Nr of parallel processes:                               12
 Maximum vector length in NumInt loops:                 128

 IO buffersize (Mb):                                     64.000000



 =====================
 S C F   U P D A T E S
 =====================
  
 Max. nr. of cycles:                               250
 Convergence criterion:                              0.0000010000
   secondary criterion:                              0.0010000000

 Mix parameter (when DIIS does not apply):           0.2000000000
 Mixed ADIIS+DIIS will be used
    Max number of expansion vectors:                10
    Pure ADIIS when Max([F,P]) is above              0.1000000000
    Pure DIIS when Max([F,P]) is below               0.0010000000
 Automatic ElectronSmearing (in case of problematic SCF convergence) disabled



 =================
 P R E C I S I O N  ***  (General: NumInt, NeglectFunctionTails, ...)  ***
 =================
  

 NumInt:           Target precision:                 6.0000000000
 -------           Initial precision:                6.0000000000
                   Min. precision (optimization):    6.0000000000

 Neglect Functions:          Basis functions:        0.1000000000E-07
 ------------------          Fit functions:          0.1000000000E-07



 ===========================
 L I N E A R   S C A L I N G
 ===========================
  

 Cut-off radii density fit:                        0.1000000000E-09
 Overlap cut-off criterion AO matrix elements:     0.1000000000E-07
 Cut-offs for Coulomb potential and fitted density:0.1000000000E-09
 Cut-off criterion for Coulomb multipole terms:    0.1000000000E-09
 Progressive Convergence parameter:                 0.000000000    
1
 ***************************************************************************************************



                                            ***************************
                                            *  C O M P U T A T I O N  *
                                            ***************************
  

 Number of elements of the density matrix on this node (used, total):      2440     43660



 ===========================================
 Numerical Integration : Fuzzy Cells (Becke)
 ===========================================
  
 Becke grid quality: GOOD           
  
 Lebedev angular grid order:             min:  11 max:  35
 Nr. of radial points:                   min:  58 max:  87

 Total nr. of points:      51666
 Nr. of blocks:              404
 Block length:               128
 Nr. of dummy points:         46


 Test of Precision of the Numerical Integration Grid
 ===================================================

 Integral of the Total Core Density:                   0.00000000000000



 ========================
 Density Fitting (zlmFit)
 ========================
  
 ZlmFit Fit Quality: NORMAL         
  
 Max L-expansion:                        min:   7 max:   8
 Nr. of radial interpolation points:     min:  48 max:  72



 =====
 S C F  ***  ScaSCF  ***
 =====
  
 Initial density matrix is calculated as sum of fragments

 CYCLE    1
 SCF Error: norm([F,P])=      2.458250228429, max([F,P])=      1.644085172781
 orbitals (Q,E):
 ---------------
 A1 :8...27          ( 2.00    -3.8169)  ( 2.00    -2.4465)  ( 2.00    -1.0879)  ( 2.00    -1.0490)
                     ( 2.00    -0.5540)  ( 2.00    -0.5212)  ( 2.00    -0.4542)  ( 2.00    -0.4207)
                     ( 2.00    -0.4109)  ( 2.00    -0.2038)  ( 0.00    -0.0694)  ( 0.00    -0.0006)
                     ( 0.00     0.0714)  ( 0.00     0.1433)  ( 0.00     0.1661)  ( 0.00     0.2432)
                     ( 0.00     0.3218)  ( 0.00     0.3703)  ( 0.00     0.4214)  ( 0.00     0.4773)
 A2 :1...1           ( 2.00    -0.4118)
 E1 :3...12          ( 4.00   -10.0304)  ( 4.00    -2.4575)  ( 4.00    -1.0488)  ( 4.00    -0.5087)
                     ( 4.00    -0.4535)  ( 4.00    -0.4190)  ( 4.00    -0.4152)  ( 4.00    -0.3909)
                     ( 4.00    -0.2312)  ( 4.00    -0.1968)

 CYCLE    2
   MIX coefficients:  0.8000  0.2000
 SCF Error: norm([F,P])=      0.261480867282, max([F,P])=      0.132165189612
 orbitals (Q,E):
 ---------------
 A1 :8...18          ( 2.00    -3.8580)  ( 2.00    -2.4885)  ( 2.00    -1.1004)  ( 2.00    -1.0431)
                     ( 2.00    -0.5654)  ( 2.00    -0.5201)  ( 2.00    -0.4646)  ( 2.00    -0.4188)
                     ( 2.00    -0.4135)  ( 2.00    -0.2265)  ( 0.00    -0.0771)
 A2 :1...1           ( 2.00    -0.4069)
 E1 :3...12          ( 4.00   -10.0262)  ( 4.00    -2.4965)  ( 4.00    -1.0429)  ( 4.00    -0.5048)
                     ( 4.00    -0.4647)  ( 4.00    -0.4148)  ( 4.00    -0.4105)  ( 4.00    -0.3957)
                     ( 4.00    -0.2590)  ( 4.00    -0.2211)

 CYCLE    3
  SDIIS (wt  0.000): -0.0559  1.0559
 A-DIIS (wt  1.000):  0.0000  1.0000
  DIIS coefficients:  0.0000  1.0000
 SCF Error: norm([F,P])=      0.036879508987, max([F,P])=      0.010615752264
 orbitals (Q,E):
 ---------------
 A1 :8...18          ( 2.00    -3.8697)  ( 2.00    -2.5000)  ( 2.00    -1.1334)  ( 2.00    -1.0311)
                     ( 2.00    -0.5905)  ( 2.00    -0.5162)  ( 2.00    -0.4823)  ( 2.00    -0.4134)
                     ( 2.00    -0.4038)  ( 2.00    -0.2313)  ( 0.00    -0.0740)
 A2 :1...1           ( 2.00    -0.3962)
 E1 :3...12          ( 4.00   -10.0130)  ( 4.00    -2.5079)  ( 4.00    -1.0308)  ( 4.00    -0.4959)
                     ( 4.00    -0.4920)  ( 4.00    -0.4045)  ( 4.00    -0.4003)  ( 4.00    -0.3896)
                     ( 4.00    -0.2658)  ( 4.00    -0.2270)

 CYCLE    4
  SDIIS (wt  0.000):  0.1880  0.1036  0.7084
 A-DIIS (wt  1.000):  0.0000  0.7104  0.2896
  DIIS coefficients:  0.0000  0.7104  0.2896
 SCF Error: norm([F,P])=      0.072813035147, max([F,P])=      0.031035243803
 orbitals (Q,E):
 ---------------
 A1 :8...18          ( 2.00    -3.8531)  ( 2.00    -2.4830)  ( 2.00    -1.1280)  ( 2.00    -1.0333)
                     ( 2.00    -0.5855)  ( 2.00    -0.5154)  ( 2.00    -0.4776)  ( 2.00    -0.4123)
                     ( 2.00    -0.4054)  ( 2.00    -0.2211)  ( 0.00    -0.0716)
 A2 :1...1           ( 2.00    -0.3980)
 E1 :3...12          ( 4.00   -10.0143)  ( 4.00    -2.4921)  ( 4.00    -1.0331)  ( 4.00    -0.4965)
                     ( 4.00    -0.4881)  ( 4.00    -0.4059)  ( 4.00    -0.4019)  ( 4.00    -0.3874)
                     ( 4.00    -0.2545)  ( 4.00    -0.2179)

 CYCLE    5
  SDIIS (wt  0.975): -0.0412  0.2586  0.0058  0.7768
 A-DIIS (wt  0.025):  0.0000  0.0000  0.0000  1.0000
  DIIS coefficients: -0.0402  0.2521  0.0057  0.7824
 SCF Error: norm([F,P])=      0.014007830756, max([F,P])=      0.003484169252
 orbitals (Q,E):
 ---------------
 A1 :8...18          ( 2.00    -3.8567)  ( 2.00    -2.4867)  ( 2.00    -1.1228)  ( 2.00    -1.0348)
                     ( 2.00    -0.5818)  ( 2.00    -0.5159)  ( 2.00    -0.4753)  ( 2.00    -0.4135)
                     ( 2.00    -0.4067)  ( 2.00    -0.2236)  ( 0.00    -0.0729)
 A2 :1...1           ( 2.00    -0.3993)
 E1 :3...12          ( 4.00   -10.0163)  ( 4.00    -2.4955)  ( 4.00    -1.0346)  ( 4.00    -0.4977)
                     ( 4.00    -0.4841)  ( 4.00    -0.4073)  ( 4.00    -0.4032)  ( 4.00    -0.3892)
                     ( 4.00    -0.2571)  ( 4.00    -0.2200)

 CYCLE    6
  SDIIS (wt  0.999): -0.0027  0.0410 -0.0029  0.1879  0.7768
 A-DIIS (wt  0.001):  0.0000  0.0000  0.0000  0.0000  1.0000
  DIIS coefficients: -0.0027  0.0409 -0.0029  0.1878  0.7769
 SCF Error: norm([F,P])=      0.002710664360, max([F,P])=      0.001052194197
 orbitals (Q,E):
 ---------------
 A1 :8...18          ( 2.00    -3.8563)  ( 2.00    -2.4863)  ( 2.00    -1.1230)  ( 2.00    -1.0348)
                     ( 2.00    -0.5820)  ( 2.00    -0.5160)  ( 2.00    -0.4755)  ( 2.00    -0.4135)
                     ( 2.00    -0.4067)  ( 2.00    -0.2234)  ( 0.00    -0.0729)
 A2 :1...1           ( 2.00    -0.3993)
 E1 :3...12          ( 4.00   -10.0164)  ( 4.00    -2.4951)  ( 4.00    -1.0346)  ( 4.00    -0.4977)
                     ( 4.00    -0.4842)  ( 4.00    -0.4073)  ( 4.00    -0.4032)  ( 4.00    -0.3892)
                     ( 4.00    -0.2569)  ( 4.00    -0.2198)

 CYCLE    7
  SDIIS (wt  1.000):  0.0001  0.0055 -0.0021  0.0312  0.1433  0.8220
  DIIS coefficients:  0.0001  0.0055 -0.0021  0.0312  0.1433  0.8220
 SCF Error: norm([F,P])=      0.000278477651, max([F,P])=      0.000124599641
 orbitals (Q,E):
 ---------------
 A1 :8...18          ( 2.00    -3.8562)  ( 2.00    -2.4862)  ( 2.00    -1.1230)  ( 2.00    -1.0348)
                     ( 2.00    -0.5820)  ( 2.00    -0.5160)  ( 2.00    -0.4755)  ( 2.00    -0.4135)
                     ( 2.00    -0.4067)  ( 2.00    -0.2234)  ( 0.00    -0.0729)
 A2 :1...1           ( 2.00    -0.3993)
 E1 :3...12          ( 4.00   -10.0164)  ( 4.00    -2.4951)  ( 4.00    -1.0346)  ( 4.00    -0.4977)
                     ( 4.00    -0.4842)  ( 4.00    -0.4073)  ( 4.00    -0.4032)  ( 4.00    -0.3892)
                     ( 4.00    -0.2568)  ( 4.00    -0.2198)

 CYCLE    8
  SDIIS (wt  1.000):  0.0001  0.0007 -0.0005  0.0053  0.0282  0.2681  0.6981
  DIIS coefficients:  0.0001  0.0007 -0.0005  0.0053  0.0282  0.2681  0.6981
 SCF Error: norm([F,P])=      0.000031683624, max([F,P])=      0.000010017668
 orbitals (Q,E):
 ---------------
 A1 :8...18          ( 2.00    -3.8562)  ( 2.00    -2.4862)  ( 2.00    -1.1230)  ( 2.00    -1.0348)
                     ( 2.00    -0.5820)  ( 2.00    -0.5160)  ( 2.00    -0.4755)  ( 2.00    -0.4135)
                     ( 2.00    -0.4067)  ( 2.00    -0.2234)  ( 0.00    -0.0729)
 A2 :1...1           ( 2.00    -0.3993)
 E1 :3...12          ( 4.00   -10.0164)  ( 4.00    -2.4951)  ( 4.00    -1.0346)  ( 4.00    -0.4977)
                     ( 4.00    -0.4842)  ( 4.00    -0.4073)  ( 4.00    -0.4032)  ( 4.00    -0.3892)
                     ( 4.00    -0.2568)  ( 4.00    -0.2198)

 CYCLE    9
  SDIIS (wt  1.000):  0.0000  0.0000 -0.0001  0.0004  0.0027  0.0395  0.1701  0.7874
  DIIS coefficients:  0.0000  0.0000 -0.0001  0.0004  0.0027  0.0395  0.1701  0.7874
 SCF Error: norm([F,P])=      0.000007011523, max([F,P])=      0.000002707856
 orbitals (Q,E):
 ---------------
 A1 :8...18          ( 2.00    -3.8562)  ( 2.00    -2.4862)  ( 2.00    -1.1230)  ( 2.00    -1.0348)
                     ( 2.00    -0.5820)  ( 2.00    -0.5160)  ( 2.00    -0.4755)  ( 2.00    -0.4135)
                     ( 2.00    -0.4067)  ( 2.00    -0.2234)  ( 0.00    -0.0729)
 A2 :1...1           ( 2.00    -0.3993)
 E1 :3...12          ( 4.00   -10.0164)  ( 4.00    -2.4951)  ( 4.00    -1.0346)  ( 4.00    -0.4977)
                     ( 4.00    -0.4842)  ( 4.00    -0.4073)  ( 4.00    -0.4032)  ( 4.00    -0.3892)
                     ( 4.00    -0.2568)  ( 4.00    -0.2198)

 CYCLE   10
  SDIIS (wt  1.000): -0.0000 -0.0000  0.0000 -0.0000  0.0001  0.0024  0.0122  0.0745  0.9108
  DIIS coefficients: -0.0000 -0.0000  0.0000 -0.0000  0.0001  0.0024  0.0122  0.0745  0.9108
 SCF Error: norm([F,P])=      0.000000664390, max([F,P])=      0.000000291232
 orbitals (Q,E):
 ---------------
 A1 :8...18          ( 2.00    -3.8562)  ( 2.00    -2.4862)  ( 2.00    -1.1230)  ( 2.00    -1.0348)
                     ( 2.00    -0.5820)  ( 2.00    -0.5160)  ( 2.00    -0.4755)  ( 2.00    -0.4135)
                     ( 2.00    -0.4067)  ( 2.00    -0.2234)  ( 0.00    -0.0729)
 A2 :1...1           ( 2.00    -0.3993)
 E1 :3...12          ( 4.00   -10.0164)  ( 4.00    -2.4951)  ( 4.00    -1.0346)  ( 4.00    -0.4977)
                     ( 4.00    -0.4842)  ( 4.00    -0.4073)  ( 4.00    -0.4032)  ( 4.00    -0.3892)
                     ( 4.00    -0.2568)  ( 4.00    -0.2198)

 SCF CONVERGED

 CYCLE   11
1
 ***************************************************************************************************



                                                *******************
                                                *  R E S U L T S  *
                                                *******************
  
 *** Setting up for NEW gradients in Focky
 *** Using FIT density in Focky

 Orbital Energies, per Irrep and Spin:
 ======================================
                        Occup              E (au)              E (eV)       Diff (eV) with prev. cycle
                        -----      --------------------        ------       --------------------------
 A1
               8        2.000     -0.38562173096132E+01      -104.933              -1.60E-07
               9        2.000     -0.24862426956290E+01       -67.654              -1.54E-07
              10        2.000     -0.11230135488922E+01       -30.559              -1.61E-07
              11        2.000     -0.10348266136724E+01       -28.159               2.94E-07
              12        2.000     -0.58199783794218E+00       -15.837              -9.73E-08
              13        2.000     -0.51596266608083E+00       -14.040               5.62E-08
              14        2.000     -0.47545460309136E+00       -12.938               5.76E-08
              15        2.000     -0.41351940935818E+00       -11.252               3.26E-08
              16        2.000     -0.40672913677656E+00       -11.068               2.22E-07
              17        2.000     -0.22337169967364E+00        -6.078              -1.13E-07
              18        0.000     -0.72871974943065E-01        -1.983
              19        0.000     -0.46140846688567E-02        -0.126
              20        0.000      0.65653402973503E-01         1.787
              21        0.000      0.14261350102147E+00         3.881
              22        0.000      0.16666697939937E+00         4.535
              23        0.000      0.23435789816688E+00         6.377
              24        0.000      0.31940967966078E+00         8.692
              25        0.000      0.35841936930501E+00         9.753
              26        0.000      0.40986722928651E+00        11.153
              27        0.000      0.47214007091849E+00        12.848
 A2
               1        2.000     -0.39934840870302E+00       -10.867               2.51E-07
 E1
               3        4.000     -0.10016418818606E+02      -272.561              -3.28E-07
               4        4.000     -0.24950797186425E+01       -67.895              -1.68E-07
               5        4.000     -0.10346176749496E+01       -28.153               2.95E-07
               6        4.000     -0.49769617790676E+00       -13.543               2.28E-07
               7        4.000     -0.48421654789917E+00       -13.176              -1.36E-07
               8        4.000     -0.40729737338681E+00       -11.083               2.12E-07
               9        4.000     -0.40321620429272E+00       -10.972               2.36E-07
              10        4.000     -0.38918274765498E+00       -10.590              -5.64E-08
              11        4.000     -0.25682642855180E+00        -6.989              -1.18E-07
              12        4.000     -0.21975408180880E+00        -5.980              -1.08E-07
  
 HOMO :       12 E1               -0.21975408180880E+00
 LUMO :       18 A1               -0.72871974943065E-01
  


 Orbital Energies, all Irreps
 ========================================

 Irrep        no.  (spin)   Occup              E (au)                E (eV)
 ---------------------------------------------------------------------------
 A1            1             2.00       -0.29847534305361E+03     -8121.9273
 A1            2             2.00       -0.35285627110001E+02      -960.1708
 E1            1             4.00       -0.30808554665397E+02      -838.3434
 A1            3             2.00       -0.30801279490708E+02      -838.1455
 A1            4             2.00       -0.18944532243946E+02      -515.5070
 A1            5             2.00       -0.18850983375147E+02      -512.9614
 E1            2             4.00       -0.18850983174424E+02      -512.9614
 A1            6             2.00       -0.10136388644723E+02      -275.8252
 A1            7             2.00       -0.10016420058620E+02      -272.5607
 E1            3             4.00       -0.10016418818606E+02      -272.5606
 A1            8             2.00       -0.38562173096132E+01      -104.9330
 E1            4             4.00       -0.24950797186425E+01       -67.8946
 A1            9             2.00       -0.24862426956290E+01       -67.6541
 A1           10             2.00       -0.11230135488922E+01       -30.5588
 A1           11             2.00       -0.10348266136724E+01       -28.1591
 E1            5             4.00       -0.10346176749496E+01       -28.1534
 A1           12             2.00       -0.58199783794218E+00       -15.8370
 A1           13             2.00       -0.51596266608083E+00       -14.0401
 E1            6             4.00       -0.49769617790676E+00       -13.5430
 E1            7             4.00       -0.48421654789917E+00       -13.1762
 A1           14             2.00       -0.47545460309136E+00       -12.9378
 A1           15             2.00       -0.41351940935818E+00       -11.2524
 E1            8             4.00       -0.40729737338681E+00       -11.0831
 A1           16             2.00       -0.40672913677656E+00       -11.0677
 E1            9             4.00       -0.40321620429272E+00       -10.9721
 A2            1             2.00       -0.39934840870302E+00       -10.8668
 E1           10             4.00       -0.38918274765498E+00       -10.5902
 E1           11             4.00       -0.25682642855180E+00        -6.9886
 A1           17             2.00       -0.22337169967364E+00        -6.0783
 E1           12             4.00       -0.21975408180880E+00        -5.9798
 A1           18             0.00       -0.72871974943065E-01        -1.9829
 A1           19             0.00       -0.46140846688567E-02        -0.1256
 A1           20             0.00        0.65653402973503E-01         1.7865
 A1           21             0.00        0.14261350102147E+00         3.8807
 A1           22             0.00        0.16666697939937E+00         4.5352
 A1           23             0.00        0.23435789816688E+00         6.3772
 A1           24             0.00        0.31940967966078E+00         8.6916
 A1           25             0.00        0.35841936930501E+00         9.7531
 A1           26             0.00        0.40986722928651E+00        11.1531
 A1           27             0.00        0.47214007091849E+00        12.8476
 A1           28             0.00        0.54636700840529E+00        14.8674
 A1           29             0.00        0.56923503451386E+00        15.4897
 A1           30             0.00        0.76519359479889E+00        20.8220
 A1           31             0.00        0.81484151033402E+00        22.1730
 A1           32             0.00        0.94201864084077E+00        25.6336
 A1           33             0.00        0.11127665999231E+01        30.2799
 A1           34             0.00        0.12064178737659E+01        32.8283
 A1           35             0.00        0.12551709930876E+01        34.1549
 A1           36             0.00        0.14008214208857E+01        38.1183
 A1           37             0.00        0.15443111278045E+01        42.0228
 A1           38             0.00        0.16328046600372E+01        44.4309
 A1           39             0.00        0.17648078342618E+01        48.0229
 A1           40             0.00        0.18881710912046E+01        51.3797
 A1           41             0.00        0.20317130803772E+01        55.2857
 A1           42             0.00        0.21502204370532E+01        58.5105
 A1           43             0.00        0.22798053294269E+01        62.0367
 A1           44             0.00        0.23292454565944E+01        63.3820
 A1           45             0.00        0.25315550758089E+01        68.8871
 A1           46             0.00        0.28876768947290E+01        78.5777
 A1           47             0.00        0.29588023650017E+01        80.5131
 A1           48             0.00        0.31885893512620E+01        86.7659
 A1           49             0.00        0.32192166912646E+01        87.5993
 A1           50             0.00        0.32638412061340E+01        88.8136
 A1           51             0.00        0.33696708311906E+01        91.6934
 A1           52             0.00        0.33754502367750E+01        91.8507
 A1           53             0.00        0.39611741444302E+01       107.7890
 A1           54             0.00        0.41121150965002E+01       111.8963
 A1           55             0.00        0.42021647597386E+01       114.3467
 A1           56             0.00        0.42944000479085E+01       116.8566
 A1           57             0.00        0.43317466156409E+01       117.8728
 A1           58             0.00        0.44196681271452E+01       120.2653
 A1           59             0.00        0.52762265863875E+01       143.5734
 A1           60             0.00        0.52835122344550E+01       143.7717
 A1           61             0.00        0.55732162549194E+01       151.6549
 A1           62             0.00        0.61044480982816E+01       166.1105
 A1           63             0.00        0.62879280050846E+01       171.1032
 A1           64             0.00        0.68294841506463E+01       185.8397
 A1           65             0.00        0.69298503970848E+01       188.5708
 A1           66             0.00        0.72425452132426E+01       197.0797
 A1           67             0.00        0.10065909489658E+02       273.9073
 A1           68             0.00        0.10321010408285E+02       280.8490
 A1           69             0.00        0.10903920637601E+02       296.7108
 A1           70             0.00        0.15387693799881E+02       418.7205
 A1           71             0.00        0.15601153446526E+02       424.5290
 A1           72             0.00        0.36810514469823E+02      1001.6651
 A1           73             0.00        0.54788305429183E+02      1490.8656
 A1           74             0.00        0.55873023391903E+02      1520.3823
 A1           75             0.00        0.77790935169907E+02      2116.7990
 A1           76             0.00        0.12877367819499E+03      3504.1101
 A1           77             0.00        0.12933495529633E+03      3519.3832
 A1           78             0.00        0.61927937677996E+03     16851.4492


 All Electron Calculation, thus no Orbital Energies of the Core Orbitals are calculated


 Fit test: (difference of exact and fit density, squared integrated, result summed over spins)
         Sum-of-Fragments:                             0.00042727495293
         Orthogonalized Fragments:                     0.00042921862284
         SCF:                                          0.00043120979215



 ==========================
 Electron Density at Nuclei
 ==========================
  
 The electron density is calculated at points on a small sphere around the center of a nucleus.
 The printed electron density is the average electron density on these points.
 The radius of the sphere is the printed approximate finite nuclear radius.

         Atom        Nuclear Radius (Angstrom)             Electron Density (a.u.)
         ----        -------------------------             -----------------------
     1)   Ni                0.0000491359                            14835.00100
     2)   C                 0.0000320678                              127.38804
     3)   O                 0.0000345546                              311.76100
     4)   C                 0.0000320678                              127.66290
     5)   O                 0.0000345546                              311.91848
     6)   C                 0.0000320678                              127.38804
     7)   O                 0.0000345546                              311.76100
     8)   C                 0.0000320678                              127.38804
     9)   O                 0.0000345546                              311.76100



 =======================================
 M U L L I K E N   P O P U L A T I O N S
 =======================================
  
 The survey below gives for each atom:
 a) the total charge (Z minus electrons)
 b) the net spin polarization (nr of electrons spin-A minus spin-B)
 c) for each spin the atomic electron valence density (integrated) per L-value.

 Atom              Charge    Spin density          S         P         D         F
 ----              ------    ------------       ------    ------    ------    ------
 1 Ni             -0.1769                       6.3735   13.0375    8.7511    0.0149
 2 C               0.2834                       3.4283    2.1906    0.0887    0.0090
 3 O              -0.3144                       3.8006    4.4489    0.0587    0.0062
 4 C               0.5322                       3.4802    1.9040    0.0756    0.0080
 5 O              -0.2624                       3.8137    4.3842    0.0584    0.0061
 6 C               0.2834                       3.4283    2.1906    0.0887    0.0090
 7 O              -0.3144                       3.8006    4.4489    0.0587    0.0062
 8 C               0.2834                       3.4283    2.1906    0.0887    0.0090
 9 O              -0.3144                       3.8006    4.4489    0.0587    0.0062

 Populations of individual BAS functions
 ----------------------------------------
 1 Ni           0.4275  1.5124  1.8974 -0.1636  0.6992  0.6992  0.6992  1.2789  1.2789  1.2790
                1.3587  0.9505  0.5237  0.5237  0.5241  1.1499  1.1499  1.1480  0.3733  0.3733
                0.3723  0.2874  0.4272  0.4773  0.2874  0.4773  0.2935  0.5893  0.8772  0.9635
                0.5893  0.9635  0.6009  0.2536  0.3828  0.3940  0.2536  0.3940  0.2394  0.2061
                0.1991 -0.0146  0.3394  0.3394  0.2863  0.0042  0.0021  0.0012  0.0037  0.0017
               -0.0032  0.0036  0.0012 -0.0032  0.0036
 2 C            0.4939  1.4965  0.5475  0.9290 -0.0386 -0.0067  0.0232  0.0180  0.6302  0.5046
                0.5147  0.2449  0.1229  0.1388  0.0366  0.0281  0.0256 -0.0073  0.0039  0.0017
                0.0128  0.0077  0.0083 -0.0061  0.0007 -0.0031 -0.0049 -0.0022 -0.0006 -0.0037
 6 C            0.4939  1.4965  0.5475  0.9290 -0.0386  0.0157  0.0008  0.0180  0.5360  0.5988
                0.5147  0.1534  0.2144  0.1388  0.0073  0.0209  0.0094  0.0292  0.0202  0.0017
               -0.0026 -0.0003  0.0000  0.0059  0.0015 -0.0012  0.0065  0.0053 -0.0025 -0.0037
 8 C            0.4939  1.4965  0.5475  0.9290 -0.0386  0.0157  0.0008  0.0180  0.5360  0.5988
                0.5147  0.1534  0.2144  0.1388  0.0073  0.0209  0.0094  0.0292  0.0202  0.0017
               -0.0026 -0.0003  0.0000  0.0059  0.0015 -0.0012  0.0065  0.0053 -0.0025 -0.0037
 3 O            0.6522  1.3066  0.0107  1.0524  0.7787  0.2950  0.2701  0.2714  0.9072  0.8633
                0.8636  0.2623  0.3642  0.3518  0.0261  0.0185  0.0175 -0.0057  0.0023 -0.0000
                0.0178  0.0121  0.0115 -0.0094  0.0006 -0.0061 -0.0090 -0.0038 -0.0013 -0.0063
 7 O            0.6522  1.3066  0.0107  1.0524  0.7787  0.2763  0.2888  0.2714  0.8743  0.8962
                0.8636  0.3387  0.2878  0.3518  0.0045  0.0139  0.0061  0.0205  0.0137 -0.0000
               -0.0036 -0.0023 -0.0002  0.0073  0.0009 -0.0025  0.0102  0.0075 -0.0049 -0.0063
 9 O            0.6522  1.3066  0.0107  1.0524  0.7787  0.2763  0.2888  0.2714  0.8743  0.8962
                0.8636  0.3387  0.2878  0.3518  0.0045  0.0139  0.0061  0.0205  0.0137 -0.0000
               -0.0036 -0.0023 -0.0002  0.0073  0.0009 -0.0025  0.0102  0.0075 -0.0049 -0.0063
 4 C            0.4944  1.4972  0.5304  1.0036 -0.0454 -0.0128 -0.0128 -0.0145  0.3911  0.3911
                0.6820  0.1034  0.1034  0.2732 -0.0067 -0.0000  0.0244 -0.0067  0.0244  0.0401
               -0.0036 -0.0012 -0.0069 -0.0012 -0.0000  0.0073 -0.0036 -0.0069  0.0073  0.0170
 5 O            0.6518  1.3083  0.0089  1.0651  0.7796  0.2610  0.2610  0.3001  0.8607  0.8607
                0.9256  0.3474  0.3474  0.2204 -0.0052  0.0000  0.0200 -0.0052  0.0200  0.0289
               -0.0088 -0.0029 -0.0102 -0.0029 -0.0000  0.0141 -0.0088 -0.0102  0.0141  0.0218

 Gross Charges per Atom (Z minus electrons)
 ==========================================
            -0.1769    0.2834   -0.3144    0.5322   -0.2624    0.2834   -0.3144    0.2834   -0.3144
 Net Total:  0.00000000


 Atom-Atom Population Matrix (off-diagonal elements not doubled)
 ===============================================================

     1 :    26.9311
     2 :     0.3949    4.7190
     3 :    -0.0353    0.5762    7.7809
     4 :     0.1770    0.0004   -0.0011    4.6594
     5 :    -0.0101   -0.0019    0.0002    0.6336    7.6439
     6 :     0.3949    0.0178   -0.0038    0.0004   -0.0019    4.7190
     7 :    -0.0353   -0.0038    0.0005   -0.0011    0.0002    0.5762    7.7809
     8 :     0.3949    0.0178   -0.0038    0.0004   -0.0019    0.0178   -0.0038    4.7190
     9 :    -0.0353   -0.0038    0.0005   -0.0011    0.0002   -0.0038    0.0005    0.5762    7.7809


 Frag-Frag Population Matrix (off-diagonal elements not doubled)
 ===============================================================

     1 :    70.1101
     2 :     0.1597   13.5705



 =================================================
 H I R S H F E L D   C H A R G E   A N A L Y S I S
 =================================================
  
 For each fragment: the (numerical) integral of rho(scf) * rho(fragment)/rho(sum-of-fragments)
 (nuclear charges are included, electrons are counted negative)

 The fragments and their ordering are defined in the early G E O M E T R Y output section.
 If you use single-atom fragments, this usually implies that all atoms of the same
 chemical type are grouped together. This may not be the order in which you listed them
 in the input file!

    1  1                        -0.0910
    2  2                         0.0910

 Sum of these charges (accuracy NumInt/Tails) =          -0.00003727



 =============================
 V O R O N O I   C H A R G E S
 =============================
  
 For each atom: the (numerical) integral of the total electronic charge density in its Voronoi cell,
 i.e. the region of space that is closer to that atom than to any other atom.
 (cf. Wigner-Seitz cells in crystals)

 Within the Voronoi cell the subintegrals over the atomic sphere and the remaining part are evaluated
 separately to give the numbers of electrons (negative charge) in these regions.
 The net total charge in the cell (including the nuclear charge) is also given.

 Values are provided for
    a) the Initial (sum-of-fragments) density
    b) the Orthogonalized-Fragments density
    c) the SCF density
    d) the Voronoi Deformation Density (VDD): the difference SCF-Initial for the complete atomic cell
 ---------------------------------------------------------------------------------------------------
 Total NetCharge:              -0.000                     -0.000                     -0.000   -0.000
 (accuracy NumInt/Tails)

 Remark: the 'NetTotal' Voronoi charges often do not match the Mulliken and/or Hirshfeld charges very
 well. This is caused by the fact that chemically different atoms are not treated in accordance with
 their relative sizes. (Voronoi cells are defined by boundary planes halfway between the atoms.)
 However, the CHANGES in charge, comparing 'Initial' to 'SCF' for instance, do give a fair indication
 of the flow of charge caused by the relaxation from sum-of-fragments to self-consistency.

 Warning: the absolute accuracy of the VDD charges obtained using the Fuzzy Cells (Becke) integration
 scheme is much poorer than the one obtained with an 'equivalent' Voronoi integration grid. 



 =================================================================
 M U L T I P O L E   D E R I V E D   C H A R G E   A N A L Y S I S
 =================================================================

 This charge analysis uses the atomic multipoles (obtained from the fitted density) up to some level X,
 and reconstructs these multipoles exactly (up to level X) by distributing charges over all atoms.
 This is achieved by using Lagrange multipliers and a weight function to keep the multipoles local.

 Dummy atoms can be included (by setting INCDUM in MDC-block to 1) to obtain a fractional charge.
 This is generally useful and necessary only for small symmetrical molecules, when there are not
 enough degrees of freedom to reconstruct the multipoles.

 Since the atomic multipoles are reconstructed up to level X,
 the molecular multipoles are represented also up to level X.
 The recommended level is to reconstruct up to quadrupole : -> MDC-q charges.

 See: M. Swart, P.Th. van Duijnen, J.G. Snijders, J.Comput.Chem., (2001), p. 79-88.

 ------------------------------------------------------------- 
 Atomic electronic multipole moments from SCF equations (a.u.)
 ------------------------------------------------------------- 

   atom        charge        dip-x     dip-y     dip-z      quad-xx   quad-xy   quad-xz   quad-yy   quad-yz   quad-zz
 --------------------------------------------------------------------------------------------------------------------
    1 Ni     0.704520    -0.001207  0.000000  0.066236    -0.042448  0.000000 -0.000091 -0.047254 -0.000000  0.089702
    2 C     -0.063812    -0.564042  0.000000 -0.222100     0.376746 -0.000000  0.125000 -0.274233  0.000000 -0.102513
    3 O     -0.190550     0.239545  0.000000  0.083745     0.446325  0.000000  0.160249 -0.270571  0.000000 -0.175754
    4 C      0.171961    -0.000095  0.000000  0.469475    -0.107631 -0.000000  0.000326 -0.107260 -0.000000  0.214891
    5 O     -0.113693     0.000013  0.000000 -0.226023    -0.273922  0.000000 -0.000059 -0.273994  0.000000  0.547916
    6 C     -0.063736     0.281891  0.487928 -0.221950    -0.112320  0.188544 -0.062616  0.215134 -0.108498 -0.102814
    7 O     -0.190477    -0.119842 -0.207618  0.083814    -0.091507  0.207128 -0.080193  0.267390 -0.138965 -0.175882
    8 C     -0.063736     0.281891 -0.487928 -0.221950    -0.112320 -0.188544 -0.062616  0.215134  0.108498 -0.102814
    9 O     -0.190477    -0.119842  0.207618  0.083814    -0.091507 -0.207128 -0.080193  0.267390  0.138965 -0.175882

 --------------------------------------- 
 Multipole derived atomic charges (a.u.)
 --------------------------------------- 

 The MDC-m charges are just the Monopole terms in the multipole expansion, while for the MDC-d charges
 also the Dipoles are reconstructed. The usually preferred charges are the MDC-q charges.
 These reconstruct the Monopoles, Dipoles and Quadrupoles (both atomic AND molecular).

        Atom    Level:     MDC-m        MDC-d        MDC-q
 ---------------------------------------------------------
     1     Ni           0.704520     0.399389     0.394159
     2     C           -0.063812    -0.052900    -0.077663
     3     O           -0.190550    -0.120664    -0.111707
[...]

 column           9                    10                    11                    12
 row
    9    1.00000000000001E+00
   10    1.66221610043912E-14  9.99999999999983E-01
   11   -6.08318733927304E-16 -1.69830620920519E-13  1.00000000000001E+00
   12   -1.17202755369295E-02 -2.38029124373592E-02 -6.42153971592516E-02  9.99999999999999E-01


 SFO contributions (%) per orbital
 (multiplication by the orbital occupation yields the SFO Gross Populations)

 Orb.:        3      4      5      6      7      8      9     10     11     12
 occup:     2.00   2.00   2.00   2.00   2.00   2.00   2.00   2.00   2.00   2.00
 CF+SFO     ----   ----   ----   ----   ----   ----   ----   ----   ----   ----
 ------
      3:  100.00   0.00   0.00   0.00   0.00   0.00   0.00   0.00  -0.00  -0.00
      4:    0.00 100.00   0.00  -0.00   0.00   0.00   0.00   0.00  -0.00   0.00
      5:    0.00   0.00 100.00   0.00  -0.00   0.00   0.00   0.00   0.00   0.00
      6:    0.00   0.00   0.00  98.15   1.77   0.01   0.02   0.04   0.00   0.00
      7:    0.00   0.00   0.00   0.01   0.01  99.69   0.00   0.25   0.04   0.00
      8:    0.00   0.00   0.00   0.04   0.16   0.01  98.73   1.02   0.01   0.02
      9:    0.00   0.00   0.00   0.06   0.01   0.23   1.02  98.45   0.02   0.20
     10:    0.00   0.00   0.00   0.01   0.18   0.05   0.01   0.04  97.29   2.42
     11:    0.00   0.00   0.00   0.00   0.50   0.00   0.01   0.19   2.34  96.96
     12:    0.00   0.00  -0.00   1.73  97.36   0.01   0.20   0.01   0.29   0.40


 Summation over all MOs, multiplied by occupation: Total SFO Gross Populations in this Irrep
 ===========================================================================================

     2.00    2.00    2.00    2.00    2.00    2.00    2.00    2.00    2.00    2.00    2.00    2.00


                                       === E1:2 ===


 ======  SFO Overlap Matrix (valence part only)

 column           1                     2                     3                     4
 row
    1    9.99999999999989E-01
    2   -1.27788755019928E-15  9.99999999999997E-01
    3   -1.31489444117152E-16 -1.25292216273687E-15  1.00000000000001E+00
    4    4.52229090594058E-16  4.61106841590741E-15 -3.46323872984583E-15  1.00000000000000E+00
    5   -1.31475051174494E-16  2.48163408484099E-16  7.74461334855479E-16 -1.27501497857938E-15
    6   -3.63711712386260E-17  2.22218365793227E-15 -1.57226890944054E-15 -5.82203691723918E-15
    7    1.15501690620282E-16 -3.59840937253431E-16  2.29693082151655E-15 -7.41282111987374E-15
    8    2.25772396925897E-17 -1.08130820501187E-15  9.93965846790372E-16 -2.55006045034485E-15
    9   -2.30529333957678E-16  8.55172338307373E-16 -2.00196872358264E-15  8.84881428656233E-15
   10   -1.47258054308699E-15  4.82853513862478E-17 -8.79714781787866E-15  2.20174559465401E-14
   11   -4.94370779664972E-16 -1.05765023068792E-15  6.95140458053817E-16 -2.12224443747744E-15
   12   -3.04994781317987E-04 -3.11694234539643E-05 -3.81922555032026E-04  8.19134604300330E-03

 column           5                     6                     7                     8
 row
    5    9.99999999999996E-01
    6   -1.50918655421025E-15  9.99999999999993E-01
    7   -1.18665874838979E-15 -2.02267592628593E-14  1.00000000000000E+00
    8   -4.02862422241301E-16  1.29631243619196E-14  1.01024730234426E-15  9.99999999999999E-01
    9    5.95659826530589E-16  7.26793503310307E-14 -5.02671406086533E-15  2.82083655479132E-15
   10   -4.85915696785480E-16 -1.51172612839270E-14 -7.31025093567541E-15  8.04139198805343E-15
   11   -1.15098225004703E-15 -1.36175521813636E-14  5.05087440513634E-15 -1.57317735227647E-15
   12    2.50960009424800E-03 -9.05207036481791E-03 -8.40914846546469E-04  1.29436938417445E-02

 column           9                    10                    11                    12
 row
    9    1.00000000000001E+00
   10    1.66221610043912E-14  9.99999999999983E-01
   11   -6.08318733927304E-16 -1.69830620920519E-13  1.00000000000001E+00
   12   -1.17202755369295E-02 -2.38029124373592E-02 -6.42153971592516E-02  9.99999999999999E-01


 SFO contributions (%) per orbital
 (multiplication by the orbital occupation yields the SFO Gross Populations)

 Orb.:        3      4      5      6      7      8      9     10     11     12
 occup:     2.00   2.00   2.00   2.00   2.00   2.00   2.00   2.00   2.00   2.00
 CF+SFO     ----   ----   ----   ----   ----   ----   ----   ----   ----   ----
 ------
      3:  100.00   0.00   0.00   0.00   0.00   0.00   0.00   0.00  -0.00  -0.00
      4:    0.00 100.00   0.00  -0.00   0.00   0.00   0.00   0.00  -0.00   0.00
      5:    0.00   0.00 100.00   0.00  -0.00   0.00   0.00   0.00   0.00   0.00
      6:    0.00   0.00   0.00  98.15   1.77   0.01   0.02   0.04   0.00   0.00
      7:    0.00   0.00   0.00   0.01   0.01  99.69   0.00   0.25   0.04   0.00
      8:    0.00   0.00   0.00   0.04   0.16   0.01  98.73   1.02   0.01   0.02
      9:    0.00   0.00   0.00   0.06   0.01   0.23   1.02  98.45   0.02   0.20
     10:    0.00   0.00   0.00   0.01   0.18   0.05   0.01   0.04  97.29   2.42
     11:    0.00   0.00   0.00   0.00   0.50   0.00   0.01   0.19   2.34  96.96
     12:    0.00   0.00  -0.00   1.73  97.36   0.01   0.20   0.01   0.29   0.40


 Summation over all MOs, multiplied by occupation: Total SFO Gross Populations in this Irrep
 ===========================================================================================

     2.00    2.00    2.00    2.00    2.00    2.00    2.00    2.00    2.00    2.00    2.00    2.00



 List of all MOs, ordered by energy, with the most significant SFO gross populations
 ===================================================================================

 Each percentage contribution in the table below corresponds to the indicated SFO.
 In general, a SFO may be a linear combination of several Fragment Orbitals on the same,
 or on symmetry-related Fragments. Only the first 'member' of such a combination is
 specified here. A full definition of all SFOs is given in an earlier part of the output.
 The numbering of the SFOs in this table does NOT include the Core Orbitals, and starts
 from one for each symmetry representation, as in the SFO definition list earlier.

       E(eV)  Occ       MO           %     SFO (first member)   E(eV)  Occ   Fragment
 -------------------------------------------------------------------------------------

     -15.837  2.00    12 A1        86.54%     4 A1            -13.979  2.00     2 2
                                    7.01%     5 A1             -9.009  2.00     2 2
                                    1.84%     9 A1            -14.279  2.00     1 1
                                    1.61%    12 A1             -6.268  2.00     1 1
                                    1.46%    13 A1             -3.505  0.00     1 1
     -14.040  2.00    13 A1        85.12%     9 A1            -14.279  2.00     1 1
                                    8.56%     5 A1             -9.009  2.00     2 2
                                    5.75%     4 A1            -13.979  2.00     2 2
     -13.543  2.00     6 E1:1      98.15%     6 E1:1          -13.895  2.00     1 1
                                    1.73%     1 E1:1          -11.516  2.00     2 2
     -13.543  2.00     6 E1:2      98.15%     6 E1:2          -13.895  2.00     1 1
                                    1.73%     1 E1:2          -11.516  2.00     2 2
     -13.176  2.00     7 E1:1      97.36%     1 E1:1          -11.516  2.00     2 2
                                    1.77%     6 E1:1          -13.895  2.00     1 1
     -13.176  2.00     7 E1:2      97.36%     1 E1:2          -11.516  2.00     2 2
                                    1.77%     6 E1:2          -13.895  2.00     1 1
     -12.938  2.00    14 A1        59.31%     5 A1             -9.009  2.00     2 2
                                   12.86%     9 A1            -14.279  2.00     1 1
                                    7.67%    10 A1            -11.745  2.00     1 1
                                    7.02%     4 A1            -13.979  2.00     2 2
                                    6.29%    12 A1             -6.268  2.00     1 1
                                    4.13%    13 A1             -3.505  0.00     1 1
     -11.252  2.00    15 A1        90.32%    10 A1            -11.745  2.00     1 1
                                    4.72%     5 A1             -9.009  2.00     2 2
                                    2.47%    12 A1             -6.268  2.00     1 1
     -11.083  2.00     8 E1:1      99.69%     7 E1:1          -11.451  2.00     1 1
                                    0.23%     9 E1:1          -10.811  2.00     1 1
     -11.083  2.00     8 E1:2      99.69%     7 E1:2          -11.451  2.00     1 1
                                    0.23%     9 E1:2          -10.811  2.00     1 1
     -11.068  2.00    16 A1        99.25%    11 A1            -11.446  2.00     1 1
                                    0.28%    12 A1             -6.268  2.00     1 1
     -10.972  2.00     9 E1:1      98.73%     8 E1:1          -11.344  2.00     1 1
                                    1.02%     9 E1:1          -10.811  2.00     1 1
     -10.972  2.00     9 E1:2      98.73%     8 E1:2          -11.344  2.00     1 1
                                    1.02%     9 E1:2          -10.811  2.00     1 1
     -10.867  2.00     1 A2       100.00%     1 A2            -11.247  2.00     1 1
     -10.590  2.00    10 E1:1      98.45%     9 E1:1          -10.811  2.00     1 1
                                    1.02%     8 E1:1          -11.344  2.00     1 1
     -10.590  2.00    10 E1:2      98.45%     9 E1:2          -10.811  2.00     1 1
                                    1.02%     8 E1:2          -11.344  2.00     1 1
      -6.989  2.00    11 E1:1      97.29%    10 E1:1           -6.652  2.00     1 1
                                    2.34%    11 E1:1           -5.615  2.00     1 1
      -6.989  2.00    11 E1:2      97.29%    10 E1:2           -6.652  2.00     1 1
                                    2.34%    11 E1:2           -5.615  2.00     1 1
      -6.078  2.00    17 A1        84.80%    12 A1             -6.268  2.00     1 1
                                    5.56%    13 A1             -3.505  0.00     1 1
                                    5.55%     5 A1             -9.009  2.00     2 2
                                    1.32%    15 A1              1.139  0.00     1 1
                                    1.11%    14 A1             -0.001  0.00     1 1
      -5.980  2.00    12 E1:1      96.96%    11 E1:1           -5.615  2.00     1 1
                                    2.42%    10 E1:1           -6.652  2.00     1 1
      -5.980  2.00    12 E1:2      96.96%    11 E1:2           -5.615  2.00     1 1
                                    2.42%    10 E1:2           -6.652  2.00     1 1
      -1.983  0.00    18 A1        76.48%    13 A1             -3.505  0.00     1 1
                                    9.62%    15 A1              1.139  0.00     1 1
                                    7.60%    14 A1             -0.001  0.00     1 1
                                    4.14%     5 A1             -9.009  2.00     2 2
      -0.126  0.00    19 A1        79.36%    14 A1             -0.001  0.00     1 1
                                   13.18%     6 A1              2.794  0.00     2 2
                                    7.76%    15 A1              1.139  0.00     1 1
                                   -4.74%     7 A1              7.809  0.00     2 2
                                    3.56%    13 A1             -3.505  0.00     1 1
                                    2.10%    16 A1              3.585  0.00     1 1
                                   -2.00%     5 A1             -9.009  2.00     2 2
                                   -1.41%     8 A1             10.454  0.00     2 2
                                    1.12%    12 A1             -6.268  2.00     1 1
                                    1.04%    17 A1              5.047  0.00     1 1
       1.787  0.00    20 A1        65.62%     6 A1              2.794  0.00     2 2
                                   28.24%    15 A1              1.139  0.00     1 1
                                    9.50%    16 A1              3.585  0.00     1 1
                                   -6.35%     7 A1              7.809  0.00     2 2
                                    2.57%    13 A1             -3.505  0.00     1 1
                                    2.49%    17 A1              5.047  0.00     1 1
                                   -2.16%    19 A1             11.756  0.00     1 1



 =======================================================================
 Electrostatic potential at the Nuclei due to electrons and other nuclei
 =======================================================================
  
         Atom                  Potential
         ----                  ---------
     1)   Ni                128.64036858
     2)   C                  14.70077238
     3)   O                  22.29952551
     4)   C                  14.58773197
     5)   O                  22.20783950
     6)   C                  14.70077451
     7)   O                  22.29981258
     8)   C                  14.70077451
     9)   O                  22.29981258
 
 
 ========================
 No memory problems found
 ========================
 
 Maximum number of active allocate calls:         727
 
 *******************************************************************************

                             A D F   E X I T
 NORMAL TERMINATION



 =================
 Timing Statistics
 =================
  
 Total Used :                     CPU=       14.93      System=        0.35     Elapsed=       15.61

 Calls  Section                     ( Mean, Percentage )
 ---------------------------------------------------------------------------------------------------
     3  ><      ................      0.00    0.01             0.00    0.28             0.00    0.01
     1  INIT    ................      0.42    2.83             0.02    6.53             0.45    2.89
     1  GEOMET  ................      0.05    0.35             0.01    1.99             0.31    1.99
     1  FRAGM   ................      0.01    0.10             0.02    4.55             0.04    0.28
     1  INPUTA  ................      0.00    0.00             0.00    0.00             0.00    0.00
     1  ATDEN   ................      0.01    0.05             0.00    0.00             0.01    0.05
     1  MAINSY  ................      0.01    0.07             0.00    0.57             0.02    0.10
     1  SYMFIT  ................      0.00    0.01             0.00    0.00             0.00    0.01
     1  CORORT  ................      0.00    0.01             0.00    0.00             0.00    0.00
     1  SYMORB  ................      0.00    0.03             0.00    0.00             0.00    0.03
     1  CLSMAT  ................      0.01    0.10             0.00    0.57             0.02    0.11
     1  ORTHON  ................      0.01    0.07             0.00    0.28             0.01    0.07
     1  GENPT   ................      0.19    1.29             0.01    3.12             0.21    1.32
     1  PTBAS   ................      0.16    1.10             0.00    1.42             0.17    1.09
    11  FOCKY   ................      0.34   25.13             0.00    6.53             0.34   24.22
    11  FOCKTR  ................      0.00    0.27             0.00    0.00             0.00    0.30
    11  SDIIS   ................      0.00    0.31             0.00    0.85             0.00    0.29
     1  COREPS  ................      0.26    1.75             0.00    0.57             0.27    1.71
     1  TOTEN   ................      0.99    6.64             0.01    4.26             1.01    6.46
     1  POPAN   ................      0.01    0.05             0.00    0.00             0.01    0.08
     1  DEBYE   ................      0.01    0.07             0.00    0.00             0.01    0.07
     1  INPUTE  ................      0.00    0.01             0.00    0.00             0.00    0.01
     1  SYMORE  ................      0.00    0.01             0.00    0.00             0.00    0.01
     1  METS    ................      0.00    0.00             0.00    0.00             0.00    0.01
     1  CETS    ................      0.01    0.07             0.00    0.00             0.02    0.14
     1  POPUL   ................      8.88   59.45             0.24   67.05             9.14   58.52
     1  EXIT PROCEDURE .........      0.03    0.21             0.00    1.42             0.04    0.24


 Currently Open Files (EXIT00)
 ====================

 Unit    Access Format  Status   Type       Ident (file)
 -------------------------------------------------------
   3      SEQ    FORM   TRANSP  NORMAL      LOGFILE
                                          ( logfile )


 Buffered I/O statistics
 =======================
 Memory available:                     67108864
 Number of records fitting in memory:     16131
 Input :   1.3% of                        81652  *4k bytes
 Output:  12.4% of                         7654  *4k bytes
 Records from serial files evicted:           0
                    others evicted:           0
 Hash table lookups:     237166 with          0 conflicts (  0.00%)

 ***************************************************************************************************
 (LOGFILE)
 <May19-2019> <15:14:30>  ADF 2017  RunTime: May19-2019 15:14:30  Nodes: 1  Procs: 12
 <May19-2019> <15:14:31>  *** (NO TITLE) ***
 <May19-2019> <15:14:31>  RunType   : SINGLE POINT
 <May19-2019> <15:14:31>  Net Charge: 0 (Nuclei minus Electrons)
 <May19-2019> <15:14:31>  Symmetry  : C(3V)
 <May19-2019> <15:14:31>  >>>> FRAGM
  Coordinates
    Atom         X           Y           Z   (Angstrom)
    1.Ni        0.000000    0.000000    0.000000
    2.C        -1.750704    0.000000   -0.618967
    3.O        -2.835077    0.000000   -1.002351
    4.C         0.000000    0.000000    1.856902
    5.O         0.000000    0.000000    3.007053
    6.C         0.875352    1.516154   -0.618967
    7.O         1.417538    2.455249   -1.002351
    8.C         0.875352   -1.516154   -0.618967
    9.O         1.417538   -2.455249   -1.002351
 <May19-2019> <15:14:31>  >>>> CORORT
 <May19-2019> <15:14:31>  >>>> CLSMAT
 <May19-2019> <15:14:31>  >>>> ORTHON
 <May19-2019> <15:14:31>  >>>> GENPT
 <May19-2019> <15:14:31>  Block Length= 128
 <May19-2019> <15:14:31>  >>>> PTBAS
 <May19-2019> <15:14:32>  >>>> CYCLE
 <May19-2019> <15:14:32>              |Error|         MaxErr       Wt(A-DIIS)
 <May19-2019> <15:14:32>      1      2.45825023      1.64408517
 <May19-2019> <15:14:32>      2      0.26148087      0.13216519    100.0
 <May19-2019> <15:14:33>      3      0.03687951      0.01061575    100.0
 <May19-2019> <15:14:33>      4      0.07281304      0.03103524    100.0
 <May19-2019> <15:14:33>      5      0.01400783      0.00348417      2.5
 <May19-2019> <15:14:34>      6      0.00271066      0.00105219      0.1
 <May19-2019> <15:14:34>      7      0.00027848      0.00012460      0.0
 <May19-2019> <15:14:34>      8      0.00003168      0.00001002      0.0
 <May19-2019> <15:14:35>      9      0.00000701      0.00000271      0.0
 <May19-2019> <15:14:35>     10      0.00000066      0.00000029      0.0
 <May19-2019> <15:14:35>  SCF converged
 <May19-2019> <15:14:35>     11      0.00000006      0.00000002      0.0
 <May19-2019> <15:14:36>  >>>> TOTEN
 <May19-2019> <15:14:37>  >>>> POPAN
 <May19-2019> <15:14:37>  >>>> DEBYE
 <May19-2019> <15:14:37>  >>>> AMETS
 <May19-2019> <15:14:46>   Bond Energy           0.00112060 a.u.
 <May19-2019> <15:14:46>   Bond Energy           0.03049308 eV
 <May19-2019> <15:14:46>   Bond Energy           0.70       kcal/mol
 <May19-2019> <15:14:46>  >>>> POPUL
 <May19-2019> <15:14:46>  NORMAL TERMINATION
 <May19-2019> <15:14:46>  END
