

 Parallel Execution: Process Information
 ==============================================================================
 Rank   Node Name                              NodeID   MyNodeRank  NodeMaster
    0   BAZIS-cn025                               0          0          0
    1   BAZIS-cn025                               0          1         -1
    2   BAZIS-cn025                               0          2         -1
    3   BAZIS-cn025                               0          3         -1
    4   BAZIS-cn025                               0          4         -1
    5   BAZIS-cn025                               0          5         -1
    6   BAZIS-cn025                               0          6         -1
    7   BAZIS-cn025                               0          7         -1
    8   BAZIS-cn025                               0          8         -1
    9   BAZIS-cn025                               0          9         -1
   10   BAZIS-cn025                               0         10         -1
   11   BAZIS-cn025                               0         11         -1
 ==============================================================================


May use up to 30771MB of RAM as shared memory on node 0


XC
    GGA BLYP
END

REMOVEFRAGORBITALS
 1
  A1 44
 SUBEND

 2
  A1 17
 SUBEND
END

SCF
    iterations 250
END

EPRINT
    SFO Eig Ovl
END

ZLMFIT
    Quality normal
END

BECKEGRID
    Quality good
End

SYMMETRY C(3V)
CHARGE 0

ATOMS
Ni       0.00000000       0.00000000       0.00000000 f=1
C      -1.69105041      -0.45311559      -0.61896741 f=1
O      -2.73847408      -0.73377192      -1.00235108 f=1
C       0.00000000       0.00000000       1.85690223 f=2
O       0.00000000       0.00000000       3.00705324 f=2
C       0.45311559       1.69105041      -0.61896741 f=1
O       0.73377192       2.73847408      -1.00235108 f=1
C       1.23793482      -1.23793482      -0.61896741 f=1
O       2.00470216      -2.00470216      -1.00235108 f=1
END

Fragments
1 /home/tcst25/advanced_comp_chemistry/exercise3/NiCO4/step3/sp_NiCO3.t21
2 /home/tcst25/advanced_comp_chemistry/exercise3/NiCO4/step3/sp_CO.t21
End
end input

 *******************************************************************************
 *                                                                             *
 *  -------------------------------------                                      *
 *   Amsterdam Density Functional  (ADF)         2017                          *
 *  -------------------------------------                                      *
 *                                               r58813 2017-04-12             *
 *                                                                             *
 *                                                                             *
 *                              =================                              *
 *                              |               |                              *
 *                              |     A D F     |                              *
 *                              |               |                              *
 *                              =================                              *
 *                                                                             *
 *                                                                             *
 *   Online information and documentation:  https://www.scm.com/support/       *
 *   E-mail:  support@scm.com   info@scm.com                                   *
 *                                                                             *
 *   Scientific publications using ADF results must be properly referenced     *
 *   See the User Manuals (or the web site) for recommended citations          *
 *   The terms and conditions of the End User License Agreement apply to       *
 *   the use of ADF, https://www.scm.com/license-terms/                        *
 *                                                                             *
 **********************  x86_64_linux_intel / intelmpi  ************************
 
 Licensed to: VU/FEW (+ SARA) / ALGEMEEN / Amsterdam / THE NETHERLANDS
 SCM User ID: u7668
  
 ADF 2017  RunTime: May16-2019 17:26:00  Nodes: 1  Procs: 12

 Temporary files are created in /local/datastore0/tcst25/190557/kid_0.KtYBqo


Communication costs MPI_COMM_WORLD:      3.826 usec per message,   0.0179 usec per 8-byte item
Communication costs for intra-node:      3.862 usec per message,   0.0176 usec per 8-byte item

 *** (NO TITLE) ***



 ===========================
 A T T A C H E D   F I L E S
 ===========================
  



 ===============================
 M O D E L   P A R A M E T E R S
 ===============================
  
 DENSITY FUNCTIONAL POTENTIAL (scf)
    LDA:                               Exchange only                           == Not Default ==
    Gradient Corrections:              Becke88 LYP                             == Not Default ==

 SPIN  (restricted / unrestr.)
    Molecule:                          Restricted                               
    Fragments:                         Restricted                               

 OTHER ASPECTS
    Relativistic Corrections:          ---                                      

    Nuclear Charge Density Model:      Point Charge Nuclei                      
    Core Treatment:                    Frozen Orbital(s)                        

    Hyperfine or Zeeman Interaction:   ---                                      


 Fragment File(s)
 ----------------
 1:
         file : /home/tcst25/advanced_comp_chemistry/exercise3/NiCO4/step3/sp_NiCO3.t21
         jobid: ADF development version  RunTime: May07-2019 19:28:13  Nodes: 1  Procs: 12
         title: *** (NO TITLE) ***
 2:
         file : /home/tcst25/advanced_comp_chemistry/exercise3/NiCO4/step3/sp_CO.t21
         jobid: ADF development version  RunTime: May07-2019 19:28:07  Nodes: 1  Procs: 12
         title: *** (NO TITLE) ***



                                        ************************************
                                        *  R U N   T Y P E : SINGLE POINT  *
                                        ************************************
  



 ===============
 G E O M E T R Y  ***  3D  Molecule  ***
 ===============
  

 ATOMS
 =====                            X Y Z                    CHARGE
                                (Angstrom)             Nucl     +Core       At.Mass
                       --------------------------    ----------------       -------
    1  Ni              0.0000    0.0000    0.0000     28.00     28.00       57.9353
    2  C              -1.7507    0.0000   -0.6190      6.00      6.00       12.0000
    3  O              -2.8351    0.0000   -1.0024      8.00      8.00       15.9949
    4  C               0.0000    0.0000    1.8569      6.00      6.00       12.0000
    5  O               0.0000    0.0000    3.0071      8.00      8.00       15.9949
    6  C               0.8754    1.5162   -0.6190      6.00      6.00       12.0000
    7  O               1.4175    2.4552   -1.0024      8.00      8.00       15.9949
    8  C               0.8754   -1.5162   -0.6190      6.00      6.00       12.0000
    9  O               1.4175   -2.4552   -1.0024      8.00      8.00       15.9949


 FRAGMENTS
 =========                                     Atoms in this Fragment     Cart. coord.s (Angstrom)
                                               -------------------------------------------------------
    1  1                                                 1  Ni           0.0000    0.0000    0.0000
                                                         2  C           -1.7507    0.0000   -0.6190
                                                         6  C            0.8754    1.5162   -0.6190
                                                         8  C            0.8754   -1.5162   -0.6190
                                                         3  O           -2.8351    0.0000   -1.0024
                                                         7  O            1.4175    2.4552   -1.0024
                                                         9  O            1.4175   -2.4552   -1.0024
    2  2                                                 4  C            0.0000    0.0000    1.8569
                                                         5  O            0.0000    0.0000    3.0071


 Interatomic Distance Matrix (Angstrom)
 --------------------------------------

   1)     0.000
   2)     1.857   0.000
   3)     3.007   1.150   0.000
   4)     1.857   3.032   4.027   0.000
   5)     3.007   4.027   4.910   1.150   0.000
   6)     1.857   3.032   4.027   3.032   4.027   0.000
   7)     3.007   4.027   4.910   4.027   4.910   1.150   0.000
   8)     1.857   3.032   4.027   3.032   4.027   3.032   4.027   0.000
   9)     3.007   4.027   4.910   4.027   4.910   4.027   4.910   1.150   0.000

 Min. Distance =    1.1502
 Max. Distance =    4.9105



 =====================================
 S Y M M E T R Y ,   E L E C T R O N S
 =====================================
  
 Symmetry: C(3V)

 Irreducible Representations, including subspecies
 -------------------------------------------------
 A1
 A2
 E1:1  E1:2


 Configuration of Valence Electrons
 ==================================
 ( determined in the SCF procedure )

 Total:   84

 Net Charge: 0 (Nuclei minus Electrons)

 Aufbau principle for MO occupations will be applied through SCF cycle no.     125
 Thereafter, the program will assign electrons to MOs that are spatially
 similar to the occupied MOs in a "reference" cycle ("KeepOrbitals").
 The reference cycle is always the PREVIOUS cycle: it will evolve with
 the SCF procedure.
1
 ***************************************************************************************************



                                      ****************************************
                                      *  B U I L D : (Fragments, Functions)  *
                                      ****************************************
  

 The individual fragments are copies of the corresponding 'Master' fragments defined on the fragment files.
 However, they may have been rotated (and translated) with respect to the Master. The local coordinate axes
 of each fragment (which define for instance the spatial orientation in the current molecule of a fragment
 P:x orbital) are not necessarily those of the molecule.
 The local frame (if different from the molecular one) is printed to enable an interpretation of the expan-
 sion of an MO in Fragment Orbitals.



                                              ***********************
                                              *  Fragment Type : 1  *
                                              ***********************
  

 Fragment no.    1   (in the list of all fragments)
 -----------------
 The local coordinate frame is identical to the molecular frame.

 Check Atomic Coordinates:

                  Master (on file)          After Computed Tranformation               As specified on Input
           ----------------------------     ----------------------------     ---------------------------------
     1)     0.00000   0.00000   0.00000      0.00000   0.00000   0.00000       1   0.00000   0.00000   0.00000
     2)    -1.75070   0.00000  -0.61897     -1.75070   0.00000  -0.61897       2  -1.75070   0.00000  -0.61897
     3)     0.87535   1.51615  -0.61897      0.87535   1.51615  -0.61897       6   0.87535   1.51615  -0.61897
     4)     0.87535  -1.51615  -0.61897      0.87535  -1.51615  -0.61897       8   0.87535  -1.51615  -0.61897
     5)    -2.83508   0.00000  -1.00235     -2.83508   0.00000  -1.00235       3  -2.83508   0.00000  -1.00235
     6)     1.41754   2.45525  -1.00235      1.41754   2.45525  -1.00235       7   1.41754   2.45525  -1.00235
     7)     1.41754  -2.45525  -1.00235      1.41754  -2.45525  -1.00235       9   1.41754  -2.45525  -1.00235



                                              ***********************
                                              *  Fragment Type : 2  *
                                              ***********************
  

 Fragment no.    2   (in the list of all fragments)
 -----------------
 The local coordinate frame is identical to the molecular frame.

 Check Atomic Coordinates:

                  Master (on file)          After Computed Tranformation               As specified on Input
           ----------------------------     ----------------------------     ---------------------------------
     1)     0.00000   0.00000   1.85690      0.00000   0.00000   1.85690       4   0.00000   0.00000   1.85690
     2)     0.00000   0.00000   3.00705      0.00000   0.00000   3.00705       5   0.00000   0.00000   3.00705



 =======
 S F O s  ***  (Symmetrized Fragment Orbitals)  ***
 =======
  
 SFOs are linear combinations of (valence) Fragment Orbitals (FOs), such that the SFOs transform as the
 irreducible representations of the (molecular) symmetry group. Each SFO is therefore characterized by
 an irrep of the molecule and by a few (or only one) generating FOs.
 The SFOs constitute a symmetry-adapted basis for the Fock matrix. The MO eigenvector coefficients in
 this basis provide a direct interpretation of the MOs in terms of Frontier Orbital Theory.

 The SFOs are combined with auxiliary Core Functions (CFs) to ensure orthogonalization on the (frozen)
 Core Orbitals (COs). The Core-orthogonalized SFOs (CSFOs) constitute the true Fock basis.

 The FOs, and hence also the (C)SFOs are combinations of the elementary basis functions (BAS). The basis
 functions that participate in the description of the SFOs depend on the irrep. The indices of the
 involved functions are printed below for each irrep.
 (The complete list of primitive basis functions is printed in another section)

 Total nr. of (C)SFOs (summation over all irreps) :   196

 NOTE: a (C)SFO that is defined as a combination of more than one FO is usually NOT normalized.



                                       === A1 ===
 Nr. of SFOs :   17
 Cartesian basis functions that participate in this irrep (total number =   223) :
      1     2     3     4    11    12    40    41    42     7
     10    15    18    21    45    27    33    39    22    25
     28    31    34    37    55    48    53    46    49    56
     86   116    57    87   117    58    88   118    59    89
    119    60    90   120    63    93   123    66    96   126
     69    99   129    61    91    92   121   122    64    94
     95   124   125    67    97    98   127   128    75   105
    135    72   102   104   132   134    70    73   100   101
    103   130   131   133    85   115   145    81   111   114
    141   144    78    83   108   110   113   138   140   143
     76    79   106   107   109   112   136   137   139   142
    146   176   206   147   177   207   148   178   208   149
    179   209   150   180   210   153   183   213   156   186
    216   159   189   219   151   181   182   211   212   154
    184   185   214   215   157   187   188   217   218   165
    195   225   162   192   194   222   224   160   163   190
    191   193   220   221   223   175   205   235   171   201
    204   231   234   168   173   198   200   203   228   230
    233   166   169   196   197   199   202   226   227   229
    232   236   237   238   239   240   243   246   249   255
    250   253   265   258   263   256   259   266   267   268
    269   270   273   276   279   285   280   283   295   288
    293   286   289

    SFO  (index         Fragment          Generating    Expansion in Fragment Orbitals
  indx  incl.CFs)   Occup   Orb.Energy   FragmentType  Coeff.   Orbital     on Fragment
 --------------------------------------------------------------------------------------
     1       1      2.000    -298.457 au  1             1.00      1 A1              1
                        (   -8121.420 eV)
     2       2      2.000     -35.261 au  1             1.00      2 A1              1
                        (    -959.510 eV)
     3       3      2.000     -30.778 au  1             1.00      3 A1              1
                        (    -837.503 eV)
     4       4      2.000     -18.871 au  1             1.00      4 A1              1
                        (    -513.515 eV)
     5       5      2.000     -10.034 au  1             1.00      5 A1              1
                        (    -273.048 eV)
     6       6      2.000      -3.836 au  1             1.00      6 A1              1
                        (    -104.391 eV)
     7       7      2.000      -2.464 au  1             1.00      7 A1              1
                        (     -67.045 eV)
     8       8      2.000      -1.050 au  1             1.00      8 A1              1
                        (     -28.584 eV)
     9       9      2.000      -0.525 au  1             1.00      9 A1              1
                        (     -14.279 eV)
    10      10      2.000      -0.432 au  1             1.00     10 A1              1
                        (     -11.745 eV)
    11      11      2.000      -0.421 au  1             1.00     11 A1              1
                        (     -11.446 eV)
    12      12      2.000      -0.230 au  1             1.00     12 A1              1
                        (      -6.268 eV)
    13      13      2.000     -18.885 au  2             1.00      1 A1              2
                        (    -513.897 eV)
    14      14      2.000     -10.033 au  2             1.00      2 A1              2
                        (    -273.024 eV)
    15      15      2.000      -1.059 au  2             1.00      3 A1              2
                        (     -28.825 eV)
    16      16      2.000      -0.514 au  2             1.00      4 A1              2
                        (     -13.979 eV)
    17      17      2.000      -0.331 au  2             1.00      5 A1              2
                        (      -9.009 eV)



                                       === A2 ===
 Nr. of SFOs :   19
 Cartesian basis functions that participate in this irrep (total number =   104) :
     47    52    62    91    92   121   122    65    94    95
    124   125    68    97    98   127   128    74   102   104
    132   134    71   100   101   103   130   131   133    84
    111   114   141   144    80   108   110   113   138   140
    143    77    82   106   107   109   112   136   137   139
    142   152   181   182   211   212   155   184   185   214
    215   158   187   188   217   218   164   192   194   222
    224   161   190   191   193   220   221   223   174   201
    204   231   234   170   198   200   203   228   230   233
    167   172   196   197   199   202   226   227   229   232
    257   262   287   292

    SFO  (index         Fragment          Generating    Expansion in Fragment Orbitals
  indx  incl.CFs)   Occup   Orb.Energy   FragmentType  Coeff.   Orbital     on Fragment
 --------------------------------------------------------------------------------------
     1       1      2.000      -0.413 au  1             1.00      1 A2              1
                        (     -11.247 eV)
     2       2       --        -0.055 au  1             1.00      2 A2              1
                        (      -1.502 eV)
     3       3       --         0.270 au  1             1.00      3 A2              1
                        (       7.351 eV)
     4       4       --         0.672 au  1             1.00      4 A2              1
                        (      18.283 eV)
     5       5       --         0.927 au  1             1.00      5 A2              1
                        (      25.220 eV)
     6       6       --         1.084 au  1             1.00      6 A2              1
                        (      29.499 eV)
     7       7       --         1.517 au  1             1.00      7 A2              1
                        (      41.281 eV)
     8       8       --         1.773 au  1             1.00      8 A2              1
                        (      48.236 eV)
     9       9       --         2.405 au  1             1.00      9 A2              1
                        (      65.437 eV)
    10      10       --         2.599 au  1             1.00     10 A2              1
                        (      70.712 eV)
    11      11       --         3.251 au  1             1.00     11 A2              1
                        (      88.462 eV)
    12      12       --         3.314 au  1             1.00     12 A2              1
                        (      90.187 eV)
    13      13       --         4.025 au  1             1.00     13 A2              1
                        (     109.527 eV)
    14      14       --         4.196 au  1             1.00     14 A2              1
                        (     114.168 eV)
    15      15       --         4.436 au  1             1.00     15 A2              1
                        (     120.718 eV)
    16      16       --         5.204 au  1             1.00     16 A2              1
                        (     141.612 eV)
    17      17       --         7.117 au  1             1.00     17 A2              1
                        (     193.676 eV)
    18      18       --         3.241 au  2             1.00      1 A2              2
                        (      88.197 eV)
    19      19       --         4.193 au  2             1.00      2 A2              2
                        (     114.092 eV)



                                       === E1:1 ===
 Nr. of SFOs :   80
 Cartesian basis functions that participate in this irrep (total number =   204) :
      5     8    13    16    19    43    24    30    36    22
     25    28    31    34    37    51    48    53    46    49
     56    86   116    57    87   117    58    88   118    59
     89   119    60    90   120    63    93   123    66    96
    126    69    99   129    61    91    92   121   122    64
     94    95   124   125    67    97    98   127   128    75
    105   135    72   102   104   132   134    70    73   100
    101   103   130   131   133    85   115   145    81   111
    114   141   144    78    83   108   110   113   138   140
    143    76    79   106   107   109   112   136   137   139
    142   146   176   206   147   177   207   148   178   208
    149   179   209   150   180   210   153   183   213   156
    186   216   159   189   219   151   181   182   211   212
    154   184   185   214   215   157   187   188   217   218
    165   195   225   162   192   194   222   224   160   163
    190   191   193   220   221   223   175   205   235   171
    201   204   231   234   168   173   198   200   203   228
    230   233   166   169   196   197   199   202   226   227
    229   232   241   244   247   252   250   253   261   258
    263   256   259   271   274   277   282   280   283   291
    288   293   286   289

    SFO  (index         Fragment          Generating    Expansion in Fragment Orbitals
  indx  incl.CFs)   Occup   Orb.Energy   FragmentType  Coeff.   Orbital     on Fragment
 --------------------------------------------------------------------------------------
     1       1      2.000     -30.785 au  1             1.00      1 E1:1            1
                        (    -837.698 eV)
     2       2      2.000     -18.871 au  1             1.00      2 E1:1            1
                        (    -513.515 eV)
     3       3      2.000     -10.034 au  1             1.00      3 E1:1            1
                        (    -273.048 eV)
     4       4      2.000      -2.477 au  1             1.00      4 E1:1            1
                        (     -67.399 eV)
     5       5      2.000      -1.050 au  1             1.00      5 E1:1            1
                        (     -28.579 eV)
     6       6      2.000      -0.511 au  1             1.00      6 E1:1            1
                        (     -13.895 eV)
     7       7      2.000      -0.421 au  1             1.00      7 E1:1            1
                        (     -11.451 eV)
     8       8      2.000      -0.417 au  1             1.00      8 E1:1            1
                        (     -11.344 eV)
     9       9      2.000      -0.397 au  1             1.00      9 E1:1            1
                        (     -10.811 eV)
    10      10      2.000      -0.244 au  1             1.00     10 E1:1            1
                        (      -6.652 eV)
    11      11      2.000      -0.206 au  1             1.00     11 E1:1            1
                        (      -5.615 eV)
    12      12       --        -0.071 au  1             1.00     12 E1:1            1
                        (      -1.928 eV)
    13      13       --        -0.062 au  1             1.00     13 E1:1            1
                        (      -1.691 eV)
    14      14       --         0.088 au  1             1.00     14 E1:1            1
                        (       2.396 eV)
    15      15       --         0.154 au  1             1.00     15 E1:1            1
                        (       4.195 eV)
    16      16       --         0.182 au  1             1.00     16 E1:1            1
                        (       4.956 eV)
    17      17       --         0.290 au  1             1.00     17 E1:1            1
                        (       7.898 eV)
    18      18       --         0.383 au  1             1.00     18 E1:1            1
                        (      10.414 eV)
    19      19       --         0.491 au  1             1.00     19 E1:1            1
                        (      13.358 eV)
    20      20       --         0.524 au  1             1.00     20 E1:1            1
                        (      14.257 eV)
    21      21       --         0.581 au  1             1.00     21 E1:1            1
                        (      15.799 eV)
    22      22       --         0.765 au  1             1.00     22 E1:1            1
                        (      20.823 eV)
    23      23       --         0.807 au  1             1.00     23 E1:1            1
                        (      21.949 eV)
    24      24       --         0.920 au  1             1.00     24 E1:1            1
                        (      25.036 eV)
    25      25       --         0.942 au  1             1.00     25 E1:1            1
                        (      25.621 eV)
    26      26       --         1.129 au  1             1.00     26 E1:1            1
                        (      30.733 eV)
    27      27       --         1.140 au  1             1.00     27 E1:1            1
                        (      31.024 eV)
    28      28       --         1.336 au  1             1.00     28 E1:1            1
                        (      36.361 eV)
    29      29       --         1.433 au  1             1.00     29 E1:1            1
                        (      39.002 eV)
    30      30       --         1.493 au  1             1.00     30 E1:1            1
                        (      40.625 eV)
    31      31       --         1.525 au  1             1.00     31 E1:1            1
                        (      41.502 eV)
    32      32       --         1.649 au  1             1.00     32 E1:1            1
                        (      44.879 eV)
    33      33       --         1.721 au  1             1.00     33 E1:1            1
                        (      46.824 eV)
    34      34       --         1.925 au  1             1.00     34 E1:1            1
                        (      52.381 eV)
    35      35       --         2.198 au  1             1.00     35 E1:1            1
                        (      59.813 eV)
    36      36       --         2.287 au  1             1.00     36 E1:1            1
                        (      62.237 eV)
    37      37       --         2.320 au  1             1.00     37 E1:1            1
                        (      63.127 eV)
    38      38       --         2.477 au  1             1.00     38 E1:1            1
                        (      67.405 eV)
    39      39       --         2.549 au  1             1.00     39 E1:1            1
                        (      69.348 eV)
    40      40       --         2.907 au  1             1.00     40 E1:1            1
                        (      79.102 eV)
    41      41       --         3.249 au  1             1.00     41 E1:1            1
                        (      88.403 eV)
    42      42       --         3.251 au  1             1.00     42 E1:1            1
                        (      88.452 eV)
    43      43       --         3.258 au  1             1.00     43 E1:1            1
                        (      88.652 eV)
    44      44       --         3.301 au  1             1.00     44 E1:1            1
                        (      89.813 eV)
    45      45       --         3.341 au  1             1.00     45 E1:1            1
                        (      90.921 eV)
    46      46       --         3.954 au  1             1.00     46 E1:1            1
                        (     107.595 eV)
    47      47       --         3.963 au  1             1.00     47 E1:1            1
                        (     107.832 eV)
    48      48       --         4.190 au  1             1.00     48 E1:1            1
                        (     114.024 eV)
    49      49       --         4.192 au  1             1.00     49 E1:1            1
                        (     114.081 eV)
    50      50       --         4.301 au  1             1.00     50 E1:1            1
                        (     117.031 eV)
    51      51       --         4.339 au  1             1.00     51 E1:1            1
                        (     118.059 eV)
    52      52       --         4.435 au  1             1.00     52 E1:1            1
                        (     120.688 eV)
    53      53       --         5.191 au  1             1.00     53 E1:1            1
                        (     141.250 eV)
    54      54       --         5.235 au  1             1.00     54 E1:1            1
                        (     142.462 eV)
    55      55       --         5.608 au  1             1.00     55 E1:1            1
                        (     152.600 eV)
    56      56       --         6.197 au  1             1.00     56 E1:1            1
                        (     168.642 eV)
    57      57       --         6.331 au  1             1.00     57 E1:1            1
                        (     172.262 eV)
    58      58       --         6.905 au  1             1.00     58 E1:1            1
                        (     187.897 eV)
    59      59       --         7.131 au  1             1.00     59 E1:1            1
                        (     194.040 eV)
    60      60       --         7.193 au  1             1.00     60 E1:1            1
                        (     195.737 eV)
    61      61       --         9.972 au  1             1.00     61 E1:1            1
                        (     271.365 eV)
    62      62       --        10.899 au  1             1.00     62 E1:1            1
                        (     296.584 eV)
    63      63       --        15.432 au  1             1.00     63 E1:1            1
                        (     419.921 eV)
    64      64       --        54.791 au  1             1.00     64 E1:1            1
                        (    1490.948 eV)
    65      65       --        77.532 au  1             1.00     65 E1:1            1
                        (    2109.755 eV)
    66      66       --       128.804 au  1             1.00     66 E1:1            1
                        (    3504.927 eV)
    67      67      2.000      -0.423 au  2             1.00      1 E1:1            2
                        (     -11.516 eV)
    68      68       --        -0.077 au  2             1.00      2 E1:1            2
                        (      -2.104 eV)
    69      69       --         0.157 au  2             1.00      3 E1:1            2
                        (       4.276 eV)
    70      70       --         0.463 au  2             1.00      4 E1:1            2
                        (      12.601 eV)
    71      71       --         0.906 au  2             1.00      5 E1:1            2
                        (      24.640 eV)
    72      72       --         1.125 au  2             1.00      6 E1:1            2
                        (      30.608 eV)
    73      73       --         1.502 au  2             1.00      7 E1:1            2
                        (      40.868 eV)
    74      74       --         1.891 au  2             1.00      8 E1:1            2
                        (      51.461 eV)
    75      75       --         2.445 au  2             1.00      9 E1:1            2
                        (      66.541 eV)
    76      76       --         3.280 au  2             1.00     10 E1:1            2
                        (      89.254 eV)
    77      77       --         3.884 au  2             1.00     11 E1:1            2
                        (     105.695 eV)
    78      78       --         4.004 au  2             1.00     12 E1:1            2
                        (     108.963 eV)
    79      79       --         5.187 au  2             1.00     13 E1:1            2
                        (     141.156 eV)
    80      80       --         6.917 au  2             1.00     14 E1:1            2
                        (     188.222 eV)



                                       === E1:2 ===
 Nr. of SFOs :   80
 Cartesian basis functions that participate in this irrep (total number =   172) :
      6     9    14    17    20    44    26    32    38    23
     29    35    54    50    47    52    86   116    87   117
     88   118    89   119    90   120    93   123    96   126
     99   129    62    91    92   121   122    65    94    95
    124   125    68    97    98   127   128   105   135    74
    102   104   132   134    71   100   101   103   130   131
    133   115   145    84   111   114   141   144    80   108
    110   113   138   140   143    77    82   106   107   109
    112   136   137   139   142   176   206   177   207   178
    208   179   209   180   210   183   213   186   216   189
    219   152   181   182   211   212   155   184   185   214
    215   158   187   188   217   218   195   225   164   192
    194   222   224   161   190   191   193   220   221   223
    205   235   174   201   204   231   234   170   198   200
    203   228   230   233   167   172   196   197   199   202
    226   227   229   232   242   245   248   254   251   264
    260   257   262   272   275   278   284   281   294   290
    287   292

    SFO  (index         Fragment          Generating    Expansion in Fragment Orbitals
  indx  incl.CFs)   Occup   Orb.Energy   FragmentType  Coeff.   Orbital     on Fragment
 --------------------------------------------------------------------------------------
     1       1      2.000     -30.785 au  1             1.00      1 E1:2            1
                        (    -837.698 eV)
     2       2      2.000     -18.871 au  1             1.00      2 E1:2            1
                        (    -513.515 eV)
     3       3      2.000     -10.034 au  1             1.00      3 E1:2            1
                        (    -273.048 eV)
     4       4      2.000      -2.477 au  1             1.00      4 E1:2            1
                        (     -67.399 eV)
     5       5      2.000      -1.050 au  1             1.00      5 E1:2            1
                        (     -28.579 eV)
     6       6      2.000      -0.511 au  1             1.00      6 E1:2            1
                        (     -13.895 eV)
     7       7      2.000      -0.421 au  1             1.00      7 E1:2            1
                        (     -11.451 eV)
     8       8      2.000      -0.417 au  1             1.00      8 E1:2            1
                        (     -11.344 eV)
     9       9      2.000      -0.397 au  1             1.00      9 E1:2            1
                        (     -10.811 eV)
    10      10      2.000      -0.244 au  1             1.00     10 E1:2            1
                        (      -6.652 eV)
    11      11      2.000      -0.206 au  1             1.00     11 E1:2            1
                        (      -5.615 eV)
    12      12       --        -0.071 au  1             1.00     12 E1:2            1
                        (      -1.928 eV)
    13      13       --        -0.062 au  1             1.00     13 E1:2            1
                        (      -1.691 eV)
    14      14       --         0.088 au  1             1.00     14 E1:2            1
                        (       2.396 eV)
    15      15       --         0.154 au  1             1.00     15 E1:2            1
                        (       4.195 eV)
    16      16       --         0.182 au  1             1.00     16 E1:2            1
                        (       4.956 eV)
    17      17       --         0.290 au  1             1.00     17 E1:2            1
                        (       7.898 eV)
    18      18       --         0.383 au  1             1.00     18 E1:2            1
                        (      10.414 eV)
    19      19       --         0.491 au  1             1.00     19 E1:2            1
                        (      13.358 eV)
    20      20       --         0.524 au  1             1.00     20 E1:2            1
                        (      14.257 eV)
    21      21       --         0.581 au  1             1.00     21 E1:2            1
                        (      15.799 eV)
    22      22       --         0.765 au  1             1.00     22 E1:2            1
                        (      20.823 eV)
    23      23       --         0.807 au  1             1.00     23 E1:2            1
                        (      21.949 eV)
    24      24       --         0.920 au  1             1.00     24 E1:2            1
                        (      25.036 eV)
    25      25       --         0.942 au  1             1.00     25 E1:2            1
                        (      25.621 eV)
    26      26       --         1.129 au  1             1.00     26 E1:2            1
                        (      30.733 eV)
    27      27       --         1.140 au  1             1.00     27 E1:2            1
                        (      31.024 eV)
    28      28       --         1.336 au  1             1.00     28 E1:2            1
                        (      36.361 eV)
    29      29       --         1.433 au  1             1.00     29 E1:2            1
                        (      39.002 eV)
    30      30       --         1.493 au  1             1.00     30 E1:2            1
                        (      40.625 eV)
    31      31       --         1.525 au  1             1.00     31 E1:2            1
                        (      41.502 eV)
    32      32       --         1.649 au  1             1.00     32 E1:2            1
                        (      44.879 eV)
    33      33       --         1.721 au  1             1.00     33 E1:2            1
                        (      46.824 eV)
    34      34       --         1.925 au  1             1.00     34 E1:2            1
                        (      52.381 eV)
    35      35       --         2.198 au  1             1.00     35 E1:2            1
                        (      59.813 eV)
    36      36       --         2.287 au  1             1.00     36 E1:2            1
                        (      62.237 eV)
    37      37       --         2.320 au  1             1.00     37 E1:2            1
                        (      63.127 eV)
    38      38       --         2.477 au  1             1.00     38 E1:2            1
                        (      67.405 eV)
    39      39       --         2.549 au  1             1.00     39 E1:2            1
                        (      69.348 eV)
    40      40       --         2.907 au  1             1.00     40 E1:2            1
                        (      79.102 eV)
    41      41       --         3.249 au  1             1.00     41 E1:2            1
                        (      88.403 eV)
    42      42       --         3.251 au  1             1.00     42 E1:2            1
                        (      88.452 eV)
    43      43       --         3.258 au  1             1.00     43 E1:2            1
                        (      88.652 eV)
    44      44       --         3.301 au  1             1.00     44 E1:2            1
                        (      89.813 eV)
    45      45       --         3.341 au  1             1.00     45 E1:2            1
                        (      90.921 eV)
    46      46       --         3.954 au  1             1.00     46 E1:2            1
                        (     107.595 eV)
    47      47       --         3.963 au  1             1.00     47 E1:2            1
                        (     107.832 eV)
    48      48       --         4.190 au  1             1.00     48 E1:2            1
                        (     114.024 eV)
    49      49       --         4.192 au  1             1.00     49 E1:2            1
                        (     114.081 eV)
    50      50       --         4.301 au  1             1.00     50 E1:2            1
                        (     117.031 eV)
    51      51       --         4.339 au  1             1.00     51 E1:2            1
                        (     118.059 eV)
    52      52       --         4.435 au  1             1.00     52 E1:2            1
                        (     120.688 eV)
    53      53       --         5.191 au  1             1.00     53 E1:2            1
                        (     141.250 eV)
    54      54       --         5.235 au  1             1.00     54 E1:2            1
                        (     142.462 eV)
    55      55       --         5.608 au  1             1.00     55 E1:2            1
                        (     152.600 eV)
    56      56       --         6.197 au  1             1.00     56 E1:2            1
                        (     168.642 eV)
    57      57       --         6.331 au  1             1.00     57 E1:2            1
                        (     172.262 eV)
    58      58       --         6.905 au  1             1.00     58 E1:2            1
                        (     187.897 eV)
    59      59       --         7.131 au  1             1.00     59 E1:2            1
                        (     194.040 eV)
    60      60       --         7.193 au  1             1.00     60 E1:2            1
                        (     195.737 eV)
    61      61       --         9.972 au  1             1.00     61 E1:2            1
                        (     271.365 eV)
    62      62       --        10.899 au  1             1.00     62 E1:2            1
                        (     296.584 eV)
    63      63       --        15.432 au  1             1.00     63 E1:2            1
                        (     419.921 eV)
    64      64       --        54.791 au  1             1.00     64 E1:2            1
                        (    1490.948 eV)
    65      65       --        77.532 au  1             1.00     65 E1:2            1
                        (    2109.755 eV)
    66      66       --       128.804 au  1             1.00     66 E1:2            1
                        (    3504.927 eV)
    67      67      2.000      -0.423 au  2             1.00      1 E1:2            2
                        (     -11.516 eV)
    68      68       --        -0.077 au  2             1.00      2 E1:2            2
                        (      -2.104 eV)
    69      69       --         0.157 au  2             1.00      3 E1:2            2
                        (       4.276 eV)
    70      70       --         0.463 au  2             1.00      4 E1:2            2
                        (      12.601 eV)
    71      71       --         0.906 au  2             1.00      5 E1:2            2
                        (      24.640 eV)
    72      72       --         1.125 au  2             1.00      6 E1:2            2
                        (      30.608 eV)
    73      73       --         1.502 au  2             1.00      7 E1:2            2
                        (      40.868 eV)
    74      74       --         1.891 au  2             1.00      8 E1:2            2
                        (      51.461 eV)
    75      75       --         2.445 au  2             1.00      9 E1:2            2
                        (      66.541 eV)
    76      76       --         3.280 au  2             1.00     10 E1:2            2
                        (      89.254 eV)
    77      77       --         3.884 au  2             1.00     11 E1:2            2
                        (     105.695 eV)
    78      78       --         4.004 au  2             1.00     12 E1:2            2
                        (     108.963 eV)
    79      79       --         5.187 au  2             1.00     13 E1:2            2
                        (     141.156 eV)
    80      80       --         6.917 au  2             1.00     14 E1:2            2
                        (     188.222 eV)



 ================================
 (Slater-type)  F U N C T I O N S  ***  (Basis and Fit)  ***
 ================================
  

 Atom Type    1  (Ni)
 ==============

 Valence Basis Sets:  19
 -----------------------
   1 S   33.000000
   1 S   25.900000
   2 S   10.950000
   2 S    7.150000
   2 P   15.450000
   2 P   10.000000
   3 S    6.600000
   3 S    4.000000
   3 P    6.800000
   3 P    4.500000
   3 P    3.050000
   3 D    7.000000
   3 D    3.350000
   3 D    1.540000
   4 S    2.450000
   4 S    1.480000
   4 S    0.940000
   4 P    1.470000
   4 F    2.300000

 Atom Type    2  (C)
 ==============

 Valence Basis Sets:  10
 -----------------------
   1 S    7.680000
   1 S    5.000000
   2 S    1.280000
   2 S    2.100000
   2 S    4.600000
   2 P    0.820000
   2 P    1.480000
   2 P    2.940000
   3 D    2.200000
   4 F    3.300000

 Atom Type    3  (O)
 ==============

 Valence Basis Sets:  10
 -----------------------
   1 S    9.800000
   1 S    6.800000
   2 S    7.580000
   2 S    2.880000
   2 S    1.720000
   2 P    4.080000
   2 P    2.080000
   2 P    1.120000
   3 D    2.000000
   4 F    3.000000

 Atom Type    4  (C)
 ==============

 Valence Basis Sets:  10
 -----------------------
   1 S    7.680000
   1 S    5.000000
   2 S    1.280000
   2 S    2.100000
   2 S    4.600000
   2 P    0.820000
   2 P    1.480000
   2 P    2.940000
   3 D    2.200000
   4 F    3.300000

 Atom Type    5  (O)
 ==============

 Valence Basis Sets:  10
 -----------------------
   1 S    9.800000
   1 S    6.800000
   2 S    7.580000
   2 S    2.880000
   2 S    1.720000
   2 P    4.080000
   2 P    2.080000
   2 P    1.120000
   3 D    2.000000
   4 F    3.000000


 BAS: List of all Elementary Cartesian Basis Functions
 =====================================================

 The numbering in the list below (to the right of the function characteristics) is referred
 to in print-outs of MO eigenvectors and Mulliken populations in the BAS representation
 (as contrasted to the SFO representation).

 Notes:
 1. The functions are characterized by a polynomial prefactor (powers of x,y,z and r) and
    an exponential decay factor alpha.
 2. Since the basis sets are specific for an atom TYPE, the individual functions occur on
    all atoms of that type.
 3. The word 'Core' in the left margin signals that it is a Core Function (CF) : not a
    degree of freedom in the valence set, but only used to ensure orthogonalization of
    the other valence basis functions on the frozen Core Orbitals.


 (power of) X  Y  Z  R     Alpha  on Atom
            ==========     =====     ==========

 Ni                                   1
                                  ---------------------------------------------------------------------------
            0  0  0  0    33.000      1
            0  0  0  0    25.900      2
            0  0  0  1    10.950      3
            0  0  0  1     7.150      4
            1  0  0  0    15.450      5
            0  1  0  0    15.450      6
            0  0  1  0    15.450      7
            1  0  0  0    10.000      8
            0  1  0  0    10.000      9
            0  0  1  0    10.000     10
            0  0  0  2     6.600     11
            0  0  0  2     4.000     12
            1  0  0  1     6.800     13
            0  1  0  1     6.800     14
            0  0  1  1     6.800     15
            1  0  0  1     4.500     16
            0  1  0  1     4.500     17
            0  0  1  1     4.500     18
            1  0  0  1     3.050     19
            0  1  0  1     3.050     20
            0  0  1  1     3.050     21
            2  0  0  0     7.000     22
            1  1  0  0     7.000     23
            1  0  1  0     7.000     24
            0  2  0  0     7.000     25
            0  1  1  0     7.000     26
            0  0  2  0     7.000     27
            2  0  0  0     3.350     28
            1  1  0  0     3.350     29
            1  0  1  0     3.350     30
            0  2  0  0     3.350     31
            0  1  1  0     3.350     32
            0  0  2  0     3.350     33
            2  0  0  0     1.540     34
            1  1  0  0     1.540     35
            1  0  1  0     1.540     36
            0  2  0  0     1.540     37
            0  1  1  0     1.540     38
            0  0  2  0     1.540     39
            0  0  0  3     2.450     40
            0  0  0  3     1.480     41
            0  0  0  3     0.940     42
            1  0  0  2     1.470     43
            0  1  0  2     1.470     44
            0  0  1  2     1.470     45
            3  0  0  0     2.300     46
            2  1  0  0     2.300     47
            2  0  1  0     2.300     48
            1  2  0  0     2.300     49
            1  1  1  0     2.300     50
            1  0  2  0     2.300     51
            0  3  0  0     2.300     52
            0  2  1  0     2.300     53
            0  1  2  0     2.300     54
            0  0  3  0     2.300     55

 C                                    2    3    4
                                  ---------------------------------------------------------------------------
            0  0  0  0     7.680     56   86  116
            0  0  0  0     5.000     57   87  117
            0  0  0  1     1.280     58   88  118
            0  0  0  1     2.100     59   89  119
            0  0  0  1     4.600     60   90  120
            1  0  0  0     0.820     61   91  121
            0  1  0  0     0.820     62   92  122
            0  0  1  0     0.820     63   93  123
            1  0  0  0     1.480     64   94  124
            0  1  0  0     1.480     65   95  125
            0  0  1  0     1.480     66   96  126
            1  0  0  0     2.940     67   97  127
            0  1  0  0     2.940     68   98  128
            0  0  1  0     2.940     69   99  129
            2  0  0  0     2.200     70  100  130
            1  1  0  0     2.200     71  101  131
            1  0  1  0     2.200     72  102  132
            0  2  0  0     2.200     73  103  133
            0  1  1  0     2.200     74  104  134
            0  0  2  0     2.200     75  105  135
            3  0  0  0     3.300     76  106  136
            2  1  0  0     3.300     77  107  137
            2  0  1  0     3.300     78  108  138
            1  2  0  0     3.300     79  109  139
            1  1  1  0     3.300     80  110  140
            1  0  2  0     3.300     81  111  141
            0  3  0  0     3.300     82  112  142
            0  2  1  0     3.300     83  113  143
            0  1  2  0     3.300     84  114  144
            0  0  3  0     3.300     85  115  145

 O                                    5    6    7
                                  ---------------------------------------------------------------------------
            0  0  0  0     9.800    146  176  206
            0  0  0  0     6.800    147  177  207
            0  0  0  1     7.580    148  178  208
            0  0  0  1     2.880    149  179  209
            0  0  0  1     1.720    150  180  210
            1  0  0  0     4.080    151  181  211
            0  1  0  0     4.080    152  182  212
            0  0  1  0     4.080    153  183  213
            1  0  0  0     2.080    154  184  214
            0  1  0  0     2.080    155  185  215
            0  0  1  0     2.080    156  186  216
            1  0  0  0     1.120    157  187  217
            0  1  0  0     1.120    158  188  218
            0  0  1  0     1.120    159  189  219
            2  0  0  0     2.000    160  190  220
            1  1  0  0     2.000    161  191  221
            1  0  1  0     2.000    162  192  222
            0  2  0  0     2.000    163  193  223
            0  1  1  0     2.000    164  194  224
            0  0  2  0     2.000    165  195  225
            3  0  0  0     3.000    166  196  226
            2  1  0  0     3.000    167  197  227
            2  0  1  0     3.000    168  198  228
            1  2  0  0     3.000    169  199  229
            1  1  1  0     3.000    170  200  230
            1  0  2  0     3.000    171  201  231
            0  3  0  0     3.000    172  202  232
            0  2  1  0     3.000    173  203  233
            0  1  2  0     3.000    174  204  234
            0  0  3  0     3.000    175  205  235

 C                                    8
                                  ---------------------------------------------------------------------------
            0  0  0  0     7.680    236
            0  0  0  0     5.000    237
            0  0  0  1     1.280    238
            0  0  0  1     2.100    239
            0  0  0  1     4.600    240
            1  0  0  0     0.820    241
            0  1  0  0     0.820    242
            0  0  1  0     0.820    243
            1  0  0  0     1.480    244
            0  1  0  0     1.480    245
            0  0  1  0     1.480    246
            1  0  0  0     2.940    247
            0  1  0  0     2.940    248
            0  0  1  0     2.940    249
            2  0  0  0     2.200    250
            1  1  0  0     2.200    251
            1  0  1  0     2.200    252
            0  2  0  0     2.200    253
            0  1  1  0     2.200    254
            0  0  2  0     2.200    255
            3  0  0  0     3.300    256
            2  1  0  0     3.300    257
            2  0  1  0     3.300    258
            1  2  0  0     3.300    259
            1  1  1  0     3.300    260
            1  0  2  0     3.300    261
            0  3  0  0     3.300    262
            0  2  1  0     3.300    263
            0  1  2  0     3.300    264
            0  0  3  0     3.300    265

 O                                    9
                                  ---------------------------------------------------------------------------
            0  0  0  0     9.800    266
            0  0  0  0     6.800    267
            0  0  0  1     7.580    268
            0  0  0  1     2.880    269
            0  0  0  1     1.720    270
            1  0  0  0     4.080    271
            0  1  0  0     4.080    272
            0  0  1  0     4.080    273
            1  0  0  0     2.080    274
            0  1  0  0     2.080    275
            0  0  1  0     2.080    276
            1  0  0  0     1.120    277
            0  1  0  0     1.120    278
            0  0  1  0     1.120    279
            2  0  0  0     2.000    280
            1  1  0  0     2.000    281
            1  0  1  0     2.000    282
            0  2  0  0     2.000    283
            0  1  1  0     2.000    284
            0  0  2  0     2.000    285
            3  0  0  0     3.000    286
            2  1  0  0     3.000    287
            2  0  1  0     3.000    288
            1  2  0  0     3.000    289
            1  1  1  0     3.000    290
            1  0  2  0     3.000    291
            0  3  0  0     3.000    292
            0  2  1  0     3.000    293
            0  1  2  0     3.000    294
            0  0  3  0     3.000    295

 Total number of charge fitting functions (nprimf)       842
 Total number of Cartesian basis functions (naos)        295
 Total number of Cartesian core functions  (ncos)          0

1
 ***************************************************************************************************



                                              ***********************
                                              *  T E C H N I C A L  *
                                              ***********************
  



 =============================================================
 P A R A L L E L I Z A T I O N  and  V E C T O R I Z A T I O N
 =============================================================
  
 Nr of parallel processes:                               12
 Maximum vector length in NumInt loops:                 128

 IO buffersize (Mb):                                     64.000000



 =====================
 S C F   U P D A T E S
 =====================
  
 Max. nr. of cycles:                               250
 Convergence criterion:                              0.0000010000
   secondary criterion:                              0.0010000000

 Mix parameter (when DIIS does not apply):           0.2000000000
 Mixed ADIIS+DIIS will be used
    Max number of expansion vectors:                10
    Pure ADIIS when Max([F,P]) is above              0.1000000000
    Pure DIIS when Max([F,P]) is below               0.0010000000
 Automatic ElectronSmearing (in case of problematic SCF convergence) disabled



 =================
 P R E C I S I O N  ***  (General: NumInt, NeglectFunctionTails, ...)  ***
 =================
  

 NumInt:           Target precision:                 6.0000000000
 -------           Initial precision:                6.0000000000
                   Min. precision (optimization):    6.0000000000

 Neglect Functions:          Basis functions:        0.1000000000E-07
 ------------------          Fit functions:          0.1000000000E-07



 ===========================
 L I N E A R   S C A L I N G
 ===========================
  

 Cut-off radii density fit:                        0.1000000000E-09
 Overlap cut-off criterion AO matrix elements:     0.1000000000E-07
 Cut-offs for Coulomb potential and fitted density:0.1000000000E-09
 Cut-off criterion for Coulomb multipole terms:    0.1000000000E-09
 Progressive Convergence parameter:                 0.000000000    
1
 ***************************************************************************************************



                                            ***************************
                                            *  C O M P U T A T I O N  *
                                            ***************************
  

 Number of elements of the density matrix on this node (used, total):      2440     43660



 ===========================================
 Numerical Integration : Fuzzy Cells (Becke)
 ===========================================
  
 Becke grid quality: GOOD           
  
 Lebedev angular grid order:             min:  11 max:  35
 Nr. of radial points:                   min:  58 max:  87

 Total nr. of points:      51666
 Nr. of blocks:              404
 Block length:               128
 Nr. of dummy points:         46


 Test of Precision of the Numerical Integration Grid
 ===================================================

 Integral of the Total Core Density:                   0.00000000000000



 ========================
 Density Fitting (zlmFit)
 ========================
  
 ZlmFit Fit Quality: NORMAL         
  
 Max L-expansion:                        min:   7 max:   8
 Nr. of radial interpolation points:     min:  48 max:  72



 =====
 S C F  ***  ScaSCF  ***
 =====
  
 Initial density matrix is calculated as sum of fragments

 CYCLE    1
 SCF Error: norm([F,P])=      2.442216148699, max([F,P])=      1.644083471102
 orbitals (Q,E):
 ---------------
 A1 :8...17          ( 2.00    -3.8169)  ( 2.00    -2.4464)  ( 2.00    -1.0878)  ( 2.00    -1.0490)
                     ( 2.00    -0.5521)  ( 2.00    -0.5211)  ( 2.00    -0.4499)  ( 2.00    -0.4204)
                     ( 2.00    -0.4072)  ( 2.00    -0.1903)
 A2 :1...11          ( 2.00    -0.4118)  ( 0.00    -0.0524)  ( 0.00     0.2706)  ( 0.00     0.6723)
                     ( 0.00     0.9283)  ( 0.00     1.0879)  ( 0.00     1.5197)  ( 0.00     1.7782)
                     ( 0.00     2.4076)  ( 0.00     2.6015)  ( 0.00     3.2180)
 E1 :3...22          ( 4.00   -10.0304)  ( 4.00    -2.4575)  ( 4.00    -1.0488)  ( 4.00    -0.5087)
                     ( 4.00    -0.4546)  ( 4.00    -0.4190)  ( 4.00    -0.4153)  ( 4.00    -0.3910)
                     ( 4.00    -0.2372)  ( 4.00    -0.2105)  ( 0.00    -0.0938)  ( 0.00    -0.0643)
                     ( 0.00    -0.0579)  ( 0.00     0.0795)  ( 0.00     0.1404)  ( 0.00     0.1651)
                     ( 0.00     0.2622)  ( 0.00     0.3228)  ( 0.00     0.3848)  ( 0.00     0.4933)

 CYCLE    2
   MIX coefficients:  0.8000  0.2000
 SCF Error: norm([F,P])=      1.458260605797, max([F,P])=      0.442923715575
 orbitals (Q,E):
 ---------------
 A1 :8...17          ( 2.00    -3.9586)  ( 2.00    -2.5849)  ( 2.00    -1.0584)  ( 2.00    -1.0400)
                     ( 2.00    -0.5450)  ( 2.00    -0.5119)  ( 2.00    -0.4521)  ( 2.00    -0.4303)
                     ( 2.00    -0.4170)  ( 2.00    -0.2739)
 A2 :1...2           ( 2.00    -0.4212)  ( 0.00    -0.0678)
 E1 :3...13          ( 4.00   -10.0516)  ( 4.00    -2.5957)  ( 4.00    -1.0582)  ( 4.00    -0.5225)
                     ( 4.00    -0.4336)  ( 4.00    -0.4319)  ( 4.00    -0.4267)  ( 4.00    -0.4134)
                     ( 4.00    -0.3370)  ( 4.00    -0.2858)  ( 0.00    -0.1003)

 CYCLE    3
  SDIIS (wt  0.000):  0.4942  0.5058
 A-DIIS (wt  1.000):  0.4758  0.5242
  DIIS coefficients:  0.4758  0.5242
 SCF Error: norm([F,P])=      1.426526245940, max([F,P])=      0.323217379831
 orbitals (Q,E):
 ---------------
 A1 :8...17          ( 2.00    -3.8366)  ( 2.00    -2.4749)  ( 2.00    -1.0919)  ( 2.00    -0.9501)
                     ( 2.00    -0.5605)  ( 2.00    -0.4697)  ( 2.00    -0.4574)  ( 2.00    -0.4284)
                     ( 2.00    -0.3272)  ( 2.00    -0.1922)
 A2 :1...2           ( 2.00    -0.4517)  ( 0.00    -0.0898)
 E1 :3...13          ( 4.00   -10.0757)  ( 4.00    -2.4733)  ( 4.00    -1.0918)  ( 4.00    -0.5476)
                     ( 4.00    -0.4582)  ( 4.00    -0.4540)  ( 4.00    -0.4272)  ( 4.00    -0.3346)
                     ( 4.00    -0.2548)  ( 4.00    -0.2181)  ( 0.00    -0.0966)

 CYCLE    4
  SDIIS (wt  0.000):  0.1583  0.4181  0.4235
 A-DIIS (wt  1.000):  0.1146  0.4081  0.4773
  DIIS coefficients:  0.1146  0.4081  0.4773
 SCF Error: norm([F,P])=      0.939212961745, max([F,P])=      0.236679585407
 orbitals (Q,E):
 ---------------
 A1 :8...17          ( 2.00    -3.8666)  ( 2.00    -2.4976)  ( 2.00    -1.0534)  ( 2.00    -1.0412)
                     ( 2.00    -0.5371)  ( 2.00    -0.5066)  ( 2.00    -0.4445)  ( 2.00    -0.4256)
                     ( 2.00    -0.3980)  ( 2.00    -0.2213)
 A2 :1...2           ( 2.00    -0.4175)  ( 0.00    -0.0626)
 E1 :3...13          ( 4.00   -10.0395)  ( 4.00    -2.5057)  ( 4.00    -1.0532)  ( 4.00    -0.5158)
                     ( 4.00    -0.4258)  ( 4.00    -0.4228)  ( 4.00    -0.4115)  ( 4.00    -0.4090)
                     ( 4.00    -0.2726)  ( 4.00    -0.2373)  ( 0.00    -0.0838)

 CYCLE    5
  SDIIS (wt  0.788): -0.0191  0.1367  0.2189  0.6635
 A-DIIS (wt  0.212):  0.0000  0.0000  0.0006  0.9994
  DIIS coefficients: -0.0150  0.1077  0.1725  0.7348
 SCF Error: norm([F,P])=      0.138657616342, max([F,P])=      0.022015115073
 orbitals (Q,E):
 ---------------
 A1 :8...17          ( 2.00    -3.8587)  ( 2.00    -2.4914)  ( 2.00    -1.0734)  ( 2.00    -1.0168)
                     ( 2.00    -0.5451)  ( 2.00    -0.4896)  ( 2.00    -0.4496)  ( 2.00    -0.4405)
                     ( 2.00    -0.3759)  ( 2.00    -0.2137)
 A2 :1...2           ( 2.00    -0.4346)  ( 0.00    -0.0718)
 E1 :3...13          ( 4.00   -10.0500)  ( 4.00    -2.4965)  ( 4.00    -1.0732)  ( 4.00    -0.5313)
                     ( 4.00    -0.4414)  ( 4.00    -0.4377)  ( 4.00    -0.4137)  ( 4.00    -0.3905)
                     ( 4.00    -0.2653)  ( 4.00    -0.2294)  ( 0.00    -0.0878)

 CYCLE    6
  SDIIS (wt  0.000): -0.0323  0.0648  0.0637  0.5245  0.3793
 A-DIIS (wt  1.000):  0.0000  0.0000  0.0000  0.5872  0.4128
  DIIS coefficients:  0.0000  0.0000  0.0000  0.5872  0.4128
 SCF Error: norm([F,P])=      0.200446269864, max([F,P])=      0.043792673473
 orbitals (Q,E):
 ---------------
 A1 :8...17          ( 2.00    -3.9026)  ( 2.00    -2.5340)  ( 2.00    -1.0705)  ( 2.00    -1.0075)
                     ( 2.00    -0.5478)  ( 2.00    -0.4847)  ( 2.00    -0.4531)  ( 2.00    -0.4393)
                     ( 2.00    -0.3818)  ( 2.00    -0.2384)
 A2 :1...2           ( 2.00    -0.4321)  ( 0.00    -0.0764)
 E1 :3...13          ( 4.00   -10.0641)  ( 4.00    -2.5395)  ( 4.00    -1.0703)  ( 4.00    -0.5301)
                     ( 4.00    -0.4404)  ( 4.00    -0.4357)  ( 4.00    -0.4267)  ( 4.00    -0.3839)
                     ( 4.00    -0.2969)  ( 4.00    -0.2553)  ( 0.00    -0.0981)

 CYCLE    7
  SDIIS (wt  0.000):  0.0055 -0.0555  0.0587  0.4121  0.2768  0.3025
 A-DIIS (wt  1.000):  0.0000  0.0000  0.0000  0.4403  0.4593  0.1004
  DIIS coefficients:  0.0000  0.0000  0.0000  0.4403  0.4593  0.1004
 SCF Error: norm([F,P])=      0.654530729702, max([F,P])=      0.141695127694
 orbitals (Q,E):
 ---------------
 A1 :8...17          ( 2.00    -3.8755)  ( 2.00    -2.5077)  ( 2.00    -1.0670)  ( 2.00    -1.0144)
                     ( 2.00    -0.5443)  ( 2.00    -0.4885)  ( 2.00    -0.4501)  ( 2.00    -0.4362)
                     ( 2.00    -0.3807)  ( 2.00    -0.2245)
 A2 :1...2           ( 2.00    -0.4290)  ( 0.00    -0.0736)
 E1 :3...13          ( 4.00   -10.0609)  ( 4.00    -2.5132)  ( 4.00    -1.0668)  ( 4.00    -0.5264)
                     ( 4.00    -0.4370)  ( 4.00    -0.4327)  ( 4.00    -0.4195)  ( 4.00    -0.3892)
                     ( 4.00    -0.2778)  ( 4.00    -0.2403)  ( 0.00    -0.0920)

 CYCLE    8
  SDIIS (wt  0.000): -0.0013  0.0043 -0.0057  0.2216  0.3515 -0.0517  0.4812
 A-DIIS (wt  1.000):  0.0000  0.0000  0.0000  0.1582  0.3768  0.0000  0.4650
  DIIS coefficients:  0.0000  0.0000  0.0000  0.1582  0.3768  0.0000  0.4650
 SCF Error: norm([F,P])=      0.183199722313, max([F,P])=      0.036317907832
 orbitals (Q,E):
 ---------------
 A1 :8...17          ( 2.00    -3.8592)  ( 2.00    -2.4914)  ( 2.00    -1.0634)  ( 2.00    -1.0248)
                     ( 2.00    -0.5405)  ( 2.00    -0.4955)  ( 2.00    -0.4470)  ( 2.00    -0.4332)
                     ( 2.00    -0.3841)  ( 2.00    -0.2154)
 A2 :1...2           ( 2.00    -0.4260)  ( 0.00    -0.0688)
 E1 :3...13          ( 4.00   -10.0506)  ( 4.00    -2.4975)  ( 4.00    -1.0632)  ( 4.00    -0.5232)
                     ( 4.00    -0.4336)  ( 4.00    -0.4297)  ( 4.00    -0.4127)  ( 4.00    -0.3976)
                     ( 4.00    -0.2664)  ( 4.00    -0.2312)  ( 0.00    -0.0859)

 CYCLE    9
  SDIIS (wt  0.685): -0.0109 -0.0082 -0.0162  0.1254  0.2586  0.0713  0.2063  0.3737
 A-DIIS (wt  0.315):  0.0000  0.0000  0.0000  0.0000  0.0425  0.0000  0.4189  0.5385
  DIIS coefficients: -0.0074 -0.0056 -0.0111  0.0858  0.1905  0.0488  0.2733  0.4257
 SCF Error: norm([F,P])=      0.150548764146, max([F,P])=      0.032225687941
 orbitals (Q,E):
 ---------------
 A1 :8...17          ( 2.00    -3.8676)  ( 2.00    -2.4995)  ( 2.00    -1.0658)  ( 2.00    -1.0223)
                     ( 2.00    -0.5419)  ( 2.00    -0.4940)  ( 2.00    -0.4482)  ( 2.00    -0.4351)
                     ( 2.00    -0.3835)  ( 2.00    -0.2199)
 A2 :1...2           ( 2.00    -0.4281)  ( 0.00    -0.0696)
 E1 :3...13          ( 4.00   -10.0496)  ( 4.00    -2.5056)  ( 4.00    -1.0656)  ( 4.00    -0.5255)
                     ( 4.00    -0.4356)  ( 4.00    -0.4317)  ( 4.00    -0.4145)  ( 4.00    -0.3957)
                     ( 4.00    -0.2720)  ( 4.00    -0.2355)  ( 0.00    -0.0878)

 CYCLE   10
  SDIIS (wt  0.938): -0.0007  0.0027 -0.0018  0.0254  0.0536 -0.0402  0.2501  0.1905  0.5205
 A-DIIS (wt  0.062):  0.0000  0.0000  0.0000  0.0000  0.0000  0.0000  0.0000  0.1338  0.8662
  DIIS coefficients: -0.0007  0.0025 -0.0017  0.0238  0.0503 -0.0378  0.2346  0.1870  0.5419
 SCF Error: norm([F,P])=      0.035661921358, max([F,P])=      0.007107542161
 orbitals (Q,E):
 ---------------
 A1 :8...17          ( 2.00    -3.8665)  ( 2.00    -2.4985)  ( 2.00    -1.0655)  ( 2.00    -1.0216)
                     ( 2.00    -0.5420)  ( 2.00    -0.4934)  ( 2.00    -0.4483)  ( 2.00    -0.4349)
                     ( 2.00    -0.3832)  ( 2.00    -0.2194)
 A2 :1...2           ( 2.00    -0.4278)  ( 0.00    -0.0702)
 E1 :3...13          ( 4.00   -10.0521)  ( 4.00    -2.5045)  ( 4.00    -1.0653)  ( 4.00    -0.5251)
                     ( 4.00    -0.4354)  ( 4.00    -0.4314)  ( 4.00    -0.4149)  ( 4.00    -0.3951)
                     ( 4.00    -0.2713)  ( 4.00    -0.2351)  ( 0.00    -0.0881)

 CYCLE   11
  SDIIS (wt  1.000): -0.0002 -0.0003 -0.0000  0.0007  0.0065 -0.0046  0.0459  0.0662  0.2153  0.6705
  DIIS coefficients: -0.0002 -0.0003 -0.0000  0.0007  0.0065 -0.0046  0.0459  0.0662  0.2153  0.6705
 SCF Error: norm([F,P])=      0.003103769132, max([F,P])=      0.000936033461
 orbitals (Q,E):
 ---------------
 A1 :8...17          ( 2.00    -3.8664)  ( 2.00    -2.4985)  ( 2.00    -1.0655)  ( 2.00    -1.0218)
                     ( 2.00    -0.5420)  ( 2.00    -0.4935)  ( 2.00    -0.4483)  ( 2.00    -0.4349)
                     ( 2.00    -0.3832)  ( 2.00    -0.2194)
 A2 :1...2           ( 2.00    -0.4278)  ( 0.00    -0.0701)
 E1 :3...13          ( 4.00   -10.0518)  ( 4.00    -2.5045)  ( 4.00    -1.0653)  ( 4.00    -0.5251)
                     ( 4.00    -0.4354)  ( 4.00    -0.4314)  ( 4.00    -0.4148)  ( 4.00    -0.3952)
                     ( 4.00    -0.2713)  ( 4.00    -0.2350)  ( 0.00    -0.0880)

 CYCLE   12
  SDIIS (wt  1.000):  0.0000  0.0002 -0.0014  0.0003 -0.0027  0.0143  0.0232  0.0991  0.4158  0.4512
  DIIS coefficients:  0.0000  0.0002 -0.0014  0.0003 -0.0027  0.0143  0.0232  0.0991  0.4158  0.4512
 SCF Error: norm([F,P])=      0.000169388222, max([F,P])=      0.000059811409
 orbitals (Q,E):
 ---------------
 A1 :8...17          ( 2.00    -3.8664)  ( 2.00    -2.4985)  ( 2.00    -1.0655)  ( 2.00    -1.0217)
                     ( 2.00    -0.5420)  ( 2.00    -0.4935)  ( 2.00    -0.4483)  ( 2.00    -0.4349)
                     ( 2.00    -0.3832)  ( 2.00    -0.2194)
 A2 :1...2           ( 2.00    -0.4278)  ( 0.00    -0.0701)
 E1 :3...13          ( 4.00   -10.0518)  ( 4.00    -2.5045)  ( 4.00    -1.0653)  ( 4.00    -0.5251)
                     ( 4.00    -0.4354)  ( 4.00    -0.4314)  ( 4.00    -0.4148)  ( 4.00    -0.3951)
                     ( 4.00    -0.2713)  ( 4.00    -0.2350)  ( 0.00    -0.0880)

 CYCLE   13
  SDIIS (wt  1.000):  0.0000 -0.0004  0.0000 -0.0004  0.0018  0.0040  0.0159  0.0723  0.1209  0.7858
  DIIS coefficients:  0.0000 -0.0004  0.0000 -0.0004  0.0018  0.0040  0.0159  0.0723  0.1209  0.7858
 SCF Error: norm([F,P])=      0.000102235136, max([F,P])=      0.000022216631
 orbitals (Q,E):
 ---------------
 A1 :8...17          ( 2.00    -3.8664)  ( 2.00    -2.4985)  ( 2.00    -1.0655)  ( 2.00    -1.0217)
                     ( 2.00    -0.5420)  ( 2.00    -0.4935)  ( 2.00    -0.4483)  ( 2.00    -0.4349)
                     ( 2.00    -0.3832)  ( 2.00    -0.2194)
 A2 :1...2           ( 2.00    -0.4278)  ( 0.00    -0.0701)
 E1 :3...13          ( 4.00   -10.0518)  ( 4.00    -2.5045)  ( 4.00    -1.0653)  ( 4.00    -0.5251)
                     ( 4.00    -0.4354)  ( 4.00    -0.4314)  ( 4.00    -0.4148)  ( 4.00    -0.3951)
                     ( 4.00    -0.2713)  ( 4.00    -0.2350)  ( 0.00    -0.0880)

 CYCLE   14
  SDIIS (wt  1.000): -0.0001  0.0000 -0.0000  0.0002  0.0006  0.0021  0.0100  0.0228  0.2275  0.7368
  DIIS coefficients: -0.0001  0.0000 -0.0000  0.0002  0.0006  0.0021  0.0100  0.0228  0.2275  0.7368
 SCF Error: norm([F,P])=      0.000007650994, max([F,P])=      0.000001603875
 orbitals (Q,E):
 ---------------
 A1 :8...17          ( 2.00    -3.8664)  ( 2.00    -2.4985)  ( 2.00    -1.0655)  ( 2.00    -1.0217)
                     ( 2.00    -0.5420)  ( 2.00    -0.4935)  ( 2.00    -0.4483)  ( 2.00    -0.4349)
                     ( 2.00    -0.3832)  ( 2.00    -0.2194)
 A2 :1...2           ( 2.00    -0.4278)  ( 0.00    -0.0701)
 E1 :3...13          ( 4.00   -10.0518)  ( 4.00    -2.5045)  ( 4.00    -1.0653)  ( 4.00    -0.5251)
                     ( 4.00    -0.4354)  ( 4.00    -0.4314)  ( 4.00    -0.4148)  ( 4.00    -0.3951)
                     ( 4.00    -0.2713)  ( 4.00    -0.2350)  ( 0.00    -0.0880)

 CYCLE   15
  SDIIS (wt  1.000):  0.0000 -0.0000  0.0000  0.0000  0.0000  0.0002  0.0008  0.0219  0.1564  0.8206
  DIIS coefficients:  0.0000 -0.0000  0.0000  0.0000  0.0000  0.0002  0.0008  0.0219  0.1564  0.8206
 SCF Error: norm([F,P])=      0.000000702046, max([F,P])=      0.000000152332
 orbitals (Q,E):
 ---------------
 A1 :8...17          ( 2.00    -3.8664)  ( 2.00    -2.4985)  ( 2.00    -1.0655)  ( 2.00    -1.0217)
                     ( 2.00    -0.5420)  ( 2.00    -0.4935)  ( 2.00    -0.4483)  ( 2.00    -0.4349)
                     ( 2.00    -0.3832)  ( 2.00    -0.2194)
 A2 :1...2           ( 2.00    -0.4278)  ( 0.00    -0.0701)
 E1 :3...13          ( 4.00   -10.0518)  ( 4.00    -2.5045)  ( 4.00    -1.0653)  ( 4.00    -0.5251)
                     ( 4.00    -0.4354)  ( 4.00    -0.4314)  ( 4.00    -0.4148)  ( 4.00    -0.3951)
                     ( 4.00    -0.2713)  ( 4.00    -0.2350)  ( 0.00    -0.0880)

 SCF CONVERGED

 CYCLE   16
1
 ***************************************************************************************************



                                                *******************
                                                *  R E S U L T S  *
                                                *******************
  
 *** Setting up for NEW gradients in Focky
 *** Using FIT density in Focky

 Orbital Energies, per Irrep and Spin:
 ======================================
                        Occup              E (au)              E (eV)       Diff (eV) with prev. cycle
                        -----      --------------------        ------       --------------------------
 A1
               8        2.000     -0.38664090398752E+01      -105.210              -3.06E-09
               9        2.000     -0.24984924323585E+01       -67.987               4.28E-09
              10        2.000     -0.10655136321938E+01       -28.994               2.34E-08
              11        2.000     -0.10217277530013E+01       -27.803              -7.22E-08
              12        2.000     -0.54200019266185E+00       -14.749              -3.78E-08
              13        2.000     -0.49350922929937E+00       -13.429              -2.26E-08
              14        2.000     -0.44825300828872E+00       -12.198              -3.16E-08
              15        2.000     -0.43490746592069E+00       -11.834              -2.83E-09
              16        2.000     -0.38317708936519E+00       -10.427              -4.60E-08
              17        2.000     -0.21936057025225E+00        -5.969              -3.84E-09
 A2
               1        2.000     -0.42779266231109E+00       -11.641               7.64E-11
               2        0.000     -0.70084676241229E-01        -1.907
               3        0.000      0.26126086462720E+00         7.109
               4        0.000      0.66206410002230E+00        18.016
               5        0.000      0.91372911407976E+00        24.864
               6        0.000      0.10691406109541E+01        29.093
               7        0.000      0.15029552446278E+01        40.897
               8        0.000      0.17573635705562E+01        47.820
               9        0.000      0.23894666074015E+01        65.021
              10        0.000      0.25821115612273E+01        70.263
              11        0.000      0.32374464248151E+01        88.095
 E1
               3        4.000     -0.10051775079960E+02      -273.523              -6.30E-08
               4        4.000     -0.25044581776446E+01       -68.150              -1.13E-08
               5        4.000     -0.10653196508829E+01       -28.989               2.34E-08
               6        4.000     -0.52510322945079E+00       -14.289              -3.97E-08
               7        4.000     -0.43540160139871E+00       -11.848              -2.98E-10
               8        4.000     -0.43140563008778E+00       -11.739              -3.04E-09
               9        4.000     -0.41484317094790E+00       -11.288              -3.33E-08
              10        4.000     -0.39513668150538E+00       -10.752              -4.74E-08
              11        4.000     -0.27129093786324E+00        -7.382              -1.74E-08
              12        4.000     -0.23502745198800E+00        -6.395              -3.00E-08
              13        0.000     -0.87990254521803E-01        -2.394
              14        0.000     -0.78735159484574E-01        -2.142
              15        0.000     -0.47427033029159E-01        -1.291
              16        0.000      0.74462812783619E-01         2.026
              17        0.000      0.14276194241853E+00         3.885
              18        0.000      0.16588821747036E+00         4.514
              19        0.000      0.26853915698057E+00         7.307
              20        0.000      0.31427922673812E+00         8.552
              21        0.000      0.37635769956479E+00        10.241
              22        0.000      0.48231725708841E+00        13.125
  
 HOMO :       17 A1               -0.21936057025225E+00
 LUMO :       13 E1               -0.87990254521803E-01
  


 Orbital Energies, all Irreps
 ========================================

 Irrep        no.  (spin)   Occup              E (au)                E (eV)
 ---------------------------------------------------------------------------
 A1            1             2.00       -0.29848464181067E+03     -8122.1804
 A1            2             2.00       -0.35293394048294E+02      -960.3821
 E1            1             4.00       -0.30815416773340E+02      -838.5302
 A1            3             2.00       -0.30811321378705E+02      -838.4187
 A1            4             2.00       -0.18887949633644E+02      -513.9673
 E1            2             4.00       -0.18887949518675E+02      -513.9673
 A1            5             2.00       -0.18840705972325E+02      -512.6817
 A1            6             2.00       -0.10051775632099E+02      -273.5227
 E1            3             4.00       -0.10051775079960E+02      -273.5227
 A1            7             2.00       -0.99801880355179E+01      -271.5747
 A1            8             2.00       -0.38664090398752E+01      -105.2103
 E1            4             4.00       -0.25044581776446E+01       -68.1498
 A1            9             2.00       -0.24984924323585E+01       -67.9874
 A1           10             2.00       -0.10655136321938E+01       -28.9941
 E1            5             4.00       -0.10653196508829E+01       -28.9888
 A1           11             2.00       -0.10217277530013E+01       -27.8026
 A1           12             2.00       -0.54200019266185E+00       -14.7486
 E1            6             4.00       -0.52510322945079E+00       -14.2888
 A1           13             2.00       -0.49350922929937E+00       -13.4291
 A1           14             2.00       -0.44825300828872E+00       -12.1976
 E1            7             4.00       -0.43540160139871E+00       -11.8479
 A1           15             2.00       -0.43490746592069E+00       -11.8344
[...]
   78   -2.28463081786145E-15 -1.63410951437015E-15 -2.87747256577653E-16 -3.21964677141295E-15
   79   -1.59811400224363E-16  5.90022822266612E-16 -3.46727854760864E-16 -2.45680212285215E-16
   80   -1.92424201572727E-15  7.97972798949331E-17  2.42861286636753E-16  2.12156681111964E-15

 column          73                    74                    75                    76
 row
   73    1.00000000000000E+00
   74   -8.69096461464380E-16  1.00000000000000E+00
   75    6.79117135790608E-16  9.84889253485832E-16  1.00000000000000E+00
   76   -1.39265769055763E-15 -6.33174068731535E-17 -3.09431300027363E-16  1.00000000000000E+00
   77    2.84060969191202E-17 -1.07336015076065E-15  2.19529255884865E-15 -2.81350463759988E-17
   78    3.01841884819964E-16  4.38017677684144E-16 -3.85108611666851E-15  3.93565388612238E-16
   79    2.86229373536173E-16 -9.30462304427060E-16 -1.85561201820894E-16  2.02854226472038E-16
   80   -6.33174068731535E-17 -1.89084858881472E-16 -6.44232930890887E-16 -4.23380948355589E-16

 column          77                    78                    79                    80
 row
   77    9.99999999999997E-01
   78   -1.20758437971435E-15  1.00000000000000E+00
   79    6.33174068731535E-17  3.72965547335014E-17  1.00000000000000E+00
   80    1.15012166457262E-15  1.96717642175770E-15 -9.45424294407360E-17  1.00000000000000E+00


 SFO contributions (%) per orbital
 (multiplication by the orbital occupation yields the SFO Gross Populations)

 Orb.:        3      4      5      6      7      8      9     10     11     12     13     14     15     16
 occup:     2.00   2.00   2.00   2.00   2.00   2.00   2.00   2.00   2.00   2.00   0.00   0.00   0.00   0.00
 CF+SFO     ----   ----   ----   ----   ----   ----   ----   ----   ----   ----   ----   ----   ----   ----
 ------
      3:  100.00  -0.00   0.00   0.00   0.00   0.00   0.00   0.00   0.00   0.00   0.00   0.00   0.00   0.00
      4:   -0.00 100.01   0.00  -0.00  -0.00  -0.00   0.00  -0.00  -0.00  -0.00   0.00   0.00   0.00   0.00
      5:    0.00  -0.00 100.02   0.00   0.00   0.00   0.00  -0.00   0.00  -0.00   0.00  -0.00  -0.00  -0.00
      6:    0.00  -0.00   0.00 100.02  -0.00   0.00   0.02   0.01  -0.00  -0.00   0.00   0.00   0.01  -0.00
      7:    0.00   0.00   0.00   0.00  99.95   0.00   0.00   0.04   0.01   0.00   0.00   0.00  -0.00  -0.00
      8:   -0.00  -0.00   0.00   0.00   0.00  98.96   0.00   0.93   0.00   0.00   0.00   0.00   0.07  -0.01
      9:   -0.00   0.00   0.00   0.02   0.01   0.00  99.30   0.64  -0.00   0.02   0.01   0.00   0.04  -0.01
     10:   -0.00   0.00   0.00   0.00   0.01   0.01   0.00   0.64  95.47   2.86   0.09  -0.00   0.79   0.00
     11:   -0.00   0.00  -0.00   0.00   0.00   0.01   0.01   1.42   1.74  90.98   0.04   0.09   5.93  -0.09
     12:   -0.00   0.00   0.00   0.00   0.00   0.00   0.00   0.00   0.02   0.04  97.07   0.62   2.32  -0.01
     13:   -0.00   0.00   0.00   0.00   0.00  -0.00   0.00  -0.01   0.05   0.03   0.20  94.76   4.73   0.00
     14:    0.00   0.00   0.00   0.00   0.00   0.00   0.00  -0.00   0.00   0.01  -0.00  -0.01  -0.07  89.97
     16:    0.00   0.00  -0.00   0.00  -0.00  -0.00   0.00   0.08  -0.00  -0.00   0.03  -0.02   1.77  -0.19
     17:   -0.00   0.00   0.00   0.00   0.00   0.00   0.00   0.11   0.00   0.00   0.05   0.04   2.27   0.23
     67:    0.00  -0.00  -0.00   0.01   0.04   0.89   0.65  95.90   1.04   1.22   0.01   0.01  -0.00   0.00
     68:    0.00  -0.00  -0.01   0.00  -0.00   0.13   0.04   0.14   1.58   5.26   2.59   4.37  80.98   0.06
     69:    0.00  -0.00  -0.01  -0.04  -0.00  -0.00  -0.03   0.00   0.00  -0.51  -0.08   0.09   0.06   9.85


 Summation over all MOs, multiplied by occupation: Total SFO Gross Populations in this Irrep
 ===========================================================================================

     2.00    2.00    2.00    2.00    2.00    2.00    2.00    2.00    2.00    1.98    1.88    0.00
     0.00    0.00    0.00    0.00    0.00    0.00   -0.00    0.00    0.00    0.00    0.00   -0.00
     0.00    0.00    0.00    0.00    0.00   -0.00   -0.00    0.00   -0.00   -0.00   -0.00   -0.00
     0.00   -0.00    0.00   -0.00   -0.00    0.00   -0.00    0.00    0.00   -0.00   -0.00    0.00
    -0.00    0.00    0.00   -0.00    0.00    0.00    0.00   -0.00    0.00    0.00   -0.00    0.00
    -0.00   -0.00   -0.00   -0.00   -0.00    0.00    1.99    0.14   -0.01   -0.00    0.00    0.00
     0.00    0.00    0.00    0.00   -0.00    0.00    0.00    0.00



 List of all MOs, ordered by energy, with the most significant SFO gross populations
 ===================================================================================

 Each percentage contribution in the table below corresponds to the indicated SFO.
 In general, a SFO may be a linear combination of several Fragment Orbitals on the same,
 or on symmetry-related Fragments. Only the first 'member' of such a combination is
 specified here. A full definition of all SFOs is given in an earlier part of the output.
 The numbering of the SFOs in this table does NOT include the Core Orbitals, and starts
 from one for each symmetry representation, as in the SFO definition list earlier.

       E(eV)  Occ       MO           %     SFO (first member)   E(eV)  Occ   Fragment
 -------------------------------------------------------------------------------------

     -14.749  2.00    12 A1        95.24%     9 A1            -14.279  2.00     1 1
                                    2.47%     4 A1            -13.979  2.00     2 2
                                    1.98%     5 A1             -9.009  2.00     2 2
     -14.289  2.00     6 E1:1     100.02%     6 E1:1          -13.895  2.00     1 1
                                   -0.04%     3 E1:1            4.276  0.00     2 2
     -14.289  2.00     6 E1:2     100.02%     6 E1:2          -13.895  2.00     1 1
                                   -0.04%     3 E1:2            4.276  0.00     2 2
     -13.429  2.00    13 A1        83.13%     4 A1            -13.979  2.00     2 2
                                    5.21%     5 A1             -9.009  2.00     2 2
                                    5.20%    10 A1            -11.745  2.00     1 1
                                    3.85%     9 A1            -14.279  2.00     1 1
                                    2.20%    12 A1             -6.268  2.00     1 1
     -12.198  2.00    14 A1        87.11%    10 A1            -11.745  2.00     1 1
                                    8.69%     4 A1            -13.979  2.00     2 2
                                    4.11%     5 A1             -9.009  2.00     2 2
     -11.848  2.00     7 E1:1      99.95%     7 E1:1          -11.451  2.00     1 1
                                    0.04%     1 E1:1          -11.516  2.00     2 2
     -11.848  2.00     7 E1:2      99.95%     7 E1:2          -11.451  2.00     1 1
                                    0.04%     1 E1:2          -11.516  2.00     2 2
     -11.834  2.00    15 A1        98.44%    11 A1            -11.446  2.00     1 1
                                    0.69%     4 A1            -13.979  2.00     2 2
     -11.739  2.00     8 E1:1      98.96%     8 E1:1          -11.344  2.00     1 1
                                    0.89%     1 E1:1          -11.516  2.00     2 2
     -11.739  2.00     8 E1:2      98.96%     8 E1:2          -11.344  2.00     1 1
                                    0.89%     1 E1:2          -11.516  2.00     2 2
     -11.641  2.00     1 A2       100.00%     1 A2            -11.247  2.00     1 1
     -11.288  2.00     9 E1:1      99.30%     9 E1:1          -10.811  2.00     1 1
                                    0.65%     1 E1:1          -11.516  2.00     2 2
     -11.288  2.00     9 E1:2      99.30%     9 E1:2          -10.811  2.00     1 1
                                    0.65%     1 E1:2          -11.516  2.00     2 2
     -10.752  2.00    10 E1:1      95.90%     1 E1:1          -11.516  2.00     2 2
                                    1.42%    11 E1:1           -5.615  2.00     1 1
     -10.752  2.00    10 E1:2      95.90%     1 E1:2          -11.516  2.00     2 2
                                    1.42%    11 E1:2           -5.615  2.00     1 1
     -10.427  2.00    16 A1        67.49%     5 A1             -9.009  2.00     2 2
                                   18.98%    12 A1             -6.268  2.00     1 1
                                    6.87%    10 A1            -11.745  2.00     1 1
                                    4.85%     4 A1            -13.979  2.00     2 2
                                    1.05%    11 A1            -11.446  2.00     1 1
      -7.382  2.00    11 E1:1      95.47%    10 E1:1           -6.652  2.00     1 1
                                    1.74%    11 E1:1           -5.615  2.00     1 1
                                    1.58%     2 E1:1           -2.104  0.00     2 2
                                    1.04%     1 E1:1          -11.516  2.00     2 2
      -7.382  2.00    11 E1:2      95.47%    10 E1:2           -6.652  2.00     1 1
                                    1.74%    11 E1:2           -5.615  2.00     1 1
                                    1.58%     2 E1:2           -2.104  0.00     2 2
                                    1.04%     1 E1:2          -11.516  2.00     2 2
      -6.395  2.00    12 E1:1      90.98%    11 E1:1           -5.615  2.00     1 1
                                    5.26%     2 E1:1           -2.104  0.00     2 2
                                    2.86%    10 E1:1           -6.652  2.00     1 1
                                    1.22%     1 E1:1          -11.516  2.00     2 2
      -6.395  2.00    12 E1:2      90.98%    11 E1:2           -5.615  2.00     1 1
                                    5.26%     2 E1:2           -2.104  0.00     2 2
                                    2.86%    10 E1:2           -6.652  2.00     1 1
                                    1.22%     1 E1:2          -11.516  2.00     2 2
      -5.969  2.00    17 A1        78.66%    12 A1             -6.268  2.00     1 1
                                   20.47%     5 A1             -9.009  2.00     2 2
      -2.394  0.00    13 E1:1      97.07%    12 E1:1           -1.928  0.00     1 1
                                    2.59%     2 E1:1           -2.104  0.00     2 2
      -2.394  0.00    13 E1:2      97.07%    12 E1:2           -1.928  0.00     1 1
                                    2.59%     2 E1:2           -2.104  0.00     2 2
      -2.142  0.00    14 E1:1      94.76%    13 E1:1           -1.691  0.00     1 1
                                    4.37%     2 E1:1           -2.104  0.00     2 2
      -2.142  0.00    14 E1:2      94.76%    13 E1:2           -1.691  0.00     1 1
                                    4.37%     2 E1:2           -2.104  0.00     2 2
      -1.907  0.00     2 A2       100.00%     2 A2             -1.502  0.00     1 1
      -1.291  0.00    15 E1:1      80.98%     2 E1:1           -2.104  0.00     2 2
                                    5.93%    11 E1:1           -5.615  2.00     1 1
                                    4.73%    13 E1:1           -1.691  0.00     1 1
                                    2.32%    12 E1:1           -1.928  0.00     1 1
                                    2.27%    17 E1:1            7.898  0.00     1 1
                                    1.77%    16 E1:1            4.956  0.00     1 1
      -1.291  0.00    15 E1:2      80.98%     2 E1:2           -2.104  0.00     2 2
                                    5.93%    11 E1:2           -5.615  2.00     1 1
                                    4.73%    13 E1:2           -1.691  0.00     1 1
                                    2.32%    12 E1:2           -1.928  0.00     1 1
                                    2.27%    17 E1:2            7.898  0.00     1 1
                                    1.77%    16 E1:2            4.956  0.00     1 1
       2.026  0.00    16 E1:1      89.97%    14 E1:1            2.396  0.00     1 1
                                    9.85%     3 E1:1            4.276  0.00     2 2
       2.026  0.00    16 E1:2      89.97%    14 E1:2            2.396  0.00     1 1
                                    9.85%     3 E1:2            4.276  0.00     2 2



 =======================================================================
 Electrostatic potential at the Nuclei due to electrons and other nuclei
 =======================================================================
  
         Atom                  Potential
         ----                  ---------
     1)   Ni                128.63039510
     2)   C                  14.66504365
     3)   O                  22.26260670
     4)   C                  14.75498965
     5)   O                  22.31248008
     6)   C                  14.66504777
     7)   O                  22.26288806
     8)   C                  14.66504777
     9)   O                  22.26288806
 
 
 ========================
 No memory problems found
 ========================
 
 Maximum number of active allocate calls:         916
 
 *******************************************************************************

                             A D F   E X I T
 NORMAL TERMINATION



 =================
 Timing Statistics
 =================
  
 Total Used :                     CPU=       16.73      System=        0.38     Elapsed=       17.22

 Calls  Section                     ( Mean, Percentage )
 ---------------------------------------------------------------------------------------------------
     3  ><      ................      0.00    0.01             0.00    0.00             0.00    0.01
     1  INIT    ................      0.48    2.87             0.03    7.67             0.51    2.98
     1  GEOMET  ................      0.05    0.32             0.01    1.59             0.06    0.37
     1  FRAGM   ................      0.02    0.13             0.01    3.17             0.05    0.31
     1  INPUTA  ................      0.00    0.00             0.00    0.00             0.00    0.00
     1  ATDEN   ................      0.01    0.04             0.00    0.26             0.01    0.05
     1  MAINSY  ................      0.02    0.10             0.00    0.53             0.03    0.15
     1  SYMFIT  ................      0.00    0.01             0.00    0.00             0.00    0.01
     1  CORORT  ................      0.00    0.00             0.00    0.00             0.00    0.00
     1  SYMORB  ................      0.00    0.02             0.00    0.26             0.00    0.03
     1  CLSMAT  ................      0.01    0.06             0.00    0.26             0.01    0.07
     1  ORTHON  ................      0.01    0.07             0.00    0.53             0.01    0.08
     1  GENPT   ................      0.20    1.20             0.00    1.32             0.21    1.20
     1  PTBAS   ................      0.16    0.93             0.01    2.65             0.17    0.96
    16  FOCKY   ................      0.34   32.33             0.00    7.14             0.34   31.63
    16  FOCKTR  ................      0.00    0.38             0.00    0.26             0.00    0.44
    16  SDIIS   ................      0.00    0.44             0.00    2.12             0.00    0.42
     1  COREPS  ................      0.26    1.58             0.00    0.00             0.27    1.57
     1  TOTEN   ................      1.00    5.96             0.01    2.38             1.01    5.85
     1  POPAN   ................      0.01    0.05             0.00    0.00             0.01    0.08
     1  DEBYE   ................      0.01    0.05             0.00    0.26             0.01    0.06
     1  INPUTE  ................      0.00    0.00             0.00    0.00             0.00    0.01
     1  SYMORE  ................      0.00    0.01             0.00    0.00             0.00    0.01
     1  METS    ................      0.00    0.00             0.00    0.26             0.00    0.00
     1  CETS    ................      0.01    0.08             0.00    0.53             0.03    0.18
     1  POPUL   ................      8.89   53.17             0.25   67.20             9.18   53.31
     1  EXIT PROCEDURE .........      0.03    0.19             0.01    1.59             0.04    0.23


 Currently Open Files (EXIT00)
 ====================

 Unit    Access Format  Status   Type       Ident (file)
 -------------------------------------------------------
   3      SEQ    FORM   TRANSP  NORMAL      LOGFILE
                                          ( logfile )


 Buffered I/O statistics
 =======================
 Memory available:                     67108864
 Number of records fitting in memory:     16131
 Input :   1.1% of                       100373  *4k bytes
 Output:  12.5% of                         9053  *4k bytes
 Records from serial files evicted:           0
                    others evicted:           0
 Hash table lookups:     294872 with          0 conflicts (  0.00%)

 ***************************************************************************************************
 (LOGFILE)
 <May16-2019> <17:26:00>  ADF 2017  RunTime: May16-2019 17:26:00  Nodes: 1  Procs: 12
 <May16-2019> <17:26:01>  *** (NO TITLE) ***
 <May16-2019> <17:26:01>  RunType   : SINGLE POINT
 <May16-2019> <17:26:01>  Net Charge: 0 (Nuclei minus Electrons)
 <May16-2019> <17:26:01>  Symmetry  : C(3V)
 <May16-2019> <17:26:01>  >>>> FRAGM
  Coordinates
    Atom         X           Y           Z   (Angstrom)
    1.Ni        0.000000    0.000000    0.000000
    2.C        -1.750704    0.000000   -0.618967
    3.O        -2.835077    0.000000   -1.002351
    4.C         0.000000    0.000000    1.856902
    5.O         0.000000    0.000000    3.007053
    6.C         0.875352    1.516154   -0.618967
    7.O         1.417538    2.455249   -1.002351
    8.C         0.875352   -1.516154   -0.618967
    9.O         1.417538   -2.455249   -1.002351
 <May16-2019> <17:26:01>  >>>> CORORT
 <May16-2019> <17:26:01>  >>>> CLSMAT
 <May16-2019> <17:26:01>  >>>> ORTHON
 <May16-2019> <17:26:01>  >>>> GENPT
 <May16-2019> <17:26:01>  Block Length= 128
 <May16-2019> <17:26:01>  >>>> PTBAS
 <May16-2019> <17:26:01>  >>>> CYCLE
 <May16-2019> <17:26:02>              |Error|         MaxErr       Wt(A-DIIS)
 <May16-2019> <17:26:02>      1      2.44221615      1.64408347
 <May16-2019> <17:26:02>      2      1.45826061      0.44292372    100.0
 <May16-2019> <17:26:02>      3      1.42652625      0.32321738    100.0
 <May16-2019> <17:26:03>      4      0.93921296      0.23667959    100.0
 <May16-2019> <17:26:03>      5      0.13865762      0.02201512     21.2
 <May16-2019> <17:26:03>      6      0.20044627      0.04379267    100.0
 <May16-2019> <17:26:04>      7      0.65453073      0.14169513    100.0
 <May16-2019> <17:26:04>      8      0.18319972      0.03631791    100.0
 <May16-2019> <17:26:04>      9      0.15054876      0.03222569     31.5
 <May16-2019> <17:26:05>     10      0.03566192      0.00710754      6.2
 <May16-2019> <17:26:05>     11      0.00310377      0.00093603      0.0
 <May16-2019> <17:26:05>     12      0.00016939      0.00005981      0.0
 <May16-2019> <17:26:06>     13      0.00010224      0.00002222      0.0
 <May16-2019> <17:26:06>     14      0.00000765      0.00000160      0.0
 <May16-2019> <17:26:06>     15      0.00000070      0.00000015      0.0
 <May16-2019> <17:26:06>  SCF converged
 <May16-2019> <17:26:07>     16      0.00000006      0.00000001      0.0
 <May16-2019> <17:26:07>  >>>> TOTEN
 <May16-2019> <17:26:08>  >>>> POPAN
 <May16-2019> <17:26:08>  >>>> DEBYE
 <May16-2019> <17:26:08>  >>>> AMETS
 <May16-2019> <17:26:17>   Bond Energy          -0.00382546 a.u.
 <May16-2019> <17:26:17>   Bond Energy          -0.10409615 eV
 <May16-2019> <17:26:17>   Bond Energy          -2.40       kcal/mol
 <May16-2019> <17:26:17>  >>>> POPUL
 <May16-2019> <17:26:17>  NORMAL TERMINATION
 <May16-2019> <17:26:17>  END
