
Create H   file=TZ2P-H
XC
  GGA blyp
  DISPERSION Grimme3 BJDAMP
End
End Input

 *******************************************************************************
 *                                                                             *
 *  -------------------------------------                                      *
 *   Amsterdam Density Functional  (ADF)         2017                          *
 *  -------------------------------------                                      *
 *                                               r58813 2017-04-12             *
 *                                                                             *
 *                                                                             *
 *                              =================                              *
 *                              |               |                              *
 *                              |     A D F     |                              *
 *                              |               |                              *
 *                              =================                              *
 *                                                                             *
 *                                                                             *
 *   Online information and documentation:  https://www.scm.com/support/       *
 *   E-mail:  support@scm.com   info@scm.com                                   *
 *                                                                             *
 *   Scientific publications using ADF results must be properly referenced     *
 *   See the User Manuals (or the web site) for recommended citations          *
 *   The terms and conditions of the End User License Agreement apply to       *
 *   the use of ADF, https://www.scm.com/license-terms/                        *
 *                                                                             *
 **********************  x86_64_linux_intel / intelmpi  ************************
 
 Licensed to: VU/FEW (+ SARA) / ALGEMEEN / Amsterdam / THE NETHERLANDS
 SCM User ID: u7668
  
 ADF 2017  RunTime: May09-2019 17:12:33  Nodes: 1  Procs: 1

 Temporary files are created in /local/datastore0/tcst25/189800/kid_0.klfT2k

 Hydrogen (TZ2P)



 ===========================
 A T T A C H E D   F I L E S
 ===========================
  
 CREATE - Data File:    TZ2P-H
                        Hydrogen (TZ2P)



 ===============================
 M O D E L   P A R A M E T E R S
 ===============================
  
 DENSITY FUNCTIONAL POTENTIAL (scf)
    LDA:                               Exchange only                           == Not Default ==
    Gradient Corrections:              Becke88 LYP                             == Not Default ==

 SPIN  (restricted / unrestr.)
    Molecule:                          Restricted                               

 OTHER ASPECTS
    Relativistic Corrections:          ---                                      

    Nuclear Charge Density Model:      Point Charge Nuclei                      
    Core Treatment:                    Frozen Orbital(s)                        

    Hyperfine or Zeeman Interaction:   ---                                      

 Settings for Grimme 3 dispersion correction

      damping                        BJ
      s6                          1.000
      a1                          0.430
      s8                          2.700
      a2                          4.236

 Other (technical) parameters

      alpha                      14.000
      version                         4
 



 =====================================
 S Y M M E T R Y ,   E L E C T R O N S
 =====================================
  
 Symmetry: ATOM

 Irreducible Representations, including subspecies
 -------------------------------------------------
 S
 P:x  P:y  P:z
 D:z2  D:x2-y2  D:xy  D:xz  D:yz
 F:z3  F:z  F:xyz  F:z2x  F:z2y  F:x  F:y


 Configuration of Valence Electrons
 ==================================

          Occupation Numbers
          -------------------------------------------------
 S        1
 P        0
 D        0
 F        0
          -------------------------------------------------

 Total:   1

 Net Charge: 0 (Nuclei minus Electrons)

 Preset values for MO occupations will be applied through SCF cycle no. 1000000
 Thereafter, the program will assign electrons to MOs that are spatially
 similar to the occupied MOs in a "reference" cycle ("KeepOrbitals").
 The reference cycle is always the PREVIOUS cycle: it will evolve with
 the SCF procedure.



 ================================
 (Slater-type)  F U N C T I O N S  ***  (Basis and Fit)  ***
 ================================
  

 Atom Type    1  (H)
 ==============

 Valence Basis Sets:   5
 -----------------------
   1 S    0.690000
   1 S    0.920000
   1 S    1.580000
   2 P    1.250000
   3 D    2.500000


 BAS: List of all Elementary Cartesian Basis Functions
 =====================================================

 The numbering in the list below (to the right of the function characteristics) is referred
 to in print-outs of MO eigenvectors and Mulliken populations in the BAS representation
 (as contrasted to the SFO representation).

 Notes:
 1. The functions are characterized by a polynomial prefactor (powers of x,y,z and r) and
    an exponential decay factor alpha.
 2. Since the basis sets are specific for an atom TYPE, the individual functions occur on
    all atoms of that type.
 3. The word 'Core' in the left margin signals that it is a Core Function (CF) : not a
    degree of freedom in the valence set, but only used to ensure orthogonalization of
    the other valence basis functions on the frozen Core Orbitals.


 (power of) X  Y  Z  R     Alpha  on Atom
            ==========     =====     ==========

 H                                    1
                                  ---------------------------------------------------------------------------
            0  0  0  0     0.690      1
            0  0  0  0     0.920      2
            0  0  0  0     1.580      3
            1  0  0  0     1.250      4
            0  1  0  0     1.250      5
            0  0  1  0     1.250      6
            2  0  0  0     2.500      7
            1  1  0  0     2.500      8
            1  0  1  0     2.500      9
            0  2  0  0     2.500     10
            0  1  1  0     2.500     11
            0  0  2  0     2.500     12

 Total number of charge fitting functions (nprimf)        50
 Total number of Cartesian basis functions (naos)         12
 Total number of Cartesian core functions  (ncos)          0



 BAS: List of all Elementary Cartesian Basis Functions
 =====================================================

 The numbering in the list below (to the right of the function characteristics) is referred
 to in print-outs of MO eigenvectors and Mulliken populations in the BAS representation
 (as contrasted to the SFO representation).

 Notes:
 1. The functions are characterized by a polynomial prefactor (powers of x,y,z and r) and
    an exponential decay factor alpha.
 2. Since the basis sets are specific for an atom TYPE, the individual functions occur on
    all atoms of that type.
 3. The word 'Core' in the left margin signals that it is a Core Function (CF) : not a
    degree of freedom in the valence set, but only used to ensure orthogonalization of
    the other valence basis functions on the frozen Core Orbitals.


 (power of) X  Y  Z  R     Alpha  on Atom
            ==========     =====     ==========

 H                                    1
                                  ---------------------------------------------------------------------------
            0  0  0  0     0.690      1
            0  0  0  0     0.920      2
            0  0  0  0     1.580      3
            1  0  0  0     1.250      4
            0  1  0  0     1.250      5
            0  0  1  0     1.250      6
            2  0  0  0     2.500      7
            1  1  0  0     2.500      8
            1  0  1  0     2.500      9
            0  2  0  0     2.500     10
            0  1  1  0     2.500     11
            0  0  2  0     2.500     12
1
 ***************************************************************************************************



                                              ***********************
                                              *  T E C H N I C A L  *
                                              ***********************
  



 =============================================================
 P A R A L L E L I Z A T I O N  and  V E C T O R I Z A T I O N
 =============================================================
  
 Nr of parallel processes:                                1
 Maximum vector length in NumInt loops:                 128

 IO buffersize (Mb):                                     64.000000



 =====================
 S C F   U P D A T E S
 =====================
  
 Max. nr. of cycles:                               300
 Convergence criterion:                              0.0000000100
   secondary criterion:                              0.0000000100

 Mix parameter (when DIIS does not apply):           0.2000000000
 Special mix parameter for the first cycle:          1.0000000000
 Mixed ADIIS+DIIS will be used
    Max number of expansion vectors:                10
    Pure ADIIS when Max([F,P]) is above              0.1000000000
    Pure DIIS when Max([F,P]) is below               0.0010000000
 Automatic ElectronSmearing (in case of problematic SCF convergence) disabled



 =================
 P R E C I S I O N  ***  (General: NumInt, NeglectFunctionTails, ...)  ***
 =================
  

 NumInt:           Target precision:                12.0000000000
 -------           Initial precision:               10.0000000000
                   Min. precision (optimization):   10.0000000000

 Neglect Functions:          Basis functions:        0.1000000000E-13
 ------------------          Fit functions:          0.1000000000E-13



 ===========================
 L I N E A R   S C A L I N G
 ===========================
  

 Cut-off radii density fit:                        0.1000000000E-97
 Overlap cut-off criterion AO matrix elements:     0.1000000000E-97
 Cut-offs for Coulomb potential and fitted density:0.1000000000E-97
 Cut-off criterion for Coulomb multipole terms:    0.1000000000E-97
 Progressive Convergence parameter:                 0.000000000    
1
 ***************************************************************************************************



                                            ***************************
                                            *  C O M P U T A T I O N  *
                                            ***************************
  

 Number of elements of the density matrix on this node (used, total):        78        78



 ===========================================
 Numerical Integration : Fuzzy Cells (Becke)
 ===========================================
  
 Becke grid quality: VERYGOOD       
  
 Lebedev angular grid order:             min:  13 max:  41
 Nr. of radial points:                   min:  64 max:  64

 Total nr. of points:         64
 Nr. of blocks:                1
 Block length:                64
 Nr. of dummy points:          0


 Test of Precision of the Numerical Integration Grid
 ===================================================

 Integral of the Total Core Density:                   0.00000000000000



 ========================
 Density Fitting (zlmFit)
 ========================
  
 ZlmFit Fit Quality: VERYGOOD       
  
 Max L-expansion:                        min:   0 max:   0
 Nr. of radial interpolation points:     min: 130 max: 130



 =====
 S C F  ***  ScaSCF  ***
 =====
  

 CYCLE    1
 SCF Error: norm([F,P])=      0.000000000000, max([F,P])=      0.000000000000
 orbitals (Q,E):
 ---------------
 S :1...3            ( 1.00    -0.5000)  ( 0.00    -0.0900)  ( 0.00     1.2939)
 P :1...1            ( 0.00     0.1562)
 D :1...1            ( 0.00     2.2917)

 CYCLE    2
 SCF Error: norm([F,P])=      0.031002856008, max([F,P])=      0.026444239384
 orbitals (Q,E):
 ---------------
 S :1...2            ( 1.00    -0.2236)  ( 0.00     0.0977)
 P :1...1            ( 0.00     0.4190)
 D :1...1            ( 0.00     2.5863)

 CYCLE    3
  SDIIS (wt  0.000):  0.2055  0.7945
 A-DIIS (wt  1.000):  0.0000  1.0000
  DIIS coefficients:  0.0000  1.0000
 SCF Error: norm([F,P])=      0.009580013340, max([F,P])=      0.009328518993
 orbitals (Q,E):
 ---------------
 S :1...2            ( 1.00    -0.2440)  ( 0.00     0.0860)
 P :1...1            ( 0.00     0.4030)
 D :1...1            ( 0.00     2.5655)

 CYCLE    4
  SDIIS (wt  0.987):  0.1949  0.8051
 A-DIIS (wt  0.013):  0.0000  1.0000
  DIIS coefficients:  0.1923  0.8077
 SCF Error: norm([F,P])=      0.002320932075, max([F,P])=      0.002286403159
 orbitals (Q,E):
 ---------------
 S :1...2            ( 1.00    -0.2400)  ( 0.00     0.0880)
 P :1...1            ( 0.00     0.4062)
 D :1...1            ( 0.00     2.5697)

 CYCLE    5
  SDIIS (wt  1.000):  0.0132  0.9868
  DIIS coefficients:  0.0132  0.9868
 SCF Error: norm([F,P])=      0.000031553206, max([F,P])=      0.000029840661
 orbitals (Q,E):
 ---------------
 S :1...2            ( 1.00    -0.2400)  ( 0.00     0.0880)
 P :1...1            ( 0.00     0.4062)
 D :1...1            ( 0.00     2.5697)

 CYCLE    6
  SDIIS (wt  1.000): -0.0314  1.0314
  DIIS coefficients: -0.0314  1.0314
 SCF Error: norm([F,P])=      0.000000959925, max([F,P])=      0.000000913629
 orbitals (Q,E):
 ---------------
 S :1...2            ( 1.00    -0.2400)  ( 0.00     0.0880)
 P :1...1            ( 0.00     0.4062)
 D :1...1            ( 0.00     2.5697)

 CYCLE    7
  SDIIS (wt  1.000):  0.0045  0.9955
  DIIS coefficients:  0.0045  0.9955
 SCF Error: norm([F,P])=      0.000000004387, max([F,P])=      0.000000004212
 orbitals (Q,E):
 ---------------
 S :1...2            ( 1.00    -0.2400)  ( 0.00     0.0880)
 P :1...1            ( 0.00     0.4062)
 D :1...1            ( 0.00     2.5697)

 SCF CONVERGED

 CYCLE    8
1
 ***************************************************************************************************



                                                *******************
                                                *  R E S U L T S  *
                                                *******************
  
 *** Setting up for NEW gradients in Focky
 *** Using FIT density in Focky

 Orbital Energies, per Irrep and Spin:
 ======================================
                        Occup              E (au)              E (eV)       Diff (eV) with prev. cycle
                        -----      --------------------        ------       --------------------------
 S
               1        1.000     -0.24003723730291E+00        -6.532              -1.36E-09
               2        0.000      0.87974178151413E-01         2.394
               3        0.000      0.15021841144445E+01        40.877
 P
               1        0.000      0.40615190499536E+00        11.052
 D
               1        0.000      0.25696970808913E+01        69.925


 Partially Occupied:
               1 S                -0.24003723730291E+00
  
 LUMO :        2 S                 0.87974178151413E-01
  


 Orbital Energies, all Irreps
 ========================================

 Irrep        no.  (spin)   Occup              E (au)                E (eV)
 ---------------------------------------------------------------------------
 S             1             1.00       -0.24003723730291E+00        -6.5317
 S             2             0.00        0.87974178151413E-01         2.3939
 P             1             0.00        0.40615190499536E+00        11.0520
 S             3             0.00        0.15021841144445E+01        40.8765
 D             1             0.00        0.25696970808913E+01        69.9250


 All Electron Calculation, thus no Orbital Energies of the Core Orbitals are calculated



 =======================================
 M U L L I K E N   P O P U L A T I O N S
 =======================================
  
 The survey below gives for each atom:
 a) the total charge (Z minus electrons)
 b) the net spin polarization (nr of electrons spin-A minus spin-B)
 c) for each spin the atomic electron valence density (integrated) per L-value.

 Atom              Charge    Spin density          S         P         D         F
 ----              ------    ------------       ------    ------    ------    ------
 1 H              -0.0000                       1.0000    0.0000    0.0000    0.0000

 Populations of individual BAS functions
 ----------------------------------------
 1 H            0.2458  0.6250  0.1292  0.0000  0.0000  0.0000  0.0000  0.0000  0.0000  0.0000
                0.0000  0.0000

 Gross Charges per Atom (Z minus electrons)
 ==========================================
            -0.0000
 Net Total: -0.00000000



 =======================================================================
 Electrostatic potential at the Nuclei due to electrons and other nuclei
 =======================================================================
  
         Atom                  Potential
         ----                  ---------
     1)   H                   0.94873442
 
 
 ========================
 No memory problems found
 ========================
 
 Maximum number of active allocate calls:         363
 
 *******************************************************************************

                             A D F   E X I T
 NORMAL TERMINATION



 =================
 Timing Statistics
 =================
  
 Total Used :                     CPU=        0.44      System=        0.03     Elapsed=        0.47

 Calls  Section                     ( Mean, Percentage )
 ---------------------------------------------------------------------------------------------------
     3  ><      ................      0.00    0.00             0.00    2.86             0.00    0.17
     1  INIT    ................      0.01    2.51             0.02   62.86             0.03    7.28
     1  GEOMET  ................      0.01    2.28             0.00    8.57             0.01    2.78
     1  INPUTA  ................      0.00    0.46             0.00    2.86             0.00    0.62
     1  MAINSY  ................      0.01    1.37             0.00    2.86             0.01    1.56
     1  SYMFIT  ................      0.00    0.23             0.00    0.00             0.00    0.25
     1  CORORT  ................      0.00    0.23             0.00    0.00             0.00    0.09
     1  SYMORB  ................      0.00    0.00             0.00    2.86             0.00    0.28
     1  CLSMAT  ................      0.01    1.60             0.00    0.00             0.01    1.45
     1  ORTHON  ................      0.00    0.46             0.00    2.86             0.00    0.54
     1  GENPT   ................      0.01    3.20             0.00    0.00             0.01    3.08
     1  PTBAS   ................      0.01    1.37             0.00    0.00             0.01    1.27
     8  FOCKY   ................      0.04   66.67             0.00    5.72             0.04   62.08
     8  FOCKTR  ................      0.00    2.05             0.00    2.85             0.00    1.92
     8  SDIIS   ................      0.00    4.57             0.00    0.00             0.00    4.22
     1  COREPS  ................      0.02    5.48             0.00    0.00             0.02    5.06
     1  POPAN   ................      0.00    1.14             0.00    2.86             0.01    1.41
     1  DEBYE   ................      0.00    0.23             0.00    0.00             0.00    0.17
     1  EXIT PROCEDURE .........      0.03    6.16             0.00    2.86             0.03    5.77


 Currently Open Files (EXIT00)
 ====================

 Unit    Access Format  Status   Type       Ident (file)
 -------------------------------------------------------
   3      SEQ    FORM   TRANSP  NORMAL      LOGFILE
                                          ( logfile )


 Buffered I/O statistics
 =======================
 Memory available:                     67108864
 Number of records fitting in memory:     16131
 Input :   0.2% of                        17471  *4k bytes
 Output:  15.2% of                         1045  *4k bytes
 Records from serial files evicted:           0
                    others evicted:           0
 Hash table lookups:      44663 with          0 conflicts (  0.00%)

 ***************************************************************************************************
 (LOGFILE)
 <May09-2019> <17:12:33>  ADF 2017  RunTime: May09-2019 17:12:33  Nodes: 1  Procs: 1
 <May09-2019> <17:12:33>  Hydrogen (TZ2P)
 <May09-2019> <17:12:33>  RunType   : CREATE
 <May09-2019> <17:12:33>  Net Charge: 0 (Nuclei minus Electrons)
 <May09-2019> <17:12:33>  Symmetry  : ATOM
  Coordinates
    Atom         X           Y           Z   (Angstrom)
    1.H         0.000000    0.000000    0.000000
 <May09-2019> <17:12:33>  >>>> CORORT
 <May09-2019> <17:12:33>  >>>> CLSMAT
 <May09-2019> <17:12:33>  >>>> ORTHON
 <May09-2019> <17:12:33>  >>>> GENPT
 <May09-2019> <17:12:33>  Block Length=  64
 <May09-2019> <17:12:33>  >>>> PTBAS
 <May09-2019> <17:12:33>  >>>> CYCLE
 <May09-2019> <17:12:33>              |Error|         MaxErr       Wt(A-DIIS)
 <May09-2019> <17:12:33>      1      0.00000000      0.00000000
 <May09-2019> <17:12:33>      2      0.03100286      0.02644424
 <May09-2019> <17:12:33>      3      0.00958001      0.00932852    100.0
 <May09-2019> <17:12:33>      4      0.00232093      0.00228640      1.3
 <May09-2019> <17:12:34>      5      0.00003155      0.00002984      0.0
 <May09-2019> <17:12:34>      6      0.00000096      0.00000091      0.0
 <May09-2019> <17:12:34>      7      0.00000000      0.00000000      0.0
 <May09-2019> <17:12:34>  SCF converged
 <May09-2019> <17:12:34>      8      0.00000000      0.00000000      0.0
 <May09-2019> <17:12:34>  >>>> POPAN
 <May09-2019> <17:12:34>  >>>> DEBYE
 <May09-2019> <17:12:34>  NORMAL TERMINATION
 <May09-2019> <17:12:34>  END

Create Cl   file=TZ2P-Cl
XC
  GGA blyp
  DISPERSION Grimme3 BJDAMP
End
End Input

 *******************************************************************************
 *                                                                             *
 *  -------------------------------------                                      *
 *   Amsterdam Density Functional  (ADF)         2017                          *
 *  -------------------------------------                                      *
 *                                               r58813 2017-04-12             *
 *                                                                             *
 *                                                                             *
 *                              =================                              *
 *                              |               |                              *
 *                              |     A D F     |                              *
 *                              |               |                              *
 *                              =================                              *
 *                                                                             *
 *                                                                             *
 *   Online information and documentation:  https://www.scm.com/support/       *
 *   E-mail:  support@scm.com   info@scm.com                                   *
 *                                                                             *
 *   Scientific publications using ADF results must be properly referenced     *
 *   See the User Manuals (or the web site) for recommended citations          *
 *   The terms and conditions of the End User License Agreement apply to       *
 *   the use of ADF, https://www.scm.com/license-terms/                        *
 *                                                                             *
 **********************  x86_64_linux_intel / intelmpi  ************************
 
 Licensed to: VU/FEW (+ SARA) / ALGEMEEN / Amsterdam / THE NETHERLANDS
 SCM User ID: u7668
  
 ADF 2017  RunTime: May09-2019 17:12:34  Nodes: 1  Procs: 1

 Temporary files are created in /local/datastore0/tcst25/189800/kid_0.vj1nyS

 Chlorine (TZ2P)



 ===========================
 A T T A C H E D   F I L E S
 ===========================
  
 CREATE - Data File:    TZ2P-Cl
                        Chlorine (TZ2P)



 ===============================
 M O D E L   P A R A M E T E R S
 ===============================
  
 DENSITY FUNCTIONAL POTENTIAL (scf)
    LDA:                               Exchange only                           == Not Default ==
    Gradient Corrections:              Becke88 LYP                             == Not Default ==

 SPIN  (restricted / unrestr.)
    Molecule:                          Restricted                               

 OTHER ASPECTS
    Relativistic Corrections:          ---                                      

    Nuclear Charge Density Model:      Point Charge Nuclei                      
    Core Treatment:                    Frozen Orbital(s)                        

    Hyperfine or Zeeman Interaction:   ---                                      

 Settings for Grimme 3 dispersion correction

      damping                        BJ
      s6                          1.000
      a1                          0.430
      s8                          2.700
      a2                          4.236

 Other (technical) parameters

      alpha                      14.000
      version                         4
 



 =====================================
 S Y M M E T R Y ,   E L E C T R O N S
 =====================================
  
 Symmetry: ATOM

 Irreducible Representations, including subspecies
 -------------------------------------------------
 S
 P:x  P:y  P:z
 D:z2  D:x2-y2  D:xy  D:xz  D:yz
 F:z3  F:z  F:xyz  F:z2x  F:z2y  F:x  F:y


 Configuration of Valence Electrons
 ==================================

          Occupation Numbers
          -------------------------------------------------
 S        3*2
 P        6 5
 D        0
 F        0
          -------------------------------------------------

 Total:   17

 Net Charge: 0 (Nuclei minus Electrons)

 Preset values for MO occupations will be applied through SCF cycle no. 1000000
 Thereafter, the program will assign electrons to MOs that are spatially
 similar to the occupied MOs in a "reference" cycle ("KeepOrbitals").
 The reference cycle is always the PREVIOUS cycle: it will evolve with
 the SCF procedure.



 ================================
 (Slater-type)  F U N C T I O N S  ***  (Basis and Fit)  ***
 ================================
  

 Atom Type    1  (Cl)
 ==============

 Valence Basis Sets:  14
 -----------------------
   1 S   20.300000
   1 S   15.250000
   2 S    6.250000
   2 S    4.450000
   2 P    8.850000
   2 P    5.050000
   3 S    3.450000
   3 S    2.300000
   3 S    1.600000
   3 P    3.350000
   3 P    2.050000
   3 P    1.200000
   3 D    2.000000
   4 F    2.000000


 BAS: List of all Elementary Cartesian Basis Functions
 =====================================================

 The numbering in the list below (to the right of the function characteristics) is referred
 to in print-outs of MO eigenvectors and Mulliken populations in the BAS representation
 (as contrasted to the SFO representation).

 Notes:
 1. The functions are characterized by a polynomial prefactor (powers of x,y,z and r) and
    an exponential decay factor alpha.
 2. Since the basis sets are specific for an atom TYPE, the individual functions occur on
    all atoms of that type.
 3. The word 'Core' in the left margin signals that it is a Core Function (CF) : not a
    degree of freedom in the valence set, but only used to ensure orthogonalization of
    the other valence basis functions on the frozen Core Orbitals.


 (power of) X  Y  Z  R     Alpha  on Atom
            ==========     =====     ==========

 Cl                                   1
                                  ---------------------------------------------------------------------------
            0  0  0  0    20.300      1
            0  0  0  0    15.250      2
            0  0  0  1     6.250      3
            0  0  0  1     4.450      4
            1  0  0  0     8.850      5
            0  1  0  0     8.850      6
            0  0  1  0     8.850      7
            1  0  0  0     5.050      8
            0  1  0  0     5.050      9
            0  0  1  0     5.050     10
            0  0  0  2     3.450     11
            0  0  0  2     2.300     12
            0  0  0  2     1.600     13
            1  0  0  1     3.350     14
            0  1  0  1     3.350     15
            0  0  1  1     3.350     16
            1  0  0  1     2.050     17
            0  1  0  1     2.050     18
            0  0  1  1     2.050     19
            1  0  0  1     1.200     20
            0  1  0  1     1.200     21
            0  0  1  1     1.200     22
            2  0  0  0     2.000     23
            1  1  0  0     2.000     24
            1  0  1  0     2.000     25
            0  2  0  0     2.000     26
            0  1  1  0     2.000     27
            0  0  2  0     2.000     28
            3  0  0  0     2.000     29
            2  1  0  0     2.000     30
            2  0  1  0     2.000     31
            1  2  0  0     2.000     32
            1  1  1  0     2.000     33
            1  0  2  0     2.000     34
            0  3  0  0     2.000     35
            0  2  1  0     2.000     36
            0  1  2  0     2.000     37
            0  0  3  0     2.000     38

 Total number of charge fitting functions (nprimf)       106
 Total number of Cartesian basis functions (naos)         38
 Total number of Cartesian core functions  (ncos)          0



 BAS: List of all Elementary Cartesian Basis Functions
 =====================================================

 The numbering in the list below (to the right of the function characteristics) is referred
 to in print-outs of MO eigenvectors and Mulliken populations in the BAS representation
 (as contrasted to the SFO representation).

 Notes:
 1. The functions are characterized by a polynomial prefactor (powers of x,y,z and r) and
    an exponential decay factor alpha.
 2. Since the basis sets are specific for an atom TYPE, the individual functions occur on
    all atoms of that type.
 3. The word 'Core' in the left margin signals that it is a Core Function (CF) : not a
    degree of freedom in the valence set, but only used to ensure orthogonalization of
    the other valence basis functions on the frozen Core Orbitals.


 (power of) X  Y  Z  R     Alpha  on Atom
            ==========     =====     ==========

 Cl                                   1
                                  ---------------------------------------------------------------------------
            0  0  0  0    20.300      1
            0  0  0  0    15.250      2
            0  0  0  1     6.250      3
            0  0  0  1     4.450      4
            1  0  0  0     8.850      5
            0  1  0  0     8.850      6
            0  0  1  0     8.850      7
            1  0  0  0     5.050      8
            0  1  0  0     5.050      9
            0  0  1  0     5.050     10
            0  0  0  2     3.450     11
            0  0  0  2     2.300     12
            0  0  0  2     1.600     13
            1  0  0  1     3.350     14
            0  1  0  1     3.350     15
            0  0  1  1     3.350     16
            1  0  0  1     2.050     17
            0  1  0  1     2.050     18
            0  0  1  1     2.050     19
            1  0  0  1     1.200     20
            0  1  0  1     1.200     21
            0  0  1  1     1.200     22
            2  0  0  0     2.000     23
            1  1  0  0     2.000     24
            1  0  1  0     2.000     25
            0  2  0  0     2.000     26
            0  1  1  0     2.000     27
            0  0  2  0     2.000     28
            3  0  0  0     2.000     29
            2  1  0  0     2.000     30
            2  0  1  0     2.000     31
            1  2  0  0     2.000     32
            1  1  1  0     2.000     33
            1  0  2  0     2.000     34
            0  3  0  0     2.000     35
            0  2  1  0     2.000     36
            0  1  2  0     2.000     37
            0  0  3  0     2.000     38
1
 ***************************************************************************************************



                                              ***********************
                                              *  T E C H N I C A L  *
                                              ***********************
  



 =============================================================
 P A R A L L E L I Z A T I O N  and  V E C T O R I Z A T I O N
 =============================================================
  
 Nr of parallel processes:                                1
 Maximum vector length in NumInt loops:                 128

 IO buffersize (Mb):                                     64.000000



 =====================
 S C F   U P D A T E S
 =====================
  
 Max. nr. of cycles:                               300
 Convergence criterion:                              0.0000000100
   secondary criterion:                              0.0000000100

 Mix parameter (when DIIS does not apply):           0.2000000000
 Special mix parameter for the first cycle:          1.0000000000
 Mixed ADIIS+DIIS will be used
    Max number of expansion vectors:                10
    Pure ADIIS when Max([F,P]) is above              0.1000000000
    Pure DIIS when Max([F,P]) is below               0.0010000000
 Automatic ElectronSmearing (in case of problematic SCF convergence) disabled



 =================
 P R E C I S I O N  ***  (General: NumInt, NeglectFunctionTails, ...)  ***
 =================
  

 NumInt:           Target precision:                12.0000000000
 -------           Initial precision:               10.0000000000
                   Min. precision (optimization):   10.0000000000

 Neglect Functions:          Basis functions:        0.1000000000E-13
 ------------------          Fit functions:          0.1000000000E-13



 ===========================
 L I N E A R   S C A L I N G
 ===========================
  

 Cut-off radii density fit:                        0.1000000000E-97
 Overlap cut-off criterion AO matrix elements:     0.1000000000E-97
 Cut-offs for Coulomb potential and fitted density:0.1000000000E-97
 Cut-off criterion for Coulomb multipole terms:    0.1000000000E-97
 Progressive Convergence parameter:                 0.000000000    
1
 ***************************************************************************************************



                                            ***************************
                                            *  C O M P U T A T I O N  *
                                            ***************************
  

 Number of elements of the density matrix on this node (used, total):       741       741



 ===========================================
 Numerical Integration : Fuzzy Cells (Becke)
 ===========================================
  
 Becke grid quality: VERYGOOD       
  
 Lebedev angular grid order:             min:  13 max:  41
 Nr. of radial points:                   min:  93 max:  93

 Total nr. of points:         93
 Nr. of blocks:                1
 Block length:                93
 Nr. of dummy points:          0


 Test of Precision of the Numerical Integration Grid
 ===================================================

 Integral of the Total Core Density:                   0.00000000000000



 ========================
 Density Fitting (zlmFit)
 ========================
  
 ZlmFit Fit Quality: VERYGOOD       
  
 Max L-expansion:                        min:   0 max:   0
 Nr. of radial interpolation points:     min: 200 max: 200



 =====
 S C F  ***  ScaSCF  ***
 =====
  

 CYCLE    1
 SCF Error: norm([F,P])=      0.000000000000, max([F,P])=      0.000000000000
 orbitals (Q,E):
 ---------------
 S :1...7            ( 2.00  -144.4893)  ( 2.00   -36.0966)  ( 2.00   -16.0338)  ( 0.00    -8.9253)
                     ( 0.00    -5.5262)  ( 0.00    -3.6296)  ( 0.00   175.9783)
 P :1...5            ( 6.00   -36.1179)  ( 5.00   -15.7666)  ( 0.00    -8.4199)  ( 0.00    -4.8064)
                     ( 0.00    -2.9092)
 D :1...1            ( 0.00    -9.3333)
 F :1...1            ( 0.00    -6.5000)

 CYCLE    2
  SDIIS (wt  0.000):  1.0000  0.0000
 A-DIIS (wt  1.000):  0.0000  1.0000
  DIIS coefficients:  0.0000  1.0000
 SCF Error: norm([F,P])=     37.918093115371, max([F,P])=     10.754162001971
 orbitals (Q,E):
 ---------------
 S :1...4            ( 2.00   -86.3665)  ( 2.00    -3.0042)  ( 2.00     0.0879)  ( 0.00     0.9074)
 P :1...3            ( 6.00    -0.5941)  ( 5.00     0.2005)  ( 0.00     1.0624)
 D :1...1            ( 0.00     1.3908)
 F :1...1            ( 0.00     1.7118)

 CYCLE    3
  SDIIS (wt  0.000):  0.2468  0.7532
 A-DIIS (wt  1.000):  0.2184  0.7816
  DIIS coefficients:  0.2184  0.7816
 SCF Error: norm([F,P])=     20.757708249348, max([F,P])=      6.871796656039
 orbitals (Q,E):
 ---------------
 S :1...4            ( 2.00  -105.5772)  ( 2.00   -12.2185)  ( 2.00    -1.9200)  ( 0.00    -0.1982)
 P :1...3            ( 6.00   -10.2793)  ( 5.00    -1.3974)  ( 0.00    -0.0873)
 D :1...1            ( 0.00    -0.4679)
 F :1...1            ( 0.00     0.6062)

 CYCLE    4
  SDIIS (wt  0.000): -0.0788  0.1328  0.9460
 A-DIIS (wt  1.000):  0.0000  0.0000  1.0000
  DIIS coefficients:  0.0000  0.0000  1.0000
 SCF Error: norm([F,P])=      6.021405452047, max([F,P])=      2.061487593708
 orbitals (Q,E):
 ---------------
 S :1...4            ( 2.00   -97.6728)  ( 2.00    -7.4155)  ( 2.00    -0.2425)  ( 0.00     0.4293)
 P :1...3            ( 6.00    -5.1248)  ( 5.00     0.0322)  ( 0.00     0.5151)
 D :1...1            ( 0.00     0.8498)
 F :1...1            ( 0.00     1.4674)

 CYCLE    5
  SDIIS (wt  0.000): -0.0198 -0.0624  0.3895  0.6927
 A-DIIS (wt  1.000):  0.0000  0.0000  0.4691  0.5309
  DIIS coefficients:  0.0000  0.0000  0.4691  0.5309
 SCF Error: norm([F,P])=      4.122826282833, max([F,P])=      1.762338952725
 orbitals (Q,E):
 ---------------
 S :1...4            ( 2.00  -100.7640)  ( 2.00    -9.3467)  ( 2.00    -0.9097)  ( 0.00     0.1217)
 P :1...3            ( 6.00    -7.1584)  ( 5.00    -0.4570)  ( 0.00     0.1672)
 D :1...1            ( 0.00     0.2335)
 F :1...1            ( 0.00     1.0657)

 CYCLE    6
  SDIIS (wt  0.000): -0.0001 -0.0138  0.0424  0.0981  0.8734
 A-DIIS (wt  1.000):  0.0000  0.0000  0.0000  0.0000  1.0000
  DIIS coefficients:  0.0000  0.0000  0.0000  0.0000  1.0000
 SCF Error: norm([F,P])=      0.297134459880, max([F,P])=      0.111907135573
 orbitals (Q,E):
 ---------------
 S :1...4            ( 2.00  -100.6199)  ( 2.00    -9.0705)  ( 2.00    -0.6673)  ( 0.00     0.2275)
 P :1...3            ( 6.00    -6.8928)  ( 5.00    -0.2439)  ( 0.00     0.2570)
 D :1...1            ( 0.00     0.4575)
 F :1...1            ( 0.00     1.2382)

 CYCLE    7
  SDIIS (wt  0.000): -0.0002  0.0003  0.0119 -0.0199  0.3831  0.6249
 A-DIIS (wt  1.000):  0.0000  0.0000  0.0000  0.0000  0.4431  0.5569
  DIIS coefficients:  0.0000  0.0000  0.0000  0.0000  0.4431  0.5569
 SCF Error: norm([F,P])=      0.268270877863, max([F,P])=      0.112251171075
 orbitals (Q,E):
 ---------------
 S :1...4            ( 2.00  -100.8158)  ( 2.00    -9.2442)  ( 2.00    -0.7560)  ( 0.00     0.1940)
 P :1...3            ( 6.00    -7.0691)  ( 5.00    -0.3171)  ( 0.00     0.2236)
 D :1...1            ( 0.00     0.3804)
 F :1...1            ( 0.00     1.1860)

 CYCLE    8
  SDIIS (wt  0.746):  0.0001 -0.0001 -0.0028  0.0035  0.0906  0.1300  0.7787
 A-DIIS (wt  0.254):  0.0000  0.0000  0.0000  0.0000  0.0000  0.0000  1.0000
  DIIS coefficients:  0.0000 -0.0001 -0.0021  0.0026  0.0676  0.0969  0.8350
 SCF Error: norm([F,P])=      0.071559445742, max([F,P])=      0.026187079052
 orbitals (Q,E):
 ---------------
 S :1...4            ( 2.00  -100.7523)  ( 2.00    -9.2108)  ( 2.00    -0.7461)  ( 0.00     0.1973)
 P :1...3            ( 6.00    -7.0328)  ( 5.00    -0.3089)  ( 0.00     0.2267)
 D :1...1            ( 0.00     0.3881)
 F :1...1            ( 0.00     1.1908)

 CYCLE    9
  SDIIS (wt  0.957):  0.0000 -0.0000 -0.0001  0.0003  0.0037 -0.0063  0.1578  0.8445
 A-DIIS (wt  0.043):  0.0000  0.0000  0.0000  0.0000  0.0000  0.0000  0.0000  1.0000
  DIIS coefficients:  0.0000 -0.0000 -0.0001  0.0003  0.0036 -0.0060  0.1511  0.8511
 SCF Error: norm([F,P])=      0.013066268530, max([F,P])=      0.005220141314
 orbitals (Q,E):
 ---------------
 S :1...4            ( 2.00  -100.7623)  ( 2.00    -9.2169)  ( 2.00    -0.7484)  ( 0.00     0.1965)
 P :1...3            ( 6.00    -7.0393)  ( 5.00    -0.3108)  ( 0.00     0.2259)
 D :1...1            ( 0.00     0.3862)
 F :1...1            ( 0.00     1.1896)

 CYCLE   10
  SDIIS (wt  1.000):  0.0000  0.0000 -0.0000 -0.0000  0.0002  0.0011 -0.0030  0.0039  0.9977
  DIIS coefficients:  0.0000  0.0000 -0.0000 -0.0000  0.0002  0.0011 -0.0030  0.0039  0.9977
 SCF Error: norm([F,P])=      0.000485727204, max([F,P])=      0.000202934401
 orbitals (Q,E):
 ---------------
 S :1...4            ( 2.00  -100.7620)  ( 2.00    -9.2166)  ( 2.00    -0.7483)  ( 0.00     0.1965)
 P :1...3            ( 6.00    -7.0390)  ( 5.00    -0.3107)  ( 0.00     0.2259)
 D :1...1            ( 0.00     0.3863)
 F :1...1            ( 0.00     1.1896)

 CYCLE   11
  SDIIS (wt  1.000):  0.0000  0.0000  0.0000  0.0000 -0.0002 -0.0009  0.0045  0.9965
  DIIS coefficients:  0.0000  0.0000  0.0000  0.0000 -0.0002 -0.0009  0.0045  0.9965
 SCF Error: norm([F,P])=      0.000002451023, max([F,P])=      0.000000874872
 orbitals (Q,E):
 ---------------
 S :1...4            ( 2.00  -100.7620)  ( 2.00    -9.2166)  ( 2.00    -0.7483)  ( 0.00     0.1965)
 P :1...3            ( 6.00    -7.0390)  ( 5.00    -0.3107)  ( 0.00     0.2259)
 D :1...1            ( 0.00     0.3863)
 F :1...1            ( 0.00     1.1896)

 CYCLE   12
  SDIIS (wt  1.000):  0.0000  0.0000 -0.0000 -0.0000  0.0001  0.0049  0.9950
  DIIS coefficients:  0.0000  0.0000 -0.0000 -0.0000  0.0001  0.0049  0.9950
 SCF Error: norm([F,P])=      0.000000029116, max([F,P])=      0.000000011194
 orbitals (Q,E):
 ---------------
 S :1...4            ( 2.00  -100.7620)  ( 2.00    -9.2166)  ( 2.00    -0.7483)  ( 0.00     0.1965)
 P :1...3            ( 6.00    -7.0390)  ( 5.00    -0.3107)  ( 0.00     0.2259)
 D :1...1            ( 0.00     0.3863)
 F :1...1            ( 0.00     1.1896)

 CYCLE   13
  SDIIS (wt  1.000):  0.0000 -0.0004  0.0111  0.9893
  DIIS coefficients:  0.0000 -0.0004  0.0111  0.9893
 SCF Error: norm([F,P])=      0.000000001289, max([F,P])=      0.000000000494
 orbitals (Q,E):
 ---------------
 S :1...4            ( 2.00  -100.7620)  ( 2.00    -9.2166)  ( 2.00    -0.7483)  ( 0.00     0.1965)
 P :1...3            ( 6.00    -7.0390)  ( 5.00    -0.3107)  ( 0.00     0.2259)
 D :1...1            ( 0.00     0.3863)
 F :1...1            ( 0.00     1.1896)

 SCF CONVERGED

 CYCLE   14
1
 ***************************************************************************************************



                                                *******************
                                                *  R E S U L T S  *
                                                *******************
  
 *** Setting up for NEW gradients in Focky
 *** Using FIT density in Focky

 Orbital Energies, per Irrep and Spin:
 ======================================
                        Occup              E (au)              E (eV)       Diff (eV) with prev. cycle
                        -----      --------------------        ------       --------------------------
 S
               1        2.000     -0.10076196025470E+03     -2741.872               4.81E-10
               2        2.000     -0.92166234791376E+01      -250.797               4.97E-10
               3        2.000     -0.74829309878317E+00       -20.362               4.14E-10
               4        0.000      0.19650378945434E+00         5.347
               5        0.000      0.20105214794378E+01        54.709
               6        0.000      0.12737820956868E+02       346.614
               7        0.000      0.21467502602049E+03      5841.605
 P
               1        6.000     -0.70390087591571E+01      -191.541               4.91E-10
               2        5.000     -0.31074821072058E+00        -8.456               3.59E-10
               3        0.000      0.22590803353600E+00         6.147
               4        0.000      0.21023976914888E+01        57.209
               5        0.000      0.18828233069566E+02       512.342
 D
               1        0.000      0.38627333037826E+00        10.511
 F
               1        0.000      0.11896264283968E+01        32.371


 Partially Occupied:
               2 P                -0.31074821072058E+00
  
 HOMO :        3 S                -0.74829309878317E+00
 LUMO :        4 S                 0.19650378945434E+00
  


 Orbital Energies, all Irreps
 ========================================

 Irrep        no.  (spin)   Occup              E (au)                E (eV)
 ---------------------------------------------------------------------------
 S             1             2.00       -0.10076196025470E+03     -2741.8724
 S             2             2.00       -0.92166234791376E+01      -250.7971
 P             1             6.00       -0.70390087591571E+01      -191.5412
 S             3             2.00       -0.74829309878317E+00       -20.3621
 P             2             5.00       -0.31074821072058E+00        -8.4559
 S             4             0.00        0.19650378945434E+00         5.3471
 P             3             0.00        0.22590803353600E+00         6.1473
 D             1             0.00        0.38627333037826E+00        10.5110
 F             1             0.00        0.11896264283968E+01        32.3714
 S             5             0.00        0.20105214794378E+01        54.7091
 P             4             0.00        0.21023976914888E+01        57.2092
 S             6             0.00        0.12737820956868E+02       346.6137
 P             5             0.00        0.18828233069566E+02       512.3423
 S             7             0.00        0.21467502602049E+03      5841.6047


 All Electron Calculation, thus no Orbital Energies of the Core Orbitals are calculated



 =======================================
 M U L L I K E N   P O P U L A T I O N S
 =======================================
  
 The survey below gives for each atom:
 a) the total charge (Z minus electrons)
 b) the net spin polarization (nr of electrons spin-A minus spin-B)
 c) for each spin the atomic electron valence density (integrated) per L-value.

 Atom              Charge    Spin density          S         P         D         F
 ----              ------    ------------       ------    ------    ------    ------
 1 Cl              0.0000                       6.0000   11.0000    0.0000    0.0000

 Populations of individual BAS functions
 ----------------------------------------
 1 Cl           0.5041  1.4544  1.7124  0.2493  0.7286  0.7286  0.7286  1.2681  1.2681  1.2681
                0.6256  1.0927  0.3615  0.2681  0.2681  0.2681  1.0016  1.0016  1.0016  0.4002
                0.4002  0.4002  0.0000  0.0000  0.0000  0.0000  0.0000  0.0000  0.0000  0.0000
                0.0000  0.0000  0.0000  0.0000  0.0000  0.0000  0.0000  0.0000

 Gross Charges per Atom (Z minus electrons)
 ==========================================
             0.0000
 Net Total:  0.00000000



 =======================================================================
 Electrostatic potential at the Nuclei due to electrons and other nuclei
 =======================================================================
  
         Atom                  Potential
         ----                  ---------
     1)   Cl                 64.38336388
 
 
 ========================
 No memory problems found
 ========================
 
 Maximum number of active allocate calls:         447
 
 *******************************************************************************

                             A D F   E X I T
 NORMAL TERMINATION



 =================
 Timing Statistics
 =================
  
 Total Used :                     CPU=        0.95      System=        0.04     Elapsed=        0.99

 Calls  Section                     ( Mean, Percentage )
 ---------------------------------------------------------------------------------------------------
     3  ><      ................      0.00    0.11             0.00    0.00             0.00    0.08
     1  INIT    ................      0.02    1.69             0.02   43.90             0.03    3.51
     1  GEOMET  ................      0.01    0.84             0.00   12.19             0.01    1.35
     1  INPUTA  ................      0.00    0.32             0.00    0.00             0.00    0.32
     1  MAINSY  ................      0.01    0.63             0.00    4.88             0.01    0.80
     1  SYMFIT  ................      0.00    0.00             0.00    2.44             0.00    0.12
     1  CORORT  ................      0.00    0.00             0.00    0.00             0.00    0.04
     1  SYMORB  ................      0.00    0.21             0.00    0.00             0.00    0.16
     1  CLSMAT  ................      0.01    0.95             0.00    0.00             0.01    0.93
     1  ORTHON  ................      0.00    0.21             0.00    2.44             0.00    0.30
     1  GENPT   ................      0.02    2.63             0.00    4.88             0.03    2.67
     1  PTBAS   ................      0.01    0.63             0.00    0.00             0.01    0.63
    14  FOCKY   ................      0.05   77.77             0.00   17.07             0.05   74.97
    14  FOCKTR  ................      0.00    1.79             0.00    0.00             0.00    2.00
    14  SDIIS   ................      0.00    4.11             0.00    0.00             0.00    3.87
     1  COREPS  ................      0.04    4.32             0.00    2.44             0.04    4.23
     1  POPAN   ................      0.01    0.95             0.00    0.00             0.01    0.93
     1  DEBYE   ................      0.00    0.11             0.00    0.00             0.00    0.10
     1  EXIT PROCEDURE .........      0.03    2.74             0.00    9.76             0.03    3.00


 Currently Open Files (EXIT00)
 ====================

 Unit    Access Format  Status   Type       Ident (file)
 -------------------------------------------------------
   3      SEQ    FORM   TRANSP  NORMAL      LOGFILE
                                          ( logfile )


 Buffered I/O statistics
 =======================
 Memory available:                     67108864
 Number of records fitting in memory:     16131
 Input :   0.1% of                        29179  *4k bytes
 Output:  12.9% of                         1455  *4k bytes
 Records from serial files evicted:           0
                    others evicted:           0
 Hash table lookups:      75511 with          0 conflicts (  0.00%)

 ***************************************************************************************************
 (LOGFILE)
 <May09-2019> <17:12:33>  ADF 2017  RunTime: May09-2019 17:12:33  Nodes: 1  Procs: 1
 <May09-2019> <17:12:33>  Hydrogen (TZ2P)
 <May09-2019> <17:12:33>  RunType   : CREATE
 <May09-2019> <17:12:33>  Net Charge: 0 (Nuclei minus Electrons)
 <May09-2019> <17:12:33>  Symmetry  : ATOM
  Coordinates
    Atom         X           Y           Z   (Angstrom)
    1.H         0.000000    0.000000    0.000000
 <May09-2019> <17:12:33>  >>>> CORORT
 <May09-2019> <17:12:33>  >>>> CLSMAT
 <May09-2019> <17:12:33>  >>>> ORTHON
 <May09-2019> <17:12:33>  >>>> GENPT
 <May09-2019> <17:12:33>  Block Length=  64
 <May09-2019> <17:12:33>  >>>> PTBAS
 <May09-2019> <17:12:33>  >>>> CYCLE
 <May09-2019> <17:12:33>              |Error|         MaxErr       Wt(A-DIIS)
 <May09-2019> <17:12:33>      1      0.00000000      0.00000000
 <May09-2019> <17:12:33>      2      0.03100286      0.02644424
 <May09-2019> <17:12:33>      3      0.00958001      0.00932852    100.0
 <May09-2019> <17:12:33>      4      0.00232093      0.00228640      1.3
 <May09-2019> <17:12:34>      5      0.00003155      0.00002984      0.0
 <May09-2019> <17:12:34>      6      0.00000096      0.00000091      0.0
 <May09-2019> <17:12:34>      7      0.00000000      0.00000000      0.0
 <May09-2019> <17:12:34>  SCF converged
 <May09-2019> <17:12:34>      8      0.00000000      0.00000000      0.0
 <May09-2019> <17:12:34>  >>>> POPAN
 <May09-2019> <17:12:34>  >>>> DEBYE
 <May09-2019> <17:12:34>  NORMAL TERMINATION
 <May09-2019> <17:12:34>  END
 <May09-2019> <17:12:34>  ADF 2017  RunTime: May09-2019 17:12:34  Nodes: 1  Procs: 1
 <May09-2019> <17:12:34>  Chlorine (TZ2P)
 <May09-2019> <17:12:34>  RunType   : CREATE
 <May09-2019> <17:12:34>  Net Charge: 0 (Nuclei minus Electrons)
 <May09-2019> <17:12:34>  Symmetry  : ATOM
  Coordinates
    Atom         X           Y           Z   (Angstrom)
    1.Cl        0.000000    0.000000    0.000000
 <May09-2019> <17:12:34>  >>>> CORORT
 <May09-2019> <17:12:34>  >>>> CLSMAT
 <May09-2019> <17:12:34>  >>>> ORTHON
 <May09-2019> <17:12:34>  >>>> GENPT
 <May09-2019> <17:12:34>  Block Length=  93
 <May09-2019> <17:12:34>  >>>> PTBAS
 <May09-2019> <17:12:34>  >>>> CYCLE
 <May09-2019> <17:12:34>              |Error|         MaxErr       Wt(A-DIIS)
 <May09-2019> <17:12:34>      1      0.00000000      0.00000000
 <May09-2019> <17:12:34>      2     37.91809312     10.75416200    100.0
 <May09-2019> <17:12:34>      3     20.75770825      6.87179666    100.0
 <May09-2019> <17:12:34>      4      6.02140545      2.06148759    100.0
 <May09-2019> <17:12:34>      5      4.12282628      1.76233895    100.0
 <May09-2019> <17:12:34>      6      0.29713446      0.11190714    100.0
 <May09-2019> <17:12:34>      7      0.26827088      0.11225117    100.0
 <May09-2019> <17:12:34>      8      0.07155945      0.02618708     25.4
 <May09-2019> <17:12:34>      9      0.01306627      0.00522014      4.3
 <May09-2019> <17:12:34>     10      0.00048573      0.00020293      0.0
 <May09-2019> <17:12:35>     11      0.00000245      0.00000087      0.0
 <May09-2019> <17:12:35>     12      0.00000003      0.00000001      0.0
 <May09-2019> <17:12:35>     13      0.00000000      0.00000000      0.0
 <May09-2019> <17:12:35>  SCF converged
 <May09-2019> <17:12:35>     14      0.00000000      0.00000000      0.0
 <May09-2019> <17:12:35>  >>>> POPAN
 <May09-2019> <17:12:35>  >>>> DEBYE
 <May09-2019> <17:12:35>  NORMAL TERMINATION
 <May09-2019> <17:12:35>  END


 Parallel Execution: Process Information
 ==============================================================================
 Rank   Node Name                              NodeID   MyNodeRank  NodeMaster
    0   BAZIS-cn018                               0          0          0
    1   BAZIS-cn018                               0          1         -1
    2   BAZIS-cn018                               0          2         -1
    3   BAZIS-cn018                               0          3         -1
    4   BAZIS-cn018                               0          4         -1
    5   BAZIS-cn018                               0          5         -1
    6   BAZIS-cn018                               0          6         -1
    7   BAZIS-cn018                               0          7         -1
    8   BAZIS-cn018                               0          8         -1
    9   BAZIS-cn018                               0          9         -1
   10   BAZIS-cn018                               0         10         -1
   11   BAZIS-cn018                               0         11         -1
 ==============================================================================


May use up to 30771MB of RAM as shared memory on node 0


XC
  GGA blyp
  DISPERSION Grimme3 BJDAMP
END

SCF
  iterations 250
END

SYMMETRY nosym
CHARGE 0

ZLMFIT
  Quality normal
END

BECKEGRID
  Quality good
End

ATOMS
    1.Cl       -3.903580   -0.149383   -0.058781
    2.H        -2.627414    0.379048    0.729716
END

Fragments
H t21.H
Cl t21.Cl
End
end input

 *******************************************************************************
 *                                                                             *
 *  -------------------------------------                                      *
 *   Amsterdam Density Functional  (ADF)         2017                          *
 *  -------------------------------------                                      *
 *                                               r58813 2017-04-12             *
 *                                                                             *
 *                                                                             *
 *                              =================                              *
 *                              |               |                              *
 *                              |     A D F     |                              *
 *                              |               |                              *
 *                              =================                              *
 *                                                                             *
 *                                                                             *
 *   Online information and documentation:  https://www.scm.com/support/       *
 *   E-mail:  support@scm.com   info@scm.com                                   *
 *                                                                             *
 *   Scientific publications using ADF results must be properly referenced     *
 *   See the User Manuals (or the web site) for recommended citations          *
 *   The terms and conditions of the End User License Agreement apply to       *
 *   the use of ADF, https://www.scm.com/license-terms/                        *
 *                                                                             *
 **********************  x86_64_linux_intel / intelmpi  ************************
 
 Licensed to: VU/FEW (+ SARA) / ALGEMEEN / Amsterdam / THE NETHERLANDS
 SCM User ID: u7668
  
 ADF 2017  RunTime: May09-2019 17:12:35  Nodes: 1  Procs: 12

 Temporary files are created in /local/datastore0/tcst25/189800/kid_0.hCdxkB


Communication costs MPI_COMM_WORLD:      3.855 usec per message,   0.0177 usec per 8-byte item
Communication costs for intra-node:      3.851 usec per message,   0.0178 usec per 8-byte item

 *** (NO TITLE) ***



 ===========================
 A T T A C H E D   F I L E S
 ===========================
  



 ===============================
 M O D E L   P A R A M E T E R S
 ===============================
  
 DENSITY FUNCTIONAL POTENTIAL (scf)
    LDA:                               Exchange only                           == Not Default ==
    Gradient Corrections:              Becke88 LYP                             == Not Default ==

 SPIN  (restricted / unrestr.)
    Molecule:                          Restricted                               
    Fragments:                         Restricted                               

 OTHER ASPECTS
    Relativistic Corrections:          ---                                      

    Nuclear Charge Density Model:      Point Charge Nuclei                      
    Core Treatment:                    Frozen Orbital(s)                        

    Hyperfine or Zeeman Interaction:   ---                                      

 Settings for Grimme 3 dispersion correction

      damping                        BJ
      s6                          1.000
      a1                          0.430
      s8                          2.700
      a2                          4.236

 Other (technical) parameters

      alpha                      14.000
      version                         4
 


 Fragment File(s)
 ----------------
 Cl:
         file : t21.Cl
         jobid: ADF 2017  RunTime: May09-2019 17:12:34  Nodes: 1  Procs: 1
         title: Chlorine (TZ2P)
 H:
         file : t21.H
         jobid: ADF 2017  RunTime: May09-2019 17:12:33  Nodes: 1  Procs: 1
         title: Hydrogen (TZ2P)



                                        ************************************
                                        *  R U N   T Y P E : SINGLE POINT  *
                                        ************************************
  



 ===============
 G E O M E T R Y  ***  Linear Molecule  ***
 ===============
  

 ATOMS
 =====                            X Y Z                    CHARGE
                                (Angstrom)             Nucl     +Core       At.Mass
                       --------------------------    ----------------       -------
    1  Cl             -3.9036   -0.1494   -0.0588     17.00     17.00       34.9689
    2  H              -2.6274    0.3790    0.7297      1.00      1.00        1.0078


 FRAGMENTS
 =========                                     Atoms in this Fragment     Cart. coord.s (Angstrom)
                                               -------------------------------------------------------
    1  Cl                                                1  Cl          -3.9036   -0.1494   -0.0588
    2  H                                                 2  H           -2.6274    0.3790    0.7297


 Interatomic Distance Matrix (Angstrom)
 --------------------------------------

   1)     0.000
   2)     1.590   0.000



 =====================================
 S Y M M E T R Y ,   E L E C T R O N S
 =====================================
  
 Symmetry: NOSYM

 Irreducible Representations, including subspecies
 -------------------------------------------------
 A


 Configuration of Valence Electrons
 ==================================
 ( determined in the SCF procedure )

 Total:   18

 Net Charge: 0 (Nuclei minus Electrons)

 Aufbau principle for MO occupations will be applied through SCF cycle no.     125
 Thereafter, the program will assign electrons to MOs that are spatially
 similar to the occupied MOs in a "reference" cycle ("KeepOrbitals").
 The reference cycle is always the PREVIOUS cycle: it will evolve with
 the SCF procedure.
1
 ***************************************************************************************************



                                      ****************************************
                                      *  B U I L D : (Fragments, Functions)  *
                                      ****************************************
  



 =======
 S F O s  ***  (Symmetrized Fragment Orbitals)  ***
 =======
  
 SFOs are linear combinations of (valence) Fragment Orbitals (FOs), such that the SFOs transform as the
 irreducible representations of the (molecular) symmetry group. Each SFO is therefore characterized by
 an irrep of the molecule and by a few (or only one) generating FOs.
 The SFOs constitute a symmetry-adapted basis for the Fock matrix. The MO eigenvector coefficients in
 this basis provide a direct interpretation of the MOs in terms of Frontier Orbital Theory.

 The SFOs are combined with auxiliary Core Functions (CFs) to ensure orthogonalization on the (frozen)
 Core Orbitals (COs). The Core-orthogonalized SFOs (CSFOs) constitute the true Fock basis.

 The FOs, and hence also the (C)SFOs are combinations of the elementary basis functions (BAS). The basis
 functions that participate in the description of the SFOs depend on the irrep. The indices of the
 involved functions are printed below for each irrep.
 (The complete list of primitive basis functions is printed in another section)

 Total nr. of (C)SFOs (summation over all irreps) :    45

 NOTE: a (C)SFO that is defined as a combination of more than one FO is usually NOT normalized.



                                       === A ===
 Nr. of SFOs :   45
 Cartesian basis functions that participate in this irrep (total number =    50) :
      1     2     3     4    11    12    13     5     8    14
     17    20     6     9    15    18    21     7    10    16
     19    22    23    24    25    26    27    28    29    30
     31    32    33    34    35    36    37    38    39    40
     41    42    43    44    45    46    47    48    49    50

    SFO  (index         Fragment          Generating    Expansion in Fragment Orbitals
  indx  incl.CFs)   Occup   Orb.Energy   FragmentType  Coeff.   Orbital     on Fragment
 --------------------------------------------------------------------------------------
     1       1      2.000    -100.762 au  Cl            1.00      1 S               1
                        (   -2741.872 eV)
     2       2      2.000      -9.217 au  Cl            1.00      2 S               1
                        (    -250.797 eV)
     3       3      2.000      -0.748 au  Cl            1.00      3 S               1
                        (     -20.362 eV)
     4       4       --         0.197 au  Cl            1.00      4 S               1
                        (       5.347 eV)
     5       5       --         2.011 au  Cl            1.00      5 S               1
                        (      54.709 eV)
     6       6       --        12.738 au  Cl            1.00      6 S               1
                        (     346.614 eV)
     7       7       --       214.675 au  Cl            1.00      7 S               1
                        (    5841.605 eV)
     8       8      2.000      -7.039 au  Cl            1.00      1 P:x             1
                        (    -191.541 eV)
     9       9      1.667      -0.311 au  Cl            1.00      2 P:x             1
                        (      -8.456 eV)
    10      10       --         0.226 au  Cl            1.00      3 P:x             1
                        (       6.147 eV)
    11      11       --         2.102 au  Cl            1.00      4 P:x             1
                        (      57.209 eV)
    12      12       --        18.828 au  Cl            1.00      5 P:x             1
                        (     512.342 eV)
    13      13      2.000      -7.039 au  Cl            1.00      1 P:y             1
                        (    -191.541 eV)
    14      14      1.667      -0.311 au  Cl            1.00      2 P:y             1
                        (      -8.456 eV)
    15      15       --         0.226 au  Cl            1.00      3 P:y             1
                        (       6.147 eV)
    16      16       --         2.102 au  Cl            1.00      4 P:y             1
                        (      57.209 eV)
    17      17       --        18.828 au  Cl            1.00      5 P:y             1
                        (     512.342 eV)
    18      18      2.000      -7.039 au  Cl            1.00      1 P:z             1
                        (    -191.541 eV)
    19      19      1.667      -0.311 au  Cl            1.00      2 P:z             1
                        (      -8.456 eV)
    20      20       --         0.226 au  Cl            1.00      3 P:z             1
                        (       6.147 eV)
    21      21       --         2.102 au  Cl            1.00      4 P:z             1
                        (      57.209 eV)
    22      22       --        18.828 au  Cl            1.00      5 P:z             1
                        (     512.342 eV)
    23      23       --         0.386 au  Cl            1.00      1 D:z2            1
                        (      10.511 eV)
    24      24       --         0.386 au  Cl            1.00      1 D:x2-y2         1
                        (      10.511 eV)
    25      25       --         0.386 au  Cl            1.00      1 D:xy            1
                        (      10.511 eV)
    26      26       --         0.386 au  Cl            1.00      1 D:xz            1
                        (      10.511 eV)
    27      27       --         0.386 au  Cl            1.00      1 D:yz            1
                        (      10.511 eV)
    28      28       --         1.190 au  Cl            1.00      1 F:z3            1
                        (      32.371 eV)
    29      29       --         1.190 au  Cl            1.00      1 F:z             1
                        (      32.371 eV)
    30      30       --         1.190 au  Cl            1.00      1 F:xyz           1
                        (      32.371 eV)
    31      31       --         1.190 au  Cl            1.00      1 F:z2x           1
                        (      32.371 eV)
    32      32       --         1.190 au  Cl            1.00      1 F:z2y           1
                        (      32.371 eV)
    33      33       --         1.190 au  Cl            1.00      1 F:x             1
                        (      32.371 eV)
    34      34       --         1.190 au  Cl            1.00      1 F:y             1
                        (      32.371 eV)
    35      35      1.000      -0.240 au  H             1.00      1 S               2
                        (      -6.532 eV)
    36      36       --         0.088 au  H             1.00      2 S               2
                        (       2.394 eV)
    37      37       --         1.502 au  H             1.00      3 S               2
                        (      40.877 eV)
    38      38       --         0.406 au  H             1.00      1 P:x             2
                        (      11.052 eV)
    39      39       --         0.406 au  H             1.00      1 P:y             2
                        (      11.052 eV)
    40      40       --         0.406 au  H             1.00      1 P:z             2
                        (      11.052 eV)
    41      41       --         2.570 au  H             1.00      1 D:z2            2
                        (      69.925 eV)
    42      42       --         2.570 au  H             1.00      1 D:x2-y2         2
                        (      69.925 eV)
    43      43       --         2.570 au  H             1.00      1 D:xy            2
                        (      69.925 eV)
    44      44       --         2.570 au  H             1.00      1 D:xz            2
                        (      69.925 eV)
    45      45       --         2.570 au  H             1.00      1 D:yz            2
                        (      69.925 eV)



 ================================
 (Slater-type)  F U N C T I O N S  ***  (Basis and Fit)  ***
 ================================
  

 Atom Type    1  (Cl)
 ==============

 Valence Basis Sets:  14
 -----------------------
   1 S   20.300000
   1 S   15.250000
   2 S    6.250000
   2 S    4.450000
   2 P    8.850000
   2 P    5.050000
   3 S    3.450000
   3 S    2.300000
   3 S    1.600000
   3 P    3.350000
   3 P    2.050000
   3 P    1.200000
   3 D    2.000000
   4 F    2.000000

 Atom Type    2  (H)
 ==============

 Valence Basis Sets:   5
 -----------------------
   1 S    0.690000
   1 S    0.920000
   1 S    1.580000
   2 P    1.250000
   3 D    2.500000


 BAS: List of all Elementary Cartesian Basis Functions
 =====================================================

 The numbering in the list below (to the right of the function characteristics) is referred
 to in print-outs of MO eigenvectors and Mulliken populations in the BAS representation
 (as contrasted to the SFO representation).

 Notes:
 1. The functions are characterized by a polynomial prefactor (powers of x,y,z and r) and
    an exponential decay factor alpha.
 2. Since the basis sets are specific for an atom TYPE, the individual functions occur on
    all atoms of that type.
 3. The word 'Core' in the left margin signals that it is a Core Function (CF) : not a
    degree of freedom in the valence set, but only used to ensure orthogonalization of
    the other valence basis functions on the frozen Core Orbitals.


 (power of) X  Y  Z  R     Alpha  on Atom
            ==========     =====     ==========

 Cl                                   1
                                  ---------------------------------------------------------------------------
            0  0  0  0    20.300      1
            0  0  0  0    15.250      2
            0  0  0  1     6.250      3
            0  0  0  1     4.450      4
            1  0  0  0     8.850      5
            0  1  0  0     8.850      6
            0  0  1  0     8.850      7
            1  0  0  0     5.050      8
            0  1  0  0     5.050      9
            0  0  1  0     5.050     10
            0  0  0  2     3.450     11
            0  0  0  2     2.300     12
            0  0  0  2     1.600     13
            1  0  0  1     3.350     14
            0  1  0  1     3.350     15
            0  0  1  1     3.350     16
            1  0  0  1     2.050     17
            0  1  0  1     2.050     18
            0  0  1  1     2.050     19
            1  0  0  1     1.200     20
            0  1  0  1     1.200     21
            0  0  1  1     1.200     22
            2  0  0  0     2.000     23
            1  1  0  0     2.000     24
            1  0  1  0     2.000     25
            0  2  0  0     2.000     26
            0  1  1  0     2.000     27
            0  0  2  0     2.000     28
            3  0  0  0     2.000     29
            2  1  0  0     2.000     30
            2  0  1  0     2.000     31
            1  2  0  0     2.000     32
            1  1  1  0     2.000     33
            1  0  2  0     2.000     34
            0  3  0  0     2.000     35
            0  2  1  0     2.000     36
            0  1  2  0     2.000     37
            0  0  3  0     2.000     38

 H                                    2
                                  ---------------------------------------------------------------------------
            0  0  0  0     0.690     39
            0  0  0  0     0.920     40
            0  0  0  0     1.580     41
            1  0  0  0     1.250     42
            0  1  0  0     1.250     43
            0  0  1  0     1.250     44
            2  0  0  0     2.500     45
            1  1  0  0     2.500     46
            1  0  1  0     2.500     47
            0  2  0  0     2.500     48
            0  1  1  0     2.500     49
            0  0  2  0     2.500     50

 Total number of charge fitting functions (nprimf)       156
 Total number of Cartesian basis functions (naos)         50
 Total number of Cartesian core functions  (ncos)          0

1
 ***************************************************************************************************



                                              ***********************
                                              *  T E C H N I C A L  *
                                              ***********************
  



 =============================================================
 P A R A L L E L I Z A T I O N  and  V E C T O R I Z A T I O N
 =============================================================
  
 Nr of parallel processes:                               12
 Maximum vector length in NumInt loops:                 128

 IO buffersize (Mb):                                     64.000000



 =====================
 S C F   U P D A T E S
 =====================
  
 Max. nr. of cycles:                               250
 Convergence criterion:                              0.0000010000
   secondary criterion:                              0.0010000000

 Mix parameter (when DIIS does not apply):           0.2000000000
 Mixed ADIIS+DIIS will be used
    Max number of expansion vectors:                10
    Pure ADIIS when Max([F,P]) is above              0.1000000000
    Pure DIIS when Max([F,P]) is below               0.0010000000
 Automatic ElectronSmearing (in case of problematic SCF convergence) disabled



 =================
 P R E C I S I O N  ***  (General: NumInt, NeglectFunctionTails, ...)  ***
 =================
  

 NumInt:           Target precision:                 6.0000000000
 -------           Initial precision:                6.0000000000
                   Min. precision (optimization):    6.0000000000

 Neglect Functions:          Basis functions:        0.1000000000E-07
 ------------------          Fit functions:          0.1000000000E-07



 ===========================
 L I N E A R   S C A L I N G
 ===========================
  

 Cut-off radii density fit:                        0.1000000000E-09
 Overlap cut-off criterion AO matrix elements:     0.1000000000E-07
 Cut-offs for Coulomb potential and fitted density:0.1000000000E-09
 Cut-off criterion for Coulomb multipole terms:    0.1000000000E-09
 Progressive Convergence parameter:                 0.000000000    
1
 ***************************************************************************************************



                                            ***************************
                                            *  C O M P U T A T I O N  *
                                            ***************************
  

 Number of elements of the density matrix on this node (used, total):       741      1275



 ===========================================
 Numerical Integration : Fuzzy Cells (Becke)
 ===========================================
  
 Becke grid quality: GOOD           
  
 Lebedev angular grid order:             min:  11 max:  31
 Nr. of radial points:                   min:  54 max:  80

 Total nr. of points:      28946
 Nr. of blocks:              227
 Block length:               128
 Nr. of dummy points:        110


 Test of Precision of the Numerical Integration Grid
 ===================================================

 Integral of the Total Core Density:                   0.00000000000000



 ========================
 Density Fitting (zlmFit)
 ========================
  
 ZlmFit Fit Quality: NORMAL         
  
 Max L-expansion:                        min:   6 max:   7
 Nr. of radial interpolation points:     min:  39 max:  60



 =====
 S C F  ***  ScaSCF  ***
 =====
  
 Initial density matrix is calculated as sum of fragments

 CYCLE    1
 SCF Error: norm([F,P])=      0.912307118908, max([F,P])=      0.661827132883
 orbitals (Q,E):
 ---------------
 A :1...19           ( 2.00  -100.7775)  ( 2.00    -9.2283)  ( 2.00    -7.0511)  ( 2.00    -7.0501)
                     ( 2.00    -7.0501)  ( 2.00    -0.7744)  ( 2.00    -0.4081)  ( 2.00    -0.3221)
                     ( 2.00    -0.3221)  ( 0.00    -0.1210)  ( 0.00     0.0574)  ( 0.00     0.1942)
                     ( 0.00     0.2122)  ( 0.00     0.2122)  ( 0.00     0.2832)  ( 0.00     0.2832)
                     ( 0.00     0.3137)  ( 0.00     0.3772)  ( 0.00     0.3772)

 CYCLE    2
  SDIIS (wt  0.000):  0.0196  0.9804
 A-DIIS (wt  1.000):  0.0000  1.0000
  DIIS coefficients:  0.0000  1.0000
 SCF Error: norm([F,P])=      0.151643925789, max([F,P])=      0.070522138870
 orbitals (Q,E):
 ---------------
 A :1...10           ( 2.00  -100.6328)  ( 2.00    -9.1017)  ( 2.00    -6.9301)  ( 2.00    -6.9177)
                     ( 2.00    -6.9177)  ( 2.00    -0.6975)  ( 2.00    -0.3782)  ( 2.00    -0.2455)
                     ( 2.00    -0.2455)  ( 0.00    -0.1096)

 CYCLE    3
  SDIIS (wt  0.000):  0.0038  0.6663  0.3299
 A-DIIS (wt  1.000):  0.0000  0.7299  0.2701
  DIIS coefficients:  0.0000  0.7299  0.2701
 SCF Error: norm([F,P])=      0.300274895925, max([F,P])=      0.133931534143
 orbitals (Q,E):
 ---------------
 A :1...10           ( 2.00  -100.7166)  ( 2.00    -9.1690)  ( 2.00    -6.9995)  ( 2.00    -6.9866)
[...]
  Total Orbital Interactions:           -0.373194830261221        -10.1551          -234.18          -979.82

  Residu (E=Steric+OrbInt+Res):         -0.000002596111882         -0.0001            -0.00            -0.01
  Dispersion Energy:                    -0.000709200007297         -0.0193            -0.45            -1.86

Total Bonding Energy:                   -0.183663927772310         -4.9977          -115.25          -482.21


Summary of Bonding Energy (energy terms are taken from the energy decomposition above)
======================================================================================

  Electrostatic Energy:                 -0.071011460186522         -1.9323           -44.56          -186.44
  Kinetic Energy:                       -0.018642106577032         -0.5073           -11.70           -48.94
  Coulomb (Steric+OrbInt) Energy:       -0.000451379582741         -0.0123            -0.28            -1.19
  XC Energy:                            -0.092849781418719         -2.5266           -58.26          -243.78
  Dispersion Energy:                    -0.000709200007297         -0.0193            -0.45            -1.86
                                      --------------------     -----------       ----------      -----------
  Total Bonding Energy:                 -0.183663927772310         -4.9977          -115.25          -482.21


Correction terms (incorporated in energies above; only for test purposes):

1. Indication of fit-quality: 1st-order fit-correction used in the energy (hartree):   0.0000422548
2. Electrostatic (Fit correction):   0.0000000000



 =========================================
 F R A G M E N T   E N E R G Y   T E R M S  ***  (summed over all fragments)  ***
 =========================================
  

The energy terms below are (parts of) the Total Energy of the fragments from which the molecule
 is built.

Exchange and Correlation
  Exchange LDA:                        -25.533137191371310       -694.7920        -16022.29        -67037.24
  Exchange GGA:                         -2.172210244217717        -59.1088         -1363.08         -5703.14
  Correlation LDA:                       0.000000000000000          0.0000             0.00             0.00
  Correlation GGA:                      -0.710914772130483        -19.3450          -446.11         -1866.51
                                      --------------------     -----------       ----------      -----------
  Total XC:                            -28.416262207719509       -773.2458        -17831.48        -74606.89
1



 =======================================================
 S F O   P O P U L A T I O N S ,   M O   A N A L Y S I S
 =======================================================
  
 A Mulliken population analysis is performed on (input-)selected MOs. All populations refer to SFOs.
 BAS populations may have been printed directly after the SCF part.


                                       === A ===


 SFO contributions (%) per orbital
 (multiplication by the orbital occupation yields the SFO Gross Populations)

 Orb.:        1      2      3      4      5      6      7      8      9     10     11     12     13
 occup:     2.00   2.00   2.00   2.00   2.00   2.00   2.00   2.00   2.00   0.00   0.00   0.00   0.00
 CF+SFO     ----   ----   ----   ----   ----   ----   ----   ----   ----   ----   ----   ----   ----
 ------
      1:  100.00   0.00   0.00   0.00  -0.00   0.00  -0.00   0.00   0.00  -0.00  -0.00  -0.00  -0.00
      2:    0.00 100.01   0.00   0.00   0.00  -0.00   0.00   0.00  -0.00   0.00   0.00   0.00   0.00
      3:    0.00  -0.00  -0.00   0.00  -0.00  93.71   3.86   0.00  -0.00   1.93  -0.82   0.36   0.00
      4:   -0.00  -0.00   0.00  -0.00   0.00  -0.02  -0.56   0.00  -0.00  -4.99  -2.64  13.61  -0.00
      8:    0.00   0.00  64.39  29.97   5.64  -0.00   0.00  -0.00  -0.00  -0.00  -0.00   0.00   0.00
      9:    0.00   0.00   0.00   0.00   0.00   0.28  39.68  25.60   9.63  21.46   2.07   0.16   0.09
     10:    0.00   0.00  -0.00   0.00   0.00  -0.02  -0.45   0.01   0.00  -3.64  -0.22  52.64  29.98
     13:    0.00   0.00  11.03  54.82  34.14  -0.00   0.00  -0.00  -0.00  -0.00  -0.00   0.00   0.00
     14:    0.00   0.00   0.00   0.00   0.00   0.05   6.80  65.72  22.27   3.68   0.36   0.03   0.09
     15:    0.00   0.00  -0.00   0.00   0.00  -0.00  -0.08   0.02   0.01  -0.62  -0.04   9.02  30.97
     18:    0.00   0.00  24.58  15.21  60.21  -0.00   0.00  -0.00  -0.00  -0.00  -0.00   0.00   0.00
     19:    0.00   0.00   0.00   0.00   0.00   0.11  15.14   7.59  67.01   8.19   0.79   0.06   0.08
     20:    0.00   0.00  -0.00   0.00   0.00  -0.01  -0.17   0.00   0.02  -1.39  -0.08  20.10  26.33
     24:   -0.00   0.00   0.00   0.00   0.00   0.02   0.17   0.01   0.00   0.57   1.33   0.36   0.98
     25:   -0.00   0.00   0.00   0.00   0.00   0.02   0.17   0.01   0.01   0.56   1.32   0.36   0.18
     26:   -0.00   0.00   0.00   0.00   0.00   0.06   0.38   0.00   0.01   1.26   2.95   0.80   0.05
     35:   -0.00  -0.00  -0.00  -0.00   0.00   5.29  32.81   0.00   0.00  69.14   0.25  -2.90  -0.00
     36:   -0.00   0.00  -0.00  -0.00  -0.00  -0.51   1.89  -0.00  -0.00   2.29  93.99   0.64   0.00
     37:   -0.00  -0.00  -0.00  -0.00   0.00  -0.14  -0.27  -0.00  -0.00  -1.28   0.09  -1.29  -0.00
     38:    0.00  -0.01  -0.00  -0.00  -0.00   0.70   0.20   0.25   0.09   1.53  -0.07   3.90   3.51
     39:    0.00  -0.00  -0.00  -0.00  -0.00   0.12   0.03   0.64   0.22   0.26  -0.01   0.67   3.63
     40:    0.00  -0.00  -0.00  -0.00  -0.00   0.27   0.08   0.07   0.65   0.58  -0.03   1.49   3.09


 Summation over all MOs, multiplied by occupation: Total SFO Gross Populations in this Irrep
 ===========================================================================================

     2.00    2.00    1.95   -0.01    0.00    0.00    0.00    2.00    1.50   -0.01   -0.00   -0.00
     2.00    1.90   -0.00   -0.00   -0.00    2.00    1.80   -0.00   -0.00   -0.00    0.00    0.00
     0.00    0.01    0.00    0.00    0.00    0.00    0.00    0.00    0.00    0.00    0.76    0.03
    -0.01    0.02    0.02    0.02    0.00    0.00    0.00    0.00    0.00



 List of all MOs, ordered by energy, with the most significant SFO gross populations
 ===================================================================================

 Each percentage contribution in the table below corresponds to the indicated SFO.
 In general, a SFO may be a linear combination of several Fragment Orbitals on the same,
 or on symmetry-related Fragments. Only the first 'member' of such a combination is
 specified here. A full definition of all SFOs is given in an earlier part of the output.
 The numbering of the SFOs in this table does NOT include the Core Orbitals, and starts
 from one for each symmetry representation, as in the SFO definition list earlier.

       E(eV)  Occ       MO           %     SFO (first member)   E(eV)  Occ   Fragment
 -------------------------------------------------------------------------------------

     -20.101  2.00     6 A         93.71%     3 S             -20.362  2.00     1 Cl
                                    5.29%     1 S              -6.532  1.00     2 H
     -10.706  2.00     7 A         39.68%     2 P:x            -8.456  1.67     1 Cl
                                   32.81%     1 S              -6.532  1.00     2 H
                                   15.14%     2 P:z            -8.456  1.67     1 Cl
                                    6.80%     2 P:y            -8.456  1.67     1 Cl
                                    3.86%     3 S             -20.362  2.00     1 Cl
                                    1.89%     2 S               2.394  0.00     2 H
      -7.726  2.00     8 A         65.72%     2 P:y            -8.456  1.67     1 Cl
                                   25.60%     2 P:x            -8.456  1.67     1 Cl
                                    7.59%     2 P:z            -8.456  1.67     1 Cl
      -7.726  2.00     9 A         67.01%     2 P:z            -8.456  1.67     1 Cl
                                   22.27%     2 P:y            -8.456  1.67     1 Cl
                                    9.63%     2 P:x            -8.456  1.67     1 Cl
      -3.177  0.00    10 A         69.14%     1 S              -6.532  1.00     2 H
                                   21.46%     2 P:x            -8.456  1.67     1 Cl
                                    8.19%     2 P:z            -8.456  1.67     1 Cl
                                   -4.99%     4 S               5.347  0.00     1 Cl
                                    3.68%     2 P:y            -8.456  1.67     1 Cl
                                   -3.64%     3 P:x             6.147  0.00     1 Cl
                                    2.29%     2 S               2.394  0.00     2 H
                                    1.93%     3 S             -20.362  2.00     1 Cl
                                    1.53%     1 P:x            11.052  0.00     2 H
                                   -1.39%     3 P:z             6.147  0.00     1 Cl
                                   -1.28%     3 S              40.877  0.00     2 H
                                    1.26%     1 D:xz           10.511  0.00     1 Cl
       1.660  0.00    11 A         93.99%     2 S               2.394  0.00     2 H
                                    2.95%     1 D:xz           10.511  0.00     1 Cl
                                   -2.64%     4 S               5.347  0.00     1 Cl
                                    2.07%     2 P:x            -8.456  1.67     1 Cl
                                    1.33%     1 D:x2-y2        10.511  0.00     1 Cl
                                    1.32%     1 D:xy           10.511  0.00     1 Cl



 =======================================================================
 Electrostatic potential at the Nuclei due to electrons and other nuclei
 =======================================================================
  
         Atom                  Potential
         ----                  ---------
     1)   Cl                 64.40575449
     2)   H                   0.90652838
 
 
 ========================
 No memory problems found
 ========================
 
 Maximum number of active allocate calls:         768
 
 *******************************************************************************

                             A D F   E X I T
 NORMAL TERMINATION



 =================
 Timing Statistics
 =================
  
 Total Used :                     CPU=        1.38      System=        0.07     Elapsed=        1.49

 Calls  Section                     ( Mean, Percentage )
 ---------------------------------------------------------------------------------------------------
     3  ><      ................      0.00    0.07             0.00    0.00             0.00    0.10
     1  INIT    ................      0.46   33.16             0.03   45.21             0.49   33.12
     1  GEOMET  ................      0.03    2.54             0.01   10.96             0.05    3.05
     1  FRAGM   ................      0.01    0.94             0.01    8.22             0.03    1.83
     1  INPUTA  ................      0.00    0.00             0.00    0.00             0.00    0.03
     1  ATDEN   ................      0.01    0.58             0.00    2.74             0.01    0.66
     1  MAINSY  ................      0.01    0.51             0.00    2.74             0.01    0.76
     1  SYMFIT  ................      0.00    0.07             0.00    1.37             0.00    0.12
     1  CORORT  ................      0.00    0.00             0.00    0.00             0.00    0.03
     1  SYMORB  ................      0.00    0.29             0.00    1.37             0.00    0.27
     1  CLSMAT  ................      0.01    0.58             0.00    0.00             0.01    0.56
     1  ORTHON  ................      0.00    0.29             0.00    0.00             0.00    0.30
     1  GENPT   ................      0.08    5.52             0.00    4.11             0.08    5.39
     1  PTBAS   ................      0.01    1.09             0.00    0.00             0.01    0.91
    10  FOCKY   ................      0.05   36.28             0.00    9.59             0.05   34.20
    10  FOCKTR  ................      0.00    0.44             0.00    0.00             0.00    0.84
    10  SDIIS   ................      0.00    2.39             0.00    4.11             0.00    2.28
     1  COREPS  ................      0.04    3.05             0.00    1.37             0.04    2.91
     1  TOTEN   ................      0.12    8.56             0.00    2.74             0.12    8.19
     1  POPAN   ................      0.00    0.29             0.00    0.00             0.01    0.54
     1  DEBYE   ................      0.00    0.07             0.00    0.00             0.00    0.08
     1  INPUTE  ................      0.00    0.07             0.00    0.00             0.00    0.09
     1  SYMORE  ................      0.00    0.07             0.00    0.00             0.00    0.10
     1  METS    ................      0.00    0.07             0.00    0.00             0.00    0.05
     1  CETS    ................      0.00    0.15             0.00    0.00             0.00    0.17
     1  ELNRGY  ................      0.00    0.29             0.00    0.00             0.00    0.22
     1  POPUL   ................      0.01    0.73             0.00    1.37             0.02    1.20
     1  EXIT PROCEDURE .........      0.03    1.89             0.00    4.11             0.03    2.01


 Currently Open Files (EXIT00)
 ====================

 Unit    Access Format  Status   Type       Ident (file)
 -------------------------------------------------------
   3      SEQ    FORM   TRANSP  NORMAL      LOGFILE
                                          ( logfile )


 Buffered I/O statistics
 =======================
 Memory available:                     67108864
 Number of records fitting in memory:     16131
 Input :   2.0% of                        33429  *4k bytes
 Output:  12.2% of                         2441  *4k bytes
 Records from serial files evicted:           0
                    others evicted:           0
 Hash table lookups:      91645 with          0 conflicts (  0.00%)

 ***************************************************************************************************
 (LOGFILE)
 <May09-2019> <17:12:33>  ADF 2017  RunTime: May09-2019 17:12:33  Nodes: 1  Procs: 1
 <May09-2019> <17:12:33>  Hydrogen (TZ2P)
 <May09-2019> <17:12:33>  RunType   : CREATE
 <May09-2019> <17:12:33>  Net Charge: 0 (Nuclei minus Electrons)
 <May09-2019> <17:12:33>  Symmetry  : ATOM
  Coordinates
    Atom         X           Y           Z   (Angstrom)
    1.H         0.000000    0.000000    0.000000
 <May09-2019> <17:12:33>  >>>> CORORT
 <May09-2019> <17:12:33>  >>>> CLSMAT
 <May09-2019> <17:12:33>  >>>> ORTHON
 <May09-2019> <17:12:33>  >>>> GENPT
 <May09-2019> <17:12:33>  Block Length=  64
 <May09-2019> <17:12:33>  >>>> PTBAS
 <May09-2019> <17:12:33>  >>>> CYCLE
 <May09-2019> <17:12:33>              |Error|         MaxErr       Wt(A-DIIS)
 <May09-2019> <17:12:33>      1      0.00000000      0.00000000
 <May09-2019> <17:12:33>      2      0.03100286      0.02644424
 <May09-2019> <17:12:33>      3      0.00958001      0.00932852    100.0
 <May09-2019> <17:12:33>      4      0.00232093      0.00228640      1.3
 <May09-2019> <17:12:34>      5      0.00003155      0.00002984      0.0
 <May09-2019> <17:12:34>      6      0.00000096      0.00000091      0.0
 <May09-2019> <17:12:34>      7      0.00000000      0.00000000      0.0
 <May09-2019> <17:12:34>  SCF converged
 <May09-2019> <17:12:34>      8      0.00000000      0.00000000      0.0
 <May09-2019> <17:12:34>  >>>> POPAN
 <May09-2019> <17:12:34>  >>>> DEBYE
 <May09-2019> <17:12:34>  NORMAL TERMINATION
 <May09-2019> <17:12:34>  END
 <May09-2019> <17:12:34>  ADF 2017  RunTime: May09-2019 17:12:34  Nodes: 1  Procs: 1
 <May09-2019> <17:12:34>  Chlorine (TZ2P)
 <May09-2019> <17:12:34>  RunType   : CREATE
 <May09-2019> <17:12:34>  Net Charge: 0 (Nuclei minus Electrons)
 <May09-2019> <17:12:34>  Symmetry  : ATOM
  Coordinates
    Atom         X           Y           Z   (Angstrom)
    1.Cl        0.000000    0.000000    0.000000
 <May09-2019> <17:12:34>  >>>> CORORT
 <May09-2019> <17:12:34>  >>>> CLSMAT
 <May09-2019> <17:12:34>  >>>> ORTHON
 <May09-2019> <17:12:34>  >>>> GENPT
 <May09-2019> <17:12:34>  Block Length=  93
 <May09-2019> <17:12:34>  >>>> PTBAS
 <May09-2019> <17:12:34>  >>>> CYCLE
 <May09-2019> <17:12:34>              |Error|         MaxErr       Wt(A-DIIS)
 <May09-2019> <17:12:34>      1      0.00000000      0.00000000
 <May09-2019> <17:12:34>      2     37.91809312     10.75416200    100.0
 <May09-2019> <17:12:34>      3     20.75770825      6.87179666    100.0
 <May09-2019> <17:12:34>      4      6.02140545      2.06148759    100.0
 <May09-2019> <17:12:34>      5      4.12282628      1.76233895    100.0
 <May09-2019> <17:12:34>      6      0.29713446      0.11190714    100.0
 <May09-2019> <17:12:34>      7      0.26827088      0.11225117    100.0
 <May09-2019> <17:12:34>      8      0.07155945      0.02618708     25.4
 <May09-2019> <17:12:34>      9      0.01306627      0.00522014      4.3
 <May09-2019> <17:12:34>     10      0.00048573      0.00020293      0.0
 <May09-2019> <17:12:35>     11      0.00000245      0.00000087      0.0
 <May09-2019> <17:12:35>     12      0.00000003      0.00000001      0.0
 <May09-2019> <17:12:35>     13      0.00000000      0.00000000      0.0
 <May09-2019> <17:12:35>  SCF converged
 <May09-2019> <17:12:35>     14      0.00000000      0.00000000      0.0
 <May09-2019> <17:12:35>  >>>> POPAN
 <May09-2019> <17:12:35>  >>>> DEBYE
 <May09-2019> <17:12:35>  NORMAL TERMINATION
 <May09-2019> <17:12:35>  END
 <May09-2019> <17:12:35>  ADF 2017  RunTime: May09-2019 17:12:35  Nodes: 1  Procs: 12
 <May09-2019> <17:12:35>  *** (NO TITLE) ***
 <May09-2019> <17:12:35>  RunType   : SINGLE POINT
 <May09-2019> <17:12:36>  Net Charge: 0 (Nuclei minus Electrons)
 <May09-2019> <17:12:36>  Symmetry  : NOSYM
 <May09-2019> <17:12:36>  >>>> FRAGM
  Coordinates
    Atom         X           Y           Z   (Angstrom)
    1.Cl       -3.903580   -0.149383   -0.058781
    2.H        -2.627414    0.379048    0.729716
 <May09-2019> <17:12:36>  >>>> CORORT
 <May09-2019> <17:12:36>  >>>> CLSMAT
 <May09-2019> <17:12:36>  >>>> ORTHON
 <May09-2019> <17:12:36>  >>>> GENPT
 <May09-2019> <17:12:36>  Block Length= 128
 <May09-2019> <17:12:36>  >>>> PTBAS
 <May09-2019> <17:12:36>  >>>> CYCLE
 <May09-2019> <17:12:36>              |Error|         MaxErr       Wt(A-DIIS)
 <May09-2019> <17:12:36>      1      0.91230712      0.66182713
 <May09-2019> <17:12:36>      2      0.15164393      0.07052214    100.0
 <May09-2019> <17:12:36>      3      0.30027490      0.13393153    100.0
 <May09-2019> <17:12:36>      4      0.06023040      0.02564844     24.9
 <May09-2019> <17:12:36>      5      0.01589753      0.00434668      3.4
 <May09-2019> <17:12:36>      6      0.00107207      0.00026613      0.0
 <May09-2019> <17:12:36>      7      0.00007287      0.00003727      0.0
 <May09-2019> <17:12:36>      8      0.00000780      0.00000451      0.0
 <May09-2019> <17:12:36>      9      0.00000065      0.00000039      0.0
 <May09-2019> <17:12:36>  SCF converged
 <May09-2019> <17:12:36>     10      0.00000015      0.00000006      0.0
 <May09-2019> <17:12:36>  >>>> TOTEN
 <May09-2019> <17:12:36>  >>>> POPAN
 <May09-2019> <17:12:36>  >>>> DEBYE
 <May09-2019> <17:12:36>  >>>> AMETS
 <May09-2019> <17:12:36>   Bond Energy          -0.18366393 a.u.
 <May09-2019> <17:12:36>   Bond Energy          -4.99774976 eV
 <May09-2019> <17:12:36>   Bond Energy        -115.25       kcal/mol
 <May09-2019> <17:12:36>  >>>> POPUL
 <May09-2019> <17:12:36>  NORMAL TERMINATION
 <May09-2019> <17:12:36>  END
