
Create H   file=TZ2P-H
XC
  GGA blyp
  DISPERSION Grimme3 BJDAMP
End
End Input

 *******************************************************************************
 *                                                                             *
 *  -------------------------------------                                      *
 *   Amsterdam Density Functional  (ADF)         development version           *
 *  -------------------------------------                                      *
 *                                               r61132 2017-09-08             *
 *                                                                             *
 *                                                                             *
 *                              =================                              *
 *                              |               |                              *
 *                              |     A D F     |                              *
 *                              |               |                              *
 *                              =================                              *
 *                                                                             *
 *                                                                             *
 *   Online information and documentation:  https://www.scm.com/support/       *
 *   E-mail:  support@scm.com   info@scm.com                                   *
 *                                                                             *
 *   Scientific publications using ADF results must be properly referenced     *
 *   See the User Manuals (or the web site) for recommended citations          *
 *   The terms and conditions of the End User License Agreement apply to       *
 *   the use of ADF, https://www.scm.com/license-terms/                        *
 *                                                                             *
 **********************  x86_64_linux_intel / intelmpi  ************************
 
 Licensed to: VU/FEW (+ SARA) / ALGEMEEN / Amsterdam / THE NETHERLANDS
 SCM User ID: u7668
  
 ADF development version  RunTime: Apr18-2019 14:06:00  Nodes: 1  Procs: 1

 Temporary files are created in /local/datastore0/tcst25/186717/kid_0.f4yCkw

 Hydrogen (TZ2P)



 ===========================
 A T T A C H E D   F I L E S
 ===========================
  
 CREATE - Data File:    TZ2P-H
                        Hydrogen (TZ2P)



 ===============================
 M O D E L   P A R A M E T E R S
 ===============================
  
 DENSITY FUNCTIONAL POTENTIAL (scf)
    LDA:                               Exchange only                           == Not Default ==
    Gradient Corrections:              Becke88 LYP                             == Not Default ==

 SPIN  (restricted / unrestr.)
    Molecule:                          Restricted                               

 OTHER ASPECTS
    Relativistic Corrections:          ---                                      

    Nuclear Charge Density Model:      Point Charge Nuclei                      
    Core Treatment:                    Frozen Orbital(s)                        

    Hyperfine or Zeeman Interaction:   ---                                      

 Settings for Grimme 3 dispersion correction

      damping                        BJ
      s6                          1.000
      a1                          0.430
      s8                          2.700
      a2                          4.236

 Other (technical) parameters

      alpha                      14.000
      version                         4
 



 =====================================
 S Y M M E T R Y ,   E L E C T R O N S
 =====================================
  
 Symmetry: ATOM

 Irreducible Representations, including subspecies
 -------------------------------------------------
 S
 P:x  P:y  P:z
 D:z2  D:x2-y2  D:xy  D:xz  D:yz
 F:z3  F:z  F:xyz  F:z2x  F:z2y  F:x  F:y


 Configuration of Valence Electrons
 ==================================

          Occupation Numbers
          -------------------------------------------------
 S        1
 P        0
 D        0
 F        0
          -------------------------------------------------

 Total:   1

 Net Charge: 0 (Nuclei minus Electrons)

 Preset values for MO occupations will be applied through SCF cycle no. 1000000
 Thereafter, the program will assign electrons to MOs that are spatially
 similar to the occupied MOs in a "reference" cycle ("KeepOrbitals").
 The reference cycle is always the PREVIOUS cycle: it will evolve with
 the SCF procedure.



 ================================
 (Slater-type)  F U N C T I O N S  ***  (Basis and Fit)  ***
 ================================
  

 Atom Type    1  (H)
 ==============

 Valence Basis Sets:   5
 -----------------------
   1 S    0.690000
   1 S    0.920000
   1 S    1.580000
   2 P    1.250000
   3 D    2.500000


 BAS: List of all Elementary Cartesian Basis Functions
 =====================================================

 The numbering in the list below (to the right of the function characteristics) is referred
 to in print-outs of MO eigenvectors and Mulliken populations in the BAS representation
 (as contrasted to the SFO representation).

 Notes:
 1. The functions are characterized by a polynomial prefactor (powers of x,y,z and r) and
    an exponential decay factor alpha.
 2. Since the basis sets are specific for an atom TYPE, the individual functions occur on
    all atoms of that type.
 3. The word 'Core' in the left margin signals that it is a Core Function (CF) : not a
    degree of freedom in the valence set, but only used to ensure orthogonalization of
    the other valence basis functions on the frozen Core Orbitals.


 (power of) X  Y  Z  R     Alpha  on Atom
            ==========     =====     ==========

 H                                    1
                                  ---------------------------------------------------------------------------
            0  0  0  0     0.690      1
            0  0  0  0     0.920      2
            0  0  0  0     1.580      3
            1  0  0  0     1.250      4
            0  1  0  0     1.250      5
            0  0  1  0     1.250      6
            2  0  0  0     2.500      7
            1  1  0  0     2.500      8
            1  0  1  0     2.500      9
            0  2  0  0     2.500     10
            0  1  1  0     2.500     11
            0  0  2  0     2.500     12

 Total number of charge fitting functions (nprimf)        50
 Total number of Cartesian basis functions (naos)         12
 Total number of Cartesian core functions  (ncos)          0



 BAS: List of all Elementary Cartesian Basis Functions
 =====================================================

 The numbering in the list below (to the right of the function characteristics) is referred
 to in print-outs of MO eigenvectors and Mulliken populations in the BAS representation
 (as contrasted to the SFO representation).

 Notes:
 1. The functions are characterized by a polynomial prefactor (powers of x,y,z and r) and
    an exponential decay factor alpha.
 2. Since the basis sets are specific for an atom TYPE, the individual functions occur on
    all atoms of that type.
 3. The word 'Core' in the left margin signals that it is a Core Function (CF) : not a
    degree of freedom in the valence set, but only used to ensure orthogonalization of
    the other valence basis functions on the frozen Core Orbitals.


 (power of) X  Y  Z  R     Alpha  on Atom
            ==========     =====     ==========

 H                                    1
                                  ---------------------------------------------------------------------------
            0  0  0  0     0.690      1
            0  0  0  0     0.920      2
            0  0  0  0     1.580      3
            1  0  0  0     1.250      4
            0  1  0  0     1.250      5
            0  0  1  0     1.250      6
            2  0  0  0     2.500      7
            1  1  0  0     2.500      8
            1  0  1  0     2.500      9
            0  2  0  0     2.500     10
            0  1  1  0     2.500     11
            0  0  2  0     2.500     12
1
 ***************************************************************************************************



                                              ***********************
                                              *  T E C H N I C A L  *
                                              ***********************
  



 =============================================================
 P A R A L L E L I Z A T I O N  and  V E C T O R I Z A T I O N
 =============================================================
  
 Nr of parallel processes:                                1
 Maximum vector length in NumInt loops:                 128

 IO buffersize (Mb):                                     64.000000



 =====================
 S C F   U P D A T E S
 =====================
  
 Max. nr. of cycles:                               300
 Convergence criterion:                              0.0000000100
   secondary criterion:                              0.0000000100

 Mix parameter (when DIIS does not apply):           0.2000000000
 Special mix parameter for the first cycle:          1.0000000000
 Mixed ADIIS+DIIS will be used
    Max number of expansion vectors:                10
    Pure ADIIS when Max([F,P]) is above              0.1000000000
    Pure DIIS when Max([F,P]) is below               0.0010000000
 Automatic ElectronSmearing (in case of problematic SCF convergence) disabled



 =================
 P R E C I S I O N  ***  (General: NumInt, NeglectFunctionTails, ...)  ***
 =================
  

 NumInt:           Target precision:                12.0000000000
 -------           Initial precision:               10.0000000000
                   Min. precision (optimization):   10.0000000000

 Neglect Functions:          Basis functions:        0.1000000000E-13
 ------------------          Fit functions:          0.1000000000E-13



 ===========================
 L I N E A R   S C A L I N G
 ===========================
  

 Cut-off radii density fit:                        0.1000000000E-97
 Overlap cut-off criterion AO matrix elements:     0.1000000000E-97
 Cut-offs for Coulomb potential and fitted density:0.1000000000E-97
 Cut-off criterion for Coulomb multipole terms:    0.1000000000E-97
 Progressive Convergence parameter:                 0.000000000    
1
 ***************************************************************************************************



                                            ***************************
                                            *  C O M P U T A T I O N  *
                                            ***************************
  

 Number of elements of the density matrix on this node (used, total):        78        78



 ===========================================
 Numerical Integration : Fuzzy Cells (Becke)
 ===========================================
  
 Becke grid quality: VERYGOOD       
  
 Lebedev angular grid order:             min:  13 max:  41
 Nr. of radial points:                   min:  64 max:  64

 Total nr. of points:         64
 Nr. of blocks:                1
 Block length:                64
 Nr. of dummy points:          0


 Test of Precision of the Numerical Integration Grid
 ===================================================

 Integral of the Total Core Density:                   0.00000000000000



 ========================
 Density Fitting (zlmFit)
 ========================
  
 ZlmFit Fit Quality: VERYGOOD       
  
 Max L-expansion:                        min:   0 max:   0
 Nr. of radial interpolation points:     min: 130 max: 130



 =====
 S C F  ***  ScaSCF  ***
 =====
  

 CYCLE    1
 SCF Error: norm([F,P])=      0.000000000000, max([F,P])=      0.000000000000
 orbitals (Q,E):
 ---------------
 S :1...3            ( 1.00    -0.5000)  ( 0.00    -0.0900)  ( 0.00     1.2939)
 P :1...1            ( 0.00     0.1562)
 D :1...1            ( 0.00     2.2917)

 CYCLE    2
 SCF Error: norm([F,P])=      0.031002856008, max([F,P])=      0.026444239384
 orbitals (Q,E):
 ---------------
 S :1...2            ( 1.00    -0.2236)  ( 0.00     0.0977)
 P :1...1            ( 0.00     0.4190)
 D :1...1            ( 0.00     2.5863)

 CYCLE    3
  SDIIS (wt  0.000):  0.2055  0.7945
 A-DIIS (wt  1.000):  0.0000  1.0000
  DIIS coefficients:  0.0000  1.0000
 SCF Error: norm([F,P])=      0.009580013340, max([F,P])=      0.009328518993
 orbitals (Q,E):
 ---------------
 S :1...2            ( 1.00    -0.2440)  ( 0.00     0.0860)
 P :1...1            ( 0.00     0.4030)
 D :1...1            ( 0.00     2.5655)

 CYCLE    4
  SDIIS (wt  0.987):  0.1949  0.8051
 A-DIIS (wt  0.013):  0.0000  1.0000
  DIIS coefficients:  0.1923  0.8077
 SCF Error: norm([F,P])=      0.002320932075, max([F,P])=      0.002286403159
 orbitals (Q,E):
 ---------------
 S :1...2            ( 1.00    -0.2400)  ( 0.00     0.0880)
 P :1...1            ( 0.00     0.4062)
 D :1...1            ( 0.00     2.5697)

 CYCLE    5
  SDIIS (wt  1.000):  0.0132  0.9868
  DIIS coefficients:  0.0132  0.9868
 SCF Error: norm([F,P])=      0.000031553206, max([F,P])=      0.000029840661
 orbitals (Q,E):
 ---------------
 S :1...2            ( 1.00    -0.2400)  ( 0.00     0.0880)
 P :1...1            ( 0.00     0.4062)
 D :1...1            ( 0.00     2.5697)

 CYCLE    6
  SDIIS (wt  1.000): -0.0314  1.0314
  DIIS coefficients: -0.0314  1.0314
 SCF Error: norm([F,P])=      0.000000959925, max([F,P])=      0.000000913629
 orbitals (Q,E):
 ---------------
 S :1...2            ( 1.00    -0.2400)  ( 0.00     0.0880)
 P :1...1            ( 0.00     0.4062)
 D :1...1            ( 0.00     2.5697)

 CYCLE    7
  SDIIS (wt  1.000):  0.0045  0.9955
  DIIS coefficients:  0.0045  0.9955
 SCF Error: norm([F,P])=      0.000000004387, max([F,P])=      0.000000004212
 orbitals (Q,E):
 ---------------
 S :1...2            ( 1.00    -0.2400)  ( 0.00     0.0880)
 P :1...1            ( 0.00     0.4062)
 D :1...1            ( 0.00     2.5697)

 SCF CONVERGED

 CYCLE    8
1
 ***************************************************************************************************



                                                *******************
                                                *  R E S U L T S  *
                                                *******************
  
 *** Setting up for NEW gradients in Focky
 *** Using FIT density in Focky

 Orbital Energies, per Irrep and Spin:
 ======================================
                        Occup              E (au)              E (eV)       Diff (eV) with prev. cycle
                        -----      --------------------        ------       --------------------------
 S
               1        1.000     -0.24003723730291E+00        -6.532              -1.36E-09
               2        0.000      0.87974178151410E-01         2.394
               3        0.000      0.15021841144445E+01        40.877
 P
               1        0.000      0.40615190499536E+00        11.052
 D
               1        0.000      0.25696970808913E+01        69.925


 Partially Occupied:
               1 S                -0.24003723730291E+00
  
 LUMO :        2 S                 0.87974178151410E-01
  


 Orbital Energies, all Irreps
 ========================================

 Irrep        no.  (spin)   Occup              E (au)                E (eV)
 ---------------------------------------------------------------------------
 S             1             1.00       -0.24003723730291E+00        -6.5317
 S             2             0.00        0.87974178151410E-01         2.3939
 P             1             0.00        0.40615190499536E+00        11.0520
 S             3             0.00        0.15021841144445E+01        40.8765
 D             1             0.00        0.25696970808913E+01        69.9250


 All Electron Calculation, thus no Orbital Energies of the Core Orbitals are calculated



 =======================================
 M U L L I K E N   P O P U L A T I O N S
 =======================================
  
 The survey below gives for each atom:
 a) the total charge (Z minus electrons)
 b) the net spin polarization (nr of electrons spin-A minus spin-B)
 c) for each spin the atomic electron valence density (integrated) per L-value.

 Atom              Charge    Spin density          S         P         D         F
 ----              ------    ------------       ------    ------    ------    ------
 1 H              -0.0000                       1.0000    0.0000    0.0000    0.0000

 Populations of individual BAS functions
 ----------------------------------------
 1 H            0.2458  0.6250  0.1292  0.0000  0.0000  0.0000  0.0000  0.0000  0.0000  0.0000
                0.0000  0.0000

 Gross Charges per Atom (Z minus electrons)
 ==========================================
            -0.0000
 Net Total: -0.00000000



 =======================================================================
 Electrostatic potential at the Nuclei due to electrons and other nuclei
 =======================================================================
  
         Atom                  Potential
         ----                  ---------
     1)   H                   0.94873442
 
 
 ========================
 No memory problems found
 ========================
 
 Maximum number of active allocate calls:         363
 
 *******************************************************************************

                             A D F   E X I T
 NORMAL TERMINATION



 =================
 Timing Statistics
 =================
  
 Total Used :                     CPU=        0.30      System=        0.03     Elapsed=        0.43

 Calls  Section                     ( Mean, Percentage )
 ---------------------------------------------------------------------------------------------------
     3  ><      ................      0.00    0.34             0.00    0.00             0.00    0.19
     1  INIT    ................      0.01    3.69             0.01   46.67             0.13   29.72
     1  GEOMET  ................      0.00    1.34             0.00   16.67             0.01    2.09
     1  INPUTA  ................      0.00    0.67             0.00    0.00             0.00    0.34
     1  MAINSY  ................      0.00    0.67             0.00   13.34             0.01    1.39
     1  SYMFIT  ................      0.00    0.34             0.00    0.00             0.00    0.21
     1  CORORT  ................      0.00    0.00             0.00    0.00             0.00    0.06
     1  SYMORB  ................      0.00    0.00             0.00    0.00             0.00    0.12
     1  CLSMAT  ................      0.00    1.01             0.00    3.33             0.00    0.93
     1  ORTHON  ................      0.00    0.67             0.00    0.00             0.00    0.30
     1  GENPT   ................      0.01    3.36             0.00    0.00             0.01    2.29
     1  PTBAS   ................      0.00    0.67             0.00    3.33             0.00    0.78
     8  FOCKY   ................      0.03   69.13             0.00   10.00             0.03   48.73
     8  FOCKTR  ................      0.00    2.35             0.00    0.00             0.00    1.28
     8  SDIIS   ................      0.00    4.03             0.00    0.00             0.00    2.92
     1  COREPS  ................      0.02    5.37             0.00    0.00             0.02    3.63
     1  POPAN   ................      0.00    1.01             0.00    0.00             0.00    0.87
     1  DEBYE   ................      0.00    0.34             0.00    0.00             0.00    0.11
     1  EXIT PROCEDURE .........      0.01    5.03             0.00    6.67             0.02    4.03


 Currently Open Files (EXIT00)
 ====================

 Unit    Access Format  Status   Type       Ident (file)
 -------------------------------------------------------
   3      SEQ    FORM   TRANSP  NORMAL      LOGFILE
                                          ( logfile )


 Buffered I/O statistics
 =======================
 Memory available:                     67108864
 Number of records fitting in memory:     16131
 Input :   0.2% of                        17484  *4k bytes
 Output:  15.2% of                         1046  *4k bytes
 Records from serial files evicted:           0
                    others evicted:           0
 Hash table lookups:      44693 with          0 conflicts (  0.00%)

 ***************************************************************************************************
 (LOGFILE)
 <Apr18-2019> <14:06:00>  ADF development version  RunTime: Apr18-2019 14:06:00  Nodes: 1  Procs: 1
 <Apr18-2019> <14:06:00>  Hydrogen (TZ2P)
 <Apr18-2019> <14:06:00>  RunType   : CREATE
 <Apr18-2019> <14:06:00>  Net Charge: 0 (Nuclei minus Electrons)
 <Apr18-2019> <14:06:00>  Symmetry  : ATOM
  Coordinates
    Atom         X           Y           Z   (Angstrom)
    1.H         0.000000    0.000000    0.000000
 <Apr18-2019> <14:06:00>  >>>> CORORT
 <Apr18-2019> <14:06:00>  >>>> CLSMAT
 <Apr18-2019> <14:06:00>  >>>> ORTHON
 <Apr18-2019> <14:06:00>  >>>> GENPT
 <Apr18-2019> <14:06:00>  Block Length=  64
 <Apr18-2019> <14:06:00>  >>>> PTBAS
 <Apr18-2019> <14:06:00>  >>>> CYCLE
 <Apr18-2019> <14:06:00>              |Error|         MaxErr       Wt(A-DIIS)
 <Apr18-2019> <14:06:00>      1      0.00000000      0.00000000
 <Apr18-2019> <14:06:00>      2      0.03100286      0.02644424
 <Apr18-2019> <14:06:00>      3      0.00958001      0.00932852    100.0
 <Apr18-2019> <14:06:00>      4      0.00232093      0.00228640      1.3
 <Apr18-2019> <14:06:00>      5      0.00003155      0.00002984      0.0
 <Apr18-2019> <14:06:00>      6      0.00000096      0.00000091      0.0
 <Apr18-2019> <14:06:01>      7      0.00000000      0.00000000      0.0
 <Apr18-2019> <14:06:01>  SCF converged
 <Apr18-2019> <14:06:01>      8      0.00000000      0.00000000      0.0
 <Apr18-2019> <14:06:01>  >>>> POPAN
 <Apr18-2019> <14:06:01>  >>>> DEBYE
 <Apr18-2019> <14:06:01>  NORMAL TERMINATION
 <Apr18-2019> <14:06:01>  END

Create Cl   file=TZ2P-Cl
XC
  GGA blyp
  DISPERSION Grimme3 BJDAMP
End
End Input

 *******************************************************************************
 *                                                                             *
 *  -------------------------------------                                      *
 *   Amsterdam Density Functional  (ADF)         development version           *
 *  -------------------------------------                                      *
 *                                               r61132 2017-09-08             *
 *                                                                             *
 *                                                                             *
 *                              =================                              *
 *                              |               |                              *
 *                              |     A D F     |                              *
 *                              |               |                              *
 *                              =================                              *
 *                                                                             *
 *                                                                             *
 *   Online information and documentation:  https://www.scm.com/support/       *
 *   E-mail:  support@scm.com   info@scm.com                                   *
 *                                                                             *
 *   Scientific publications using ADF results must be properly referenced     *
 *   See the User Manuals (or the web site) for recommended citations          *
 *   The terms and conditions of the End User License Agreement apply to       *
 *   the use of ADF, https://www.scm.com/license-terms/                        *
 *                                                                             *
 **********************  x86_64_linux_intel / intelmpi  ************************
 
 Licensed to: VU/FEW (+ SARA) / ALGEMEEN / Amsterdam / THE NETHERLANDS
 SCM User ID: u7668
  
 ADF development version  RunTime: Apr18-2019 14:06:01  Nodes: 1  Procs: 1

 Temporary files are created in /local/datastore0/tcst25/186717/kid_0.6BTXIZ

 Chlorine (TZ2P)



 ===========================
 A T T A C H E D   F I L E S
 ===========================
  
 CREATE - Data File:    TZ2P-Cl
                        Chlorine (TZ2P)



 ===============================
 M O D E L   P A R A M E T E R S
 ===============================
  
 DENSITY FUNCTIONAL POTENTIAL (scf)
    LDA:                               Exchange only                           == Not Default ==
    Gradient Corrections:              Becke88 LYP                             == Not Default ==

 SPIN  (restricted / unrestr.)
    Molecule:                          Restricted                               

 OTHER ASPECTS
    Relativistic Corrections:          ---                                      

    Nuclear Charge Density Model:      Point Charge Nuclei                      
    Core Treatment:                    Frozen Orbital(s)                        

    Hyperfine or Zeeman Interaction:   ---                                      

 Settings for Grimme 3 dispersion correction

      damping                        BJ
      s6                          1.000
      a1                          0.430
      s8                          2.700
      a2                          4.236

 Other (technical) parameters

      alpha                      14.000
      version                         4
 



 =====================================
 S Y M M E T R Y ,   E L E C T R O N S
 =====================================
  
 Symmetry: ATOM

 Irreducible Representations, including subspecies
 -------------------------------------------------
 S
 P:x  P:y  P:z
 D:z2  D:x2-y2  D:xy  D:xz  D:yz
 F:z3  F:z  F:xyz  F:z2x  F:z2y  F:x  F:y


 Configuration of Valence Electrons
 ==================================

          Occupation Numbers
          -------------------------------------------------
 S        3*2
 P        6 5
 D        0
 F        0
          -------------------------------------------------

 Total:   17

 Net Charge: 0 (Nuclei minus Electrons)

 Preset values for MO occupations will be applied through SCF cycle no. 1000000
 Thereafter, the program will assign electrons to MOs that are spatially
 similar to the occupied MOs in a "reference" cycle ("KeepOrbitals").
 The reference cycle is always the PREVIOUS cycle: it will evolve with
 the SCF procedure.



 ================================
 (Slater-type)  F U N C T I O N S  ***  (Basis and Fit)  ***
 ================================
  

 Atom Type    1  (Cl)
 ==============

 Valence Basis Sets:  14
 -----------------------
   1 S   20.300000
   1 S   15.250000
   2 S    6.250000
   2 S    4.450000
   2 P    8.850000
   2 P    5.050000
   3 S    3.450000
   3 S    2.300000
   3 S    1.600000
   3 P    3.350000
   3 P    2.050000
   3 P    1.200000
   3 D    2.000000
   4 F    2.000000


 BAS: List of all Elementary Cartesian Basis Functions
 =====================================================

 The numbering in the list below (to the right of the function characteristics) is referred
 to in print-outs of MO eigenvectors and Mulliken populations in the BAS representation
 (as contrasted to the SFO representation).

 Notes:
 1. The functions are characterized by a polynomial prefactor (powers of x,y,z and r) and
    an exponential decay factor alpha.
 2. Since the basis sets are specific for an atom TYPE, the individual functions occur on
    all atoms of that type.
 3. The word 'Core' in the left margin signals that it is a Core Function (CF) : not a
    degree of freedom in the valence set, but only used to ensure orthogonalization of
    the other valence basis functions on the frozen Core Orbitals.


 (power of) X  Y  Z  R     Alpha  on Atom
            ==========     =====     ==========

 Cl                                   1
                                  ---------------------------------------------------------------------------
            0  0  0  0    20.300      1
            0  0  0  0    15.250      2
            0  0  0  1     6.250      3
            0  0  0  1     4.450      4
            1  0  0  0     8.850      5
            0  1  0  0     8.850      6
            0  0  1  0     8.850      7
            1  0  0  0     5.050      8
            0  1  0  0     5.050      9
            0  0  1  0     5.050     10
            0  0  0  2     3.450     11
            0  0  0  2     2.300     12
            0  0  0  2     1.600     13
            1  0  0  1     3.350     14
            0  1  0  1     3.350     15
            0  0  1  1     3.350     16
            1  0  0  1     2.050     17
            0  1  0  1     2.050     18
            0  0  1  1     2.050     19
            1  0  0  1     1.200     20
            0  1  0  1     1.200     21
            0  0  1  1     1.200     22
            2  0  0  0     2.000     23
            1  1  0  0     2.000     24
            1  0  1  0     2.000     25
            0  2  0  0     2.000     26
            0  1  1  0     2.000     27
            0  0  2  0     2.000     28
            3  0  0  0     2.000     29
            2  1  0  0     2.000     30
            2  0  1  0     2.000     31
            1  2  0  0     2.000     32
            1  1  1  0     2.000     33
            1  0  2  0     2.000     34
            0  3  0  0     2.000     35
            0  2  1  0     2.000     36
            0  1  2  0     2.000     37
            0  0  3  0     2.000     38

 Total number of charge fitting functions (nprimf)       106
 Total number of Cartesian basis functions (naos)         38
 Total number of Cartesian core functions  (ncos)          0



 BAS: List of all Elementary Cartesian Basis Functions
 =====================================================

 The numbering in the list below (to the right of the function characteristics) is referred
 to in print-outs of MO eigenvectors and Mulliken populations in the BAS representation
 (as contrasted to the SFO representation).

 Notes:
 1. The functions are characterized by a polynomial prefactor (powers of x,y,z and r) and
    an exponential decay factor alpha.
 2. Since the basis sets are specific for an atom TYPE, the individual functions occur on
    all atoms of that type.
 3. The word 'Core' in the left margin signals that it is a Core Function (CF) : not a
    degree of freedom in the valence set, but only used to ensure orthogonalization of
    the other valence basis functions on the frozen Core Orbitals.


 (power of) X  Y  Z  R     Alpha  on Atom
            ==========     =====     ==========

 Cl                                   1
                                  ---------------------------------------------------------------------------
            0  0  0  0    20.300      1
            0  0  0  0    15.250      2
            0  0  0  1     6.250      3
            0  0  0  1     4.450      4
            1  0  0  0     8.850      5
            0  1  0  0     8.850      6
            0  0  1  0     8.850      7
            1  0  0  0     5.050      8
            0  1  0  0     5.050      9
            0  0  1  0     5.050     10
            0  0  0  2     3.450     11
            0  0  0  2     2.300     12
            0  0  0  2     1.600     13
            1  0  0  1     3.350     14
            0  1  0  1     3.350     15
            0  0  1  1     3.350     16
            1  0  0  1     2.050     17
            0  1  0  1     2.050     18
            0  0  1  1     2.050     19
            1  0  0  1     1.200     20
            0  1  0  1     1.200     21
            0  0  1  1     1.200     22
            2  0  0  0     2.000     23
            1  1  0  0     2.000     24
            1  0  1  0     2.000     25
            0  2  0  0     2.000     26
            0  1  1  0     2.000     27
            0  0  2  0     2.000     28
            3  0  0  0     2.000     29
            2  1  0  0     2.000     30
            2  0  1  0     2.000     31
            1  2  0  0     2.000     32
            1  1  1  0     2.000     33
            1  0  2  0     2.000     34
            0  3  0  0     2.000     35
            0  2  1  0     2.000     36
            0  1  2  0     2.000     37
            0  0  3  0     2.000     38
1
 ***************************************************************************************************



                                              ***********************
                                              *  T E C H N I C A L  *
                                              ***********************
  



 =============================================================
 P A R A L L E L I Z A T I O N  and  V E C T O R I Z A T I O N
 =============================================================
  
 Nr of parallel processes:                                1
 Maximum vector length in NumInt loops:                 128

 IO buffersize (Mb):                                     64.000000



 =====================
 S C F   U P D A T E S
 =====================
  
 Max. nr. of cycles:                               300
 Convergence criterion:                              0.0000000100
   secondary criterion:                              0.0000000100

 Mix parameter (when DIIS does not apply):           0.2000000000
 Special mix parameter for the first cycle:          1.0000000000
 Mixed ADIIS+DIIS will be used
    Max number of expansion vectors:                10
    Pure ADIIS when Max([F,P]) is above              0.1000000000
    Pure DIIS when Max([F,P]) is below               0.0010000000
 Automatic ElectronSmearing (in case of problematic SCF convergence) disabled



 =================
 P R E C I S I O N  ***  (General: NumInt, NeglectFunctionTails, ...)  ***
 =================
  

 NumInt:           Target precision:                12.0000000000
 -------           Initial precision:               10.0000000000
                   Min. precision (optimization):   10.0000000000

 Neglect Functions:          Basis functions:        0.1000000000E-13
 ------------------          Fit functions:          0.1000000000E-13



 ===========================
 L I N E A R   S C A L I N G
 ===========================
  

 Cut-off radii density fit:                        0.1000000000E-97
 Overlap cut-off criterion AO matrix elements:     0.1000000000E-97
 Cut-offs for Coulomb potential and fitted density:0.1000000000E-97
 Cut-off criterion for Coulomb multipole terms:    0.1000000000E-97
 Progressive Convergence parameter:                 0.000000000    
1
 ***************************************************************************************************



                                            ***************************
                                            *  C O M P U T A T I O N  *
                                            ***************************
  

 Number of elements of the density matrix on this node (used, total):       741       741



 ===========================================
 Numerical Integration : Fuzzy Cells (Becke)
 ===========================================
  
 Becke grid quality: VERYGOOD       
  
 Lebedev angular grid order:             min:  13 max:  41
 Nr. of radial points:                   min:  93 max:  93

 Total nr. of points:         93
 Nr. of blocks:                1
 Block length:                93
 Nr. of dummy points:          0


 Test of Precision of the Numerical Integration Grid
 ===================================================

 Integral of the Total Core Density:                   0.00000000000000



 ========================
 Density Fitting (zlmFit)
 ========================
  
 ZlmFit Fit Quality: VERYGOOD       
  
 Max L-expansion:                        min:   0 max:   0
 Nr. of radial interpolation points:     min: 200 max: 200



 =====
 S C F  ***  ScaSCF  ***
 =====
  

 CYCLE    1
 SCF Error: norm([F,P])=      0.000000000000, max([F,P])=      0.000000000000
 orbitals (Q,E):
 ---------------
 S :1...7            ( 2.00  -144.4893)  ( 2.00   -36.0966)  ( 2.00   -16.0338)  ( 0.00    -8.9253)
                     ( 0.00    -5.5262)  ( 0.00    -3.6296)  ( 0.00   175.9783)
 P :1...5            ( 6.00   -36.1179)  ( 5.00   -15.7666)  ( 0.00    -8.4199)  ( 0.00    -4.8064)
                     ( 0.00    -2.9092)
 D :1...1            ( 0.00    -9.3333)
 F :1...1            ( 0.00    -6.5000)

 CYCLE    2
  SDIIS (wt  0.000):  1.0000 -0.0000
 A-DIIS (wt  1.000):  0.0000  1.0000
  DIIS coefficients:  0.0000  1.0000
 SCF Error: norm([F,P])=     37.918093115371, max([F,P])=     10.754162001971
 orbitals (Q,E):
 ---------------
 S :1...4            ( 2.00   -86.3665)  ( 2.00    -3.0042)  ( 2.00     0.0879)  ( 0.00     0.9074)
 P :1...3            ( 6.00    -0.5941)  ( 5.00     0.2005)  ( 0.00     1.0624)
 D :1...1            ( 0.00     1.3908)
 F :1...1            ( 0.00     1.7118)

 CYCLE    3
  SDIIS (wt  0.000):  0.2468  0.7532
 A-DIIS (wt  1.000):  0.2184  0.7816
  DIIS coefficients:  0.2184  0.7816
 SCF Error: norm([F,P])=     20.757708249348, max([F,P])=      6.871796656039
 orbitals (Q,E):
 ---------------
 S :1...4            ( 2.00  -105.5772)  ( 2.00   -12.2185)  ( 2.00    -1.9200)  ( 0.00    -0.1982)
 P :1...3            ( 6.00   -10.2793)  ( 5.00    -1.3974)  ( 0.00    -0.0873)
 D :1...1            ( 0.00    -0.4679)
 F :1...1            ( 0.00     0.6062)

 CYCLE    4
  SDIIS (wt  0.000): -0.0788  0.1328  0.9460
 A-DIIS (wt  1.000):  0.0000  0.0000  1.0000
  DIIS coefficients:  0.0000  0.0000  1.0000
 SCF Error: norm([F,P])=      6.021405452047, max([F,P])=      2.061487593708
 orbitals (Q,E):
 ---------------
 S :1...4            ( 2.00   -97.6728)  ( 2.00    -7.4155)  ( 2.00    -0.2425)  ( 0.00     0.4293)
 P :1...3            ( 6.00    -5.1248)  ( 5.00     0.0322)  ( 0.00     0.5151)
 D :1...1            ( 0.00     0.8498)
 F :1...1            ( 0.00     1.4674)

 CYCLE    5
  SDIIS (wt  0.000): -0.0198 -0.0624  0.3895  0.6927
 A-DIIS (wt  1.000):  0.0000  0.0000  0.4691  0.5309
  DIIS coefficients:  0.0000  0.0000  0.4691  0.5309
 SCF Error: norm([F,P])=      4.122826282833, max([F,P])=      1.762338952725
 orbitals (Q,E):
 ---------------
 S :1...4            ( 2.00  -100.7640)  ( 2.00    -9.3467)  ( 2.00    -0.9097)  ( 0.00     0.1217)
 P :1...3            ( 6.00    -7.1584)  ( 5.00    -0.4570)  ( 0.00     0.1672)
 D :1...1            ( 0.00     0.2335)
 F :1...1            ( 0.00     1.0657)

 CYCLE    6
  SDIIS (wt  0.000): -0.0001 -0.0138  0.0424  0.0981  0.8734
 A-DIIS (wt  1.000):  0.0000  0.0000  0.0000  0.0000  1.0000
  DIIS coefficients:  0.0000  0.0000  0.0000  0.0000  1.0000
 SCF Error: norm([F,P])=      0.297134459880, max([F,P])=      0.111907135573
 orbitals (Q,E):
 ---------------
 S :1...4            ( 2.00  -100.6199)  ( 2.00    -9.0705)  ( 2.00    -0.6673)  ( 0.00     0.2275)
 P :1...3            ( 6.00    -6.8928)  ( 5.00    -0.2439)  ( 0.00     0.2570)
 D :1...1            ( 0.00     0.4575)
 F :1...1            ( 0.00     1.2382)

 CYCLE    7
  SDIIS (wt  0.000): -0.0002  0.0003  0.0119 -0.0199  0.3831  0.6249
 A-DIIS (wt  1.000):  0.0000  0.0000  0.0000  0.0000  0.4431  0.5569
  DIIS coefficients:  0.0000  0.0000  0.0000  0.0000  0.4431  0.5569
 SCF Error: norm([F,P])=      0.268270877863, max([F,P])=      0.112251171075
 orbitals (Q,E):
 ---------------
 S :1...4            ( 2.00  -100.8158)  ( 2.00    -9.2442)  ( 2.00    -0.7560)  ( 0.00     0.1940)
 P :1...3            ( 6.00    -7.0691)  ( 5.00    -0.3171)  ( 0.00     0.2236)
 D :1...1            ( 0.00     0.3804)
 F :1...1            ( 0.00     1.1860)

 CYCLE    8
  SDIIS (wt  0.746):  0.0001 -0.0001 -0.0028  0.0035  0.0906  0.1300  0.7787
 A-DIIS (wt  0.254):  0.0000  0.0000  0.0000  0.0000  0.0000  0.0000  1.0000
  DIIS coefficients:  0.0000 -0.0001 -0.0021  0.0026  0.0676  0.0969  0.8350
 SCF Error: norm([F,P])=      0.071559445743, max([F,P])=      0.026187079053
 orbitals (Q,E):
 ---------------
 S :1...4            ( 2.00  -100.7523)  ( 2.00    -9.2108)  ( 2.00    -0.7461)  ( 0.00     0.1973)
 P :1...3            ( 6.00    -7.0328)  ( 5.00    -0.3089)  ( 0.00     0.2267)
 D :1...1            ( 0.00     0.3881)
 F :1...1            ( 0.00     1.1908)

 CYCLE    9
  SDIIS (wt  0.957):  0.0000 -0.0000 -0.0001  0.0003  0.0037 -0.0063  0.1578  0.8445
 A-DIIS (wt  0.043):  0.0000  0.0000  0.0000  0.0000  0.0000  0.0000  0.0000  1.0000
  DIIS coefficients:  0.0000 -0.0000 -0.0001  0.0003  0.0036 -0.0060  0.1511  0.8511
 SCF Error: norm([F,P])=      0.013066268529, max([F,P])=      0.005220141314
 orbitals (Q,E):
 ---------------
 S :1...4            ( 2.00  -100.7623)  ( 2.00    -9.2169)  ( 2.00    -0.7484)  ( 0.00     0.1965)
 P :1...3            ( 6.00    -7.0393)  ( 5.00    -0.3108)  ( 0.00     0.2259)
 D :1...1            ( 0.00     0.3862)
 F :1...1            ( 0.00     1.1896)

 CYCLE   10
  SDIIS (wt  1.000):  0.0000  0.0000 -0.0000 -0.0000  0.0002  0.0011 -0.0030  0.0039  0.9977
  DIIS coefficients:  0.0000  0.0000 -0.0000 -0.0000  0.0002  0.0011 -0.0030  0.0039  0.9977
 SCF Error: norm([F,P])=      0.000485727205, max([F,P])=      0.000202934402
 orbitals (Q,E):
 ---------------
 S :1...4            ( 2.00  -100.7620)  ( 2.00    -9.2166)  ( 2.00    -0.7483)  ( 0.00     0.1965)
 P :1...3            ( 6.00    -7.0390)  ( 5.00    -0.3107)  ( 0.00     0.2259)
 D :1...1            ( 0.00     0.3863)
 F :1...1            ( 0.00     1.1896)

 CYCLE   11
  SDIIS (wt  1.000):  0.0000  0.0000  0.0000  0.0000 -0.0002 -0.0009  0.0045  0.9965
  DIIS coefficients:  0.0000  0.0000  0.0000  0.0000 -0.0002 -0.0009  0.0045  0.9965
 SCF Error: norm([F,P])=      0.000002451026, max([F,P])=      0.000000874874
 orbitals (Q,E):
 ---------------
 S :1...4            ( 2.00  -100.7620)  ( 2.00    -9.2166)  ( 2.00    -0.7483)  ( 0.00     0.1965)
 P :1...3            ( 6.00    -7.0390)  ( 5.00    -0.3107)  ( 0.00     0.2259)
 D :1...1            ( 0.00     0.3863)
 F :1...1            ( 0.00     1.1896)

 CYCLE   12
  SDIIS (wt  1.000):  0.0000  0.0000 -0.0000 -0.0000  0.0001  0.0049  0.9950
  DIIS coefficients:  0.0000  0.0000 -0.0000 -0.0000  0.0001  0.0049  0.9950
 SCF Error: norm([F,P])=      0.000000029116, max([F,P])=      0.000000011194
 orbitals (Q,E):
 ---------------
 S :1...4            ( 2.00  -100.7620)  ( 2.00    -9.2166)  ( 2.00    -0.7483)  ( 0.00     0.1965)
 P :1...3            ( 6.00    -7.0390)  ( 5.00    -0.3107)  ( 0.00     0.2259)
 D :1...1            ( 0.00     0.3863)
 F :1...1            ( 0.00     1.1896)

 CYCLE   13
  SDIIS (wt  1.000):  0.0000 -0.0004  0.0111  0.9893
  DIIS coefficients:  0.0000 -0.0004  0.0111  0.9893
 SCF Error: norm([F,P])=      0.000000001290, max([F,P])=      0.000000000495
 orbitals (Q,E):
 ---------------
 S :1...4            ( 2.00  -100.7620)  ( 2.00    -9.2166)  ( 2.00    -0.7483)  ( 0.00     0.1965)
 P :1...3            ( 6.00    -7.0390)  ( 5.00    -0.3107)  ( 0.00     0.2259)
 D :1...1            ( 0.00     0.3863)
 F :1...1            ( 0.00     1.1896)

 SCF CONVERGED

 CYCLE   14
1
 ***************************************************************************************************



                                                *******************
                                                *  R E S U L T S  *
                                                *******************
  
 *** Setting up for NEW gradients in Focky
 *** Using FIT density in Focky

 Orbital Energies, per Irrep and Spin:
 ======================================
                        Occup              E (au)              E (eV)       Diff (eV) with prev. cycle
                        -----      --------------------        ------       --------------------------
 S
               1        2.000     -0.10076196025470E+03     -2741.872               4.83E-10
               2        2.000     -0.92166234791376E+01      -250.797               4.96E-10
               3        2.000     -0.74829309878317E+00       -20.362               4.12E-10
               4        0.000      0.19650378945431E+00         5.347
               5        0.000      0.20105214794381E+01        54.709
               6        0.000      0.12737820956871E+02       346.614
               7        0.000      0.21467502602048E+03      5841.605
 P
               1        6.000     -0.70390087591571E+01      -191.541               4.92E-10
               2        5.000     -0.31074821072056E+00        -8.456               3.59E-10
               3        0.000      0.22590803353600E+00         6.147
               4        0.000      0.21023976914888E+01        57.209
               5        0.000      0.18828233069566E+02       512.342
 D
               1        0.000      0.38627333037828E+00        10.511
 F
               1        0.000      0.11896264283968E+01        32.371


 Partially Occupied:
               2 P                -0.31074821072056E+00
  
 HOMO :        3 S                -0.74829309878317E+00
 LUMO :        4 S                 0.19650378945431E+00
  


 Orbital Energies, all Irreps
 ========================================

 Irrep        no.  (spin)   Occup              E (au)                E (eV)
 ---------------------------------------------------------------------------
 S             1             2.00       -0.10076196025470E+03     -2741.8724
 S             2             2.00       -0.92166234791376E+01      -250.7971
 P             1             6.00       -0.70390087591571E+01      -191.5412
 S             3             2.00       -0.74829309878317E+00       -20.3621
 P             2             5.00       -0.31074821072056E+00        -8.4559
 S             4             0.00        0.19650378945431E+00         5.3471
 P             3             0.00        0.22590803353600E+00         6.1473
 D             1             0.00        0.38627333037828E+00        10.5110
 F             1             0.00        0.11896264283968E+01        32.3714
 S             5             0.00        0.20105214794381E+01        54.7091
 P             4             0.00        0.21023976914888E+01        57.2092
 S             6             0.00        0.12737820956871E+02       346.6137
 P             5             0.00        0.18828233069566E+02       512.3423
 S             7             0.00        0.21467502602048E+03      5841.6047


 All Electron Calculation, thus no Orbital Energies of the Core Orbitals are calculated



 =======================================
 M U L L I K E N   P O P U L A T I O N S
 =======================================
  
 The survey below gives for each atom:
 a) the total charge (Z minus electrons)
 b) the net spin polarization (nr of electrons spin-A minus spin-B)
 c) for each spin the atomic electron valence density (integrated) per L-value.

 Atom              Charge    Spin density          S         P         D         F
 ----              ------    ------------       ------    ------    ------    ------
 1 Cl              0.0000                       6.0000   11.0000    0.0000    0.0000

 Populations of individual BAS functions
 ----------------------------------------
 1 Cl           0.5041  1.4544  1.7124  0.2493  0.7286  0.7286  0.7286  1.2681  1.2681  1.2681
                0.6256  1.0927  0.3615  0.2681  0.2681  0.2681  1.0016  1.0016  1.0016  0.4002
                0.4002  0.4002  0.0000  0.0000  0.0000  0.0000  0.0000  0.0000  0.0000  0.0000
                0.0000  0.0000  0.0000  0.0000  0.0000  0.0000  0.0000  0.0000

 Gross Charges per Atom (Z minus electrons)
 ==========================================
             0.0000
 Net Total:  0.00000000



 =======================================================================
 Electrostatic potential at the Nuclei due to electrons and other nuclei
 =======================================================================
  
         Atom                  Potential
         ----                  ---------
     1)   Cl                 64.38336388
 
 
 ========================
 No memory problems found
 ========================
 
 Maximum number of active allocate calls:         447
 
 *******************************************************************************

                             A D F   E X I T
 NORMAL TERMINATION



 =================
 Timing Statistics
 =================
  
 Total Used :                     CPU=        0.63      System=        0.03     Elapsed=        0.66

 Calls  Section                     ( Mean, Percentage )
 ---------------------------------------------------------------------------------------------------
     3  ><      ................      0.00    0.16             0.00    0.00             0.00    0.12
     1  INIT    ................      0.01    1.11             0.02   58.62             0.03    3.89
     1  GEOMET  ................      0.00    0.79             0.00   10.35             0.01    1.28
     1  INPUTA  ................      0.00    0.32             0.00    0.00             0.00    0.24
     1  MAINSY  ................      0.00    0.63             0.00    6.89             0.01    0.90
     1  SYMFIT  ................      0.00    0.00             0.00    0.00             0.00    0.12
     1  CORORT  ................      0.00    0.16             0.00    0.00             0.00    0.04
     1  SYMORB  ................      0.00    0.00             0.00    0.00             0.00    0.10
     1  CLSMAT  ................      0.01    0.95             0.00    0.00             0.01    0.79
     1  ORTHON  ................      0.00    0.16             0.00    0.00             0.00    0.23
     1  GENPT   ................      0.02    3.02             0.00    0.00             0.02    2.86
     1  PTBAS   ................      0.00    0.63             0.00    0.00             0.00    0.54
    14  FOCKY   ................      0.04   78.57             0.00   13.79             0.04   75.81
    14  FOCKTR  ................      0.00    1.59             0.00    0.00             0.00    1.80
    14  SDIIS   ................      0.00    3.97             0.00    3.45             0.00    3.44
     1  COREPS  ................      0.03    4.29             0.00    0.00             0.03    4.04
     1  POPAN   ................      0.00    0.79             0.00    0.00             0.01    0.79
     1  DEBYE   ................      0.00    0.00             0.00    0.00             0.00    0.09
     1  EXIT PROCEDURE .........      0.02    2.86             0.00    6.90             0.02    2.92


 Currently Open Files (EXIT00)
 ====================

 Unit    Access Format  Status   Type       Ident (file)
 -------------------------------------------------------
   3      SEQ    FORM   TRANSP  NORMAL      LOGFILE
                                          ( logfile )


 Buffered I/O statistics
 =======================
 Memory available:                     67108864
 Number of records fitting in memory:     16131
 Input :   0.1% of                        29192  *4k bytes
 Output:  12.9% of                         1456  *4k bytes
 Records from serial files evicted:           0
                    others evicted:           0
 Hash table lookups:      75541 with          0 conflicts (  0.00%)

 ***************************************************************************************************
 (LOGFILE)
 <Apr18-2019> <14:06:00>  ADF development version  RunTime: Apr18-2019 14:06:00  Nodes: 1  Procs: 1
 <Apr18-2019> <14:06:00>  Hydrogen (TZ2P)
 <Apr18-2019> <14:06:00>  RunType   : CREATE
 <Apr18-2019> <14:06:00>  Net Charge: 0 (Nuclei minus Electrons)
 <Apr18-2019> <14:06:00>  Symmetry  : ATOM
  Coordinates
    Atom         X           Y           Z   (Angstrom)
    1.H         0.000000    0.000000    0.000000
 <Apr18-2019> <14:06:00>  >>>> CORORT
 <Apr18-2019> <14:06:00>  >>>> CLSMAT
 <Apr18-2019> <14:06:00>  >>>> ORTHON
 <Apr18-2019> <14:06:00>  >>>> GENPT
 <Apr18-2019> <14:06:00>  Block Length=  64
 <Apr18-2019> <14:06:00>  >>>> PTBAS
 <Apr18-2019> <14:06:00>  >>>> CYCLE
 <Apr18-2019> <14:06:00>              |Error|         MaxErr       Wt(A-DIIS)
 <Apr18-2019> <14:06:00>      1      0.00000000      0.00000000
 <Apr18-2019> <14:06:00>      2      0.03100286      0.02644424
 <Apr18-2019> <14:06:00>      3      0.00958001      0.00932852    100.0
 <Apr18-2019> <14:06:00>      4      0.00232093      0.00228640      1.3
 <Apr18-2019> <14:06:00>      5      0.00003155      0.00002984      0.0
 <Apr18-2019> <14:06:00>      6      0.00000096      0.00000091      0.0
 <Apr18-2019> <14:06:01>      7      0.00000000      0.00000000      0.0
 <Apr18-2019> <14:06:01>  SCF converged
 <Apr18-2019> <14:06:01>      8      0.00000000      0.00000000      0.0
 <Apr18-2019> <14:06:01>  >>>> POPAN
 <Apr18-2019> <14:06:01>  >>>> DEBYE
 <Apr18-2019> <14:06:01>  NORMAL TERMINATION
 <Apr18-2019> <14:06:01>  END
 <Apr18-2019> <14:06:01>  ADF development version  RunTime: Apr18-2019 14:06:01  Nodes: 1  Procs: 1
 <Apr18-2019> <14:06:01>  Chlorine (TZ2P)
 <Apr18-2019> <14:06:01>  RunType   : CREATE
 <Apr18-2019> <14:06:01>  Net Charge: 0 (Nuclei minus Electrons)
 <Apr18-2019> <14:06:01>  Symmetry  : ATOM
  Coordinates
    Atom         X           Y           Z   (Angstrom)
    1.Cl        0.000000    0.000000    0.000000
 <Apr18-2019> <14:06:01>  >>>> CORORT
 <Apr18-2019> <14:06:01>  >>>> CLSMAT
 <Apr18-2019> <14:06:01>  >>>> ORTHON
 <Apr18-2019> <14:06:01>  >>>> GENPT
 <Apr18-2019> <14:06:01>  Block Length=  93
 <Apr18-2019> <14:06:01>  >>>> PTBAS
 <Apr18-2019> <14:06:01>  >>>> CYCLE
 <Apr18-2019> <14:06:01>              |Error|         MaxErr       Wt(A-DIIS)
 <Apr18-2019> <14:06:01>      1      0.00000000      0.00000000
 <Apr18-2019> <14:06:01>      2     37.91809312     10.75416200    100.0
 <Apr18-2019> <14:06:01>      3     20.75770825      6.87179666    100.0
 <Apr18-2019> <14:06:01>      4      6.02140545      2.06148759    100.0
 <Apr18-2019> <14:06:01>      5      4.12282628      1.76233895    100.0
 <Apr18-2019> <14:06:01>      6      0.29713446      0.11190714    100.0
 <Apr18-2019> <14:06:01>      7      0.26827088      0.11225117    100.0
 <Apr18-2019> <14:06:01>      8      0.07155945      0.02618708     25.4
 <Apr18-2019> <14:06:01>      9      0.01306627      0.00522014      4.3
 <Apr18-2019> <14:06:01>     10      0.00048573      0.00020293      0.0
 <Apr18-2019> <14:06:01>     11      0.00000245      0.00000087      0.0
 <Apr18-2019> <14:06:01>     12      0.00000003      0.00000001      0.0
 <Apr18-2019> <14:06:01>     13      0.00000000      0.00000000      0.0
 <Apr18-2019> <14:06:01>  SCF converged
 <Apr18-2019> <14:06:01>     14      0.00000000      0.00000000      0.0
 <Apr18-2019> <14:06:01>  >>>> POPAN
 <Apr18-2019> <14:06:01>  >>>> DEBYE
 <Apr18-2019> <14:06:01>  NORMAL TERMINATION
 <Apr18-2019> <14:06:01>  END


 Parallel Execution: Process Information
 ==============================================================================
 Rank   Node Name                              NodeID   MyNodeRank  NodeMaster
    0   BAZIS-cn076                               0          0          0
    1   BAZIS-cn076                               0          1         -1
    2   BAZIS-cn076                               0          2         -1
    3   BAZIS-cn076                               0          3         -1
    4   BAZIS-cn076                               0          4         -1
    5   BAZIS-cn076                               0          5         -1
    6   BAZIS-cn076                               0          6         -1
    7   BAZIS-cn076                               0          7         -1
    8   BAZIS-cn076                               0          8         -1
    9   BAZIS-cn076                               0          9         -1
   10   BAZIS-cn076                               0         10         -1
   11   BAZIS-cn076                               0         11         -1
 ==============================================================================


May use up to 30736MB of RAM as shared memory on node 0


XC
  GGA blyp
  DISPERSION Grimme3 BJDAMP
END

ANALYTICALFREQ
END

SCF
  iterations 250
END

Geometry
  Iterations 300
  Optim Cartesian
  Convergence E=1e-4 grad=1e-4
End

SYMMETRY nosym
CHARGE -1

ZLMFIT
  Quality normal
END

BECKEGRID
  Quality good
End

ATOMS
Cl     -3.92255482       0.30683647      -0.21836993
H      -2.84513185       0.18627380       0.62794929
Cl     -1.11280880       0.64475808       1.78064946
END

Fragments
H t21.H
Cl t21.Cl
End
end input

 *******************************************************************************
 *                                                                             *
 *  -------------------------------------                                      *
 *   Amsterdam Density Functional  (ADF)         development version           *
 *  -------------------------------------                                      *
 *                                               r61132 2017-09-08             *
 *                                                                             *
 *                                                                             *
 *                              =================                              *
 *                              |               |                              *
 *                              |     A D F     |                              *
 *                              |               |                              *
 *                              =================                              *
 *                                                                             *
 *                                                                             *
 *   Online information and documentation:  https://www.scm.com/support/       *
 *   E-mail:  support@scm.com   info@scm.com                                   *
 *                                                                             *
 *   Scientific publications using ADF results must be properly referenced     *
 *   See the User Manuals (or the web site) for recommended citations          *
 *   The terms and conditions of the End User License Agreement apply to       *
 *   the use of ADF, https://www.scm.com/license-terms/                        *
 *                                                                             *
 **********************  x86_64_linux_intel / intelmpi  ************************
 
 Licensed to: VU/FEW (+ SARA) / ALGEMEEN / Amsterdam / THE NETHERLANDS
 SCM User ID: u7668
  
 ADF development version  RunTime: Apr18-2019 14:06:02  Nodes: 1  Procs: 12

 Temporary files are created in /local/datastore0/tcst25/186717/kid_0.YkDFa4


Communication costs MPI_COMM_WORLD:      2.493 usec per message,   0.0133 usec per 8-byte item
Communication costs for intra-node:      2.495 usec per message,   0.0133 usec per 8-byte item

 *** (NO TITLE) ***



 ===========================
 A T T A C H E D   F I L E S
 ===========================
  



 ===============================
 M O D E L   P A R A M E T E R S
 ===============================
  
 DENSITY FUNCTIONAL POTENTIAL (scf)
    LDA:                               Exchange only                           == Not Default ==
    Gradient Corrections:              Becke88 LYP                             == Not Default ==

 SPIN  (restricted / unrestr.)
    Molecule:                          Restricted                               
    Fragments:                         Restricted                               

 OTHER ASPECTS
    Relativistic Corrections:          ---                                      

    Nuclear Charge Density Model:      Point Charge Nuclei                      
    Core Treatment:                    Frozen Orbital(s)                        

    Hyperfine or Zeeman Interaction:   ---                                      

 Settings for Grimme 3 dispersion correction

      damping                        BJ
      s6                          1.000
      a1                          0.430
      s8                          2.700
      a2                          4.236

 Other (technical) parameters

      alpha                      14.000
      version                         4
 


 Fragment File(s)
 ----------------
 Cl:
         file : t21.Cl
         jobid: ADF development version  RunTime: Apr18-2019 14:06:01  Nodes: 1  Procs: 1
         title: Chlorine (TZ2P)
 H:
         file : t21.H
         jobid: ADF development version  RunTime: Apr18-2019 14:06:00  Nodes: 1  Procs: 1
         title: Hydrogen (TZ2P)



                                   *********************************************
                                   *  R U N   T Y P E : GEOMETRY OPTIMIZATION  *
                                   *********************************************
  



 ===============
 G E O M E T R Y  ***  Planar Molecule  ***
 ===============
  

 ATOMS
 =====                            X Y Z                    CHARGE
                                (Angstrom)             Nucl     +Core       At.Mass
                       --------------------------    ----------------       -------
    1  Cl             -3.9226    0.3068   -0.2184     17.00     17.00       34.9689
    2  H              -2.8451    0.1863    0.6279      1.00      1.00        1.0078
    3  Cl             -1.1128    0.6448    1.7806     17.00     17.00       34.9689


 FRAGMENTS
 =========                                     Atoms in this Fragment     Cart. coord.s (Angstrom)
                                               -------------------------------------------------------
    1  Cl                                                1  Cl          -3.9226    0.3068   -0.2184
    2  Cl                                                3  Cl          -1.1128    0.6448    1.7806
    3  H                                                 2  H           -2.8451    0.1863    0.6279


 Interatomic Distance Matrix (Angstrom)
 --------------------------------------

   1)     0.000
   2)     1.375   0.000
   3)     3.465   2.131   0.000

 Min. Distance =    1.3754
 Max. Distance =    3.4648



 =====================================
 S Y M M E T R Y ,   E L E C T R O N S
 =====================================
  
 Symmetry: NOSYM

 Irreducible Representations, including subspecies
 -------------------------------------------------
 A


 Configuration of Valence Electrons
 ==================================
 ( determined in the SCF procedure )

 Total:   36

 Net Charge: -1 (Nuclei minus Electrons)

 Aufbau principle for MO occupations will be applied through SCF cycle no.     125
 Thereafter, the program will assign electrons to MOs that are spatially
 similar to the occupied MOs in a "reference" cycle ("KeepOrbitals").
 The reference cycle is always the PREVIOUS cycle: it will evolve with
 the SCF procedure.
1
 ***************************************************************************************************



                                      ****************************************
                                      *  B U I L D : (Fragments, Functions)  *
                                      ****************************************
  



 =======
 S F O s  ***  (Symmetrized Fragment Orbitals)  ***
 =======
  
 SFOs are linear combinations of (valence) Fragment Orbitals (FOs), such that the SFOs transform as the
 irreducible representations of the (molecular) symmetry group. Each SFO is therefore characterized by
 an irrep of the molecule and by a few (or only one) generating FOs.
 The SFOs constitute a symmetry-adapted basis for the Fock matrix. The MO eigenvector coefficients in
 this basis provide a direct interpretation of the MOs in terms of Frontier Orbital Theory.

 The SFOs are combined with auxiliary Core Functions (CFs) to ensure orthogonalization on the (frozen)
 Core Orbitals (COs). The Core-orthogonalized SFOs (CSFOs) constitute the true Fock basis.

 The FOs, and hence also the (C)SFOs are combinations of the elementary basis functions (BAS). The basis
 functions that participate in the description of the SFOs depend on the irrep. The indices of the
 involved functions are printed below for each irrep.
 (The complete list of primitive basis functions is printed in another section)

 Total nr. of (C)SFOs (summation over all irreps) :    79

 NOTE: a (C)SFO that is defined as a combination of more than one FO is usually NOT normalized.



                                       === A ===
 Nr. of SFOs :   79
 Cartesian basis functions that participate in this irrep (total number =    88) :
      1     2     3     4    11    12    13     5     8    14
     17    20     6     9    15    18    21     7    10    16
     19    22    23    24    25    26    27    28    29    30
     31    32    33    34    35    36    37    38    39    40
     41    42    49    50    51    43    46    52    55    58
     44    47    53    56    59    45    48    54    57    60
     61    62    63    64    65    66    67    68    69    70
     71    72    73    74    75    76    77    78    79    80
     81    82    83    84    85    86    87    88

    SFO  (index         Fragment          Generating    Expansion in Fragment Orbitals
  indx  incl.CFs)   Occup   Orb.Energy   FragmentType  Coeff.   Orbital     on Fragment
 --------------------------------------------------------------------------------------
     1       1      2.000    -100.762 au  Cl            1.00      1 S               1
                        (   -2741.872 eV)
     2       2      2.000      -9.217 au  Cl            1.00      2 S               1
                        (    -250.797 eV)
     3       3      2.000      -0.748 au  Cl            1.00      3 S               1
                        (     -20.362 eV)
     4       4       --         0.197 au  Cl            1.00      4 S               1
                        (       5.347 eV)
     5       5       --         2.011 au  Cl            1.00      5 S               1
                        (      54.709 eV)
     6       6       --        12.738 au  Cl            1.00      6 S               1
                        (     346.614 eV)
     7       7       --       214.675 au  Cl            1.00      7 S               1
                        (    5841.605 eV)
     8       8      2.000      -7.039 au  Cl            1.00      1 P:x             1
                        (    -191.541 eV)
     9       9      1.667      -0.311 au  Cl            1.00      2 P:x             1
                        (      -8.456 eV)
    10      10       --         0.226 au  Cl            1.00      3 P:x             1
                        (       6.147 eV)
    11      11       --         2.102 au  Cl            1.00      4 P:x             1
                        (      57.209 eV)
    12      12       --        18.828 au  Cl            1.00      5 P:x             1
                        (     512.342 eV)
    13      13      2.000      -7.039 au  Cl            1.00      1 P:y             1
                        (    -191.541 eV)
    14      14      1.667      -0.311 au  Cl            1.00      2 P:y             1
                        (      -8.456 eV)
    15      15       --         0.226 au  Cl            1.00      3 P:y             1
                        (       6.147 eV)
    16      16       --         2.102 au  Cl            1.00      4 P:y             1
                        (      57.209 eV)
    17      17       --        18.828 au  Cl            1.00      5 P:y             1
                        (     512.342 eV)
    18      18      2.000      -7.039 au  Cl            1.00      1 P:z             1
                        (    -191.541 eV)
    19      19      1.667      -0.311 au  Cl            1.00      2 P:z             1
                        (      -8.456 eV)
    20      20       --         0.226 au  Cl            1.00      3 P:z             1
                        (       6.147 eV)
    21      21       --         2.102 au  Cl            1.00      4 P:z             1
                        (      57.209 eV)
    22      22       --        18.828 au  Cl            1.00      5 P:z             1
                        (     512.342 eV)
    23      23       --         0.386 au  Cl            1.00      1 D:z2            1
                        (      10.511 eV)
    24      24       --         0.386 au  Cl            1.00      1 D:x2-y2         1
                        (      10.511 eV)
    25      25       --         0.386 au  Cl            1.00      1 D:xy            1
                        (      10.511 eV)
    26      26       --         0.386 au  Cl            1.00      1 D:xz            1
                        (      10.511 eV)
    27      27       --         0.386 au  Cl            1.00      1 D:yz            1
                        (      10.511 eV)
    28      28       --         1.190 au  Cl            1.00      1 F:z3            1
                        (      32.371 eV)
    29      29       --         1.190 au  Cl            1.00      1 F:z             1
                        (      32.371 eV)
    30      30       --         1.190 au  Cl            1.00      1 F:xyz           1
                        (      32.371 eV)
    31      31       --         1.190 au  Cl            1.00      1 F:z2x           1
                        (      32.371 eV)
    32      32       --         1.190 au  Cl            1.00      1 F:z2y           1
                        (      32.371 eV)
    33      33       --         1.190 au  Cl            1.00      1 F:x             1
                        (      32.371 eV)
    34      34       --         1.190 au  Cl            1.00      1 F:y             1
                        (      32.371 eV)
    35      35      2.000    -100.762 au  Cl            1.00      1 S               2
                        (   -2741.872 eV)
    36      36      2.000      -9.217 au  Cl            1.00      2 S               2
                        (    -250.797 eV)
    37      37      2.000      -0.748 au  Cl            1.00      3 S               2
                        (     -20.362 eV)
    38      38       --         0.197 au  Cl            1.00      4 S               2
                        (       5.347 eV)
    39      39       --         2.011 au  Cl            1.00      5 S               2
                        (      54.709 eV)
    40      40       --        12.738 au  Cl            1.00      6 S               2
                        (     346.614 eV)
    41      41       --       214.675 au  Cl            1.00      7 S               2
                        (    5841.605 eV)
    42      42      2.000      -7.039 au  Cl            1.00      1 P:x             2
                        (    -191.541 eV)
    43      43      1.667      -0.311 au  Cl            1.00      2 P:x             2
                        (      -8.456 eV)
    44      44       --         0.226 au  Cl            1.00      3 P:x             2
                        (       6.147 eV)
    45      45       --         2.102 au  Cl            1.00      4 P:x             2
                        (      57.209 eV)
    46      46       --        18.828 au  Cl            1.00      5 P:x             2
                        (     512.342 eV)
    47      47      2.000      -7.039 au  Cl            1.00      1 P:y             2
                        (    -191.541 eV)
    48      48      1.667      -0.311 au  Cl            1.00      2 P:y             2
                        (      -8.456 eV)
    49      49       --         0.226 au  Cl            1.00      3 P:y             2
                        (       6.147 eV)
    50      50       --         2.102 au  Cl            1.00      4 P:y             2
                        (      57.209 eV)
    51      51       --        18.828 au  Cl            1.00      5 P:y             2
                        (     512.342 eV)
    52      52      2.000      -7.039 au  Cl            1.00      1 P:z             2
                        (    -191.541 eV)
    53      53      1.667      -0.311 au  Cl            1.00      2 P:z             2
                        (      -8.456 eV)
    54      54       --         0.226 au  Cl            1.00      3 P:z             2
                        (       6.147 eV)
    55      55       --         2.102 au  Cl            1.00      4 P:z             2
                        (      57.209 eV)
    56      56       --        18.828 au  Cl            1.00      5 P:z             2
                        (     512.342 eV)
    57      57       --         0.386 au  Cl            1.00      1 D:z2            2
                        (      10.511 eV)
    58      58       --         0.386 au  Cl            1.00      1 D:x2-y2         2
                        (      10.511 eV)
    59      59       --         0.386 au  Cl            1.00      1 D:xy            2
                        (      10.511 eV)
    60      60       --         0.386 au  Cl            1.00      1 D:xz            2
                        (      10.511 eV)
    61      61       --         0.386 au  Cl            1.00      1 D:yz            2
                        (      10.511 eV)
    62      62       --         1.190 au  Cl            1.00      1 F:z3            2
                        (      32.371 eV)
    63      63       --         1.190 au  Cl            1.00      1 F:z             2
                        (      32.371 eV)
    64      64       --         1.190 au  Cl            1.00      1 F:xyz           2
                        (      32.371 eV)
    65      65       --         1.190 au  Cl            1.00      1 F:z2x           2
                        (      32.371 eV)
    66      66       --         1.190 au  Cl            1.00      1 F:z2y           2
                        (      32.371 eV)
    67      67       --         1.190 au  Cl            1.00      1 F:x             2
                        (      32.371 eV)
    68      68       --         1.190 au  Cl            1.00      1 F:y             2
                        (      32.371 eV)
    69      69      1.000      -0.240 au  H             1.00      1 S               3
                        (      -6.532 eV)
    70      70       --         0.088 au  H             1.00      2 S               3
                        (       2.394 eV)
    71      71       --         1.502 au  H             1.00      3 S               3
                        (      40.877 eV)
    72      72       --         0.406 au  H             1.00      1 P:x             3
                        (      11.052 eV)
    73      73       --         0.406 au  H             1.00      1 P:y             3
                        (      11.052 eV)
    74      74       --         0.406 au  H             1.00      1 P:z             3
                        (      11.052 eV)
    75      75       --         2.570 au  H             1.00      1 D:z2            3
                        (      69.925 eV)
    76      76       --         2.570 au  H             1.00      1 D:x2-y2         3
                        (      69.925 eV)
    77      77       --         2.570 au  H             1.00      1 D:xy            3
                        (      69.925 eV)
    78      78       --         2.570 au  H             1.00      1 D:xz            3
                        (      69.925 eV)
    79      79       --         2.570 au  H             1.00      1 D:yz            3
                        (      69.925 eV)



 ================================
 (Slater-type)  F U N C T I O N S  ***  (Basis and Fit)  ***
 ================================
  

 Atom Type    1  (Cl)
 ==============

 Valence Basis Sets:  14
 -----------------------
   1 S   20.300000
   1 S   15.250000
   2 S    6.250000
   2 S    4.450000
   2 P    8.850000
   2 P    5.050000
   3 S    3.450000
   3 S    2.300000
   3 S    1.600000
   3 P    3.350000
   3 P    2.050000
   3 P    1.200000
   3 D    2.000000
   4 F    2.000000

 Atom Type    2  (H)
 ==============

 Valence Basis Sets:   5
 -----------------------
   1 S    0.690000
   1 S    0.920000
   1 S    1.580000
   2 P    1.250000
   3 D    2.500000


 BAS: List of all Elementary Cartesian Basis Functions
 =====================================================

 The numbering in the list below (to the right of the function characteristics) is referred
 to in print-outs of MO eigenvectors and Mulliken populations in the BAS representation
 (as contrasted to the SFO representation).

 Notes:
 1. The functions are characterized by a polynomial prefactor (powers of x,y,z and r) and
    an exponential decay factor alpha.
 2. Since the basis sets are specific for an atom TYPE, the individual functions occur on
    all atoms of that type.
 3. The word 'Core' in the left margin signals that it is a Core Function (CF) : not a
    degree of freedom in the valence set, but only used to ensure orthogonalization of
    the other valence basis functions on the frozen Core Orbitals.


 (power of) X  Y  Z  R     Alpha  on Atom
            ==========     =====     ==========

 Cl                                   1    2
                                  ---------------------------------------------------------------------------
            0  0  0  0    20.300      1   39
            0  0  0  0    15.250      2   40
            0  0  0  1     6.250      3   41
            0  0  0  1     4.450      4   42
            1  0  0  0     8.850      5   43
            0  1  0  0     8.850      6   44
            0  0  1  0     8.850      7   45
            1  0  0  0     5.050      8   46
            0  1  0  0     5.050      9   47
            0  0  1  0     5.050     10   48
            0  0  0  2     3.450     11   49
            0  0  0  2     2.300     12   50
            0  0  0  2     1.600     13   51
            1  0  0  1     3.350     14   52
            0  1  0  1     3.350     15   53
            0  0  1  1     3.350     16   54
            1  0  0  1     2.050     17   55
            0  1  0  1     2.050     18   56
            0  0  1  1     2.050     19   57
            1  0  0  1     1.200     20   58
            0  1  0  1     1.200     21   59
            0  0  1  1     1.200     22   60
            2  0  0  0     2.000     23   61
            1  1  0  0     2.000     24   62
            1  0  1  0     2.000     25   63
            0  2  0  0     2.000     26   64
            0  1  1  0     2.000     27   65
            0  0  2  0     2.000     28   66
            3  0  0  0     2.000     29   67
            2  1  0  0     2.000     30   68
            2  0  1  0     2.000     31   69
            1  2  0  0     2.000     32   70
            1  1  1  0     2.000     33   71
            1  0  2  0     2.000     34   72
            0  3  0  0     2.000     35   73
            0  2  1  0     2.000     36   74
            0  1  2  0     2.000     37   75
            0  0  3  0     2.000     38   76

 H                                    3
                                  ---------------------------------------------------------------------------
            0  0  0  0     0.690     77
            0  0  0  0     0.920     78
            0  0  0  0     1.580     79
            1  0  0  0     1.250     80
            0  1  0  0     1.250     81
            0  0  1  0     1.250     82
            2  0  0  0     2.500     83
            1  1  0  0     2.500     84
            1  0  1  0     2.500     85
            0  2  0  0     2.500     86
            0  1  1  0     2.500     87
[...]
 <Apr18-2019> <14:06:04>  energy change                      -0.38336140     0.00010000    F
 <Apr18-2019> <14:06:04>  constrained gradient max            0.01952648     0.00010000    F
 <Apr18-2019> <14:06:04>  constrained gradient rms            0.01139160     0.00006667    F
 <Apr18-2019> <14:06:04>  gradient max                        0.01952648
 <Apr18-2019> <14:06:04>  gradient rms                        0.01139160
 <Apr18-2019> <14:06:04>  cart. step max                      0.11657579     0.01000000    F
 <Apr18-2019> <14:06:04>  cart. step rms                      0.06110412     0.00666667    F
  Coordinates in Geometry Cycle 2
    Atom         X           Y           Z   (Angstrom)
    1.Cl       -3.905775    0.247153   -0.186753
    2.H        -2.782792    0.302850    0.637513
    3.Cl       -1.191929    0.587866    1.739469
 <Apr18-2019> <14:06:04>  >>>> CORORT
 <Apr18-2019> <14:06:04>  >>>> CLSMAT
 <Apr18-2019> <14:06:04>  >>>> ORTHON
 <Apr18-2019> <14:06:04>  >>>> GENPT
 <Apr18-2019> <14:06:04>  Block Length= 128
 <Apr18-2019> <14:06:04>  >>>> PTBAS
 <Apr18-2019> <14:06:04>  >>>> CYCLE
 <Apr18-2019> <14:06:04>              |Error|         MaxErr       Wt(A-DIIS)
 <Apr18-2019> <14:06:04>      1      0.12690133      0.03819495
 <Apr18-2019> <14:06:04>      2      0.05382410      0.01324322    100.0
 <Apr18-2019> <14:06:04>      3      0.02497133      0.00618114    100.0
 <Apr18-2019> <14:06:04>      4      0.04424910      0.01053948    100.0
 <Apr18-2019> <14:06:04>      5      0.00516895      0.00131201      0.3
 <Apr18-2019> <14:06:04>      6      0.00067124      0.00018794      0.0
 <Apr18-2019> <14:06:04>      7      0.00028867      0.00008261      0.0
 <Apr18-2019> <14:06:05>      8      0.00003203      0.00000739      0.0
 <Apr18-2019> <14:06:05>      9      0.00001249      0.00000275      0.0
 <Apr18-2019> <14:06:05>     10      0.00000173      0.00000040      0.0
 <Apr18-2019> <14:06:05>  SCF converged
 <Apr18-2019> <14:06:05>     11      0.00000039      0.00000011      0.0
 <Apr18-2019> <14:06:05>  >>>> TOTEN
 <Apr18-2019> <14:06:05>  >>>> POPAN
 <Apr18-2019> <14:06:05>  >>>> DEBYE
 <Apr18-2019> <14:06:05>  >>>> ENGRAD
 <Apr18-2019> <14:06:05>  current energy                               -0.38808851 Hartree
 <Apr18-2019> <14:06:05>  energy change                      -0.00472711     0.00010000    F
 <Apr18-2019> <14:06:05>  constrained gradient max            0.02261663     0.00010000    F
 <Apr18-2019> <14:06:05>  constrained gradient rms            0.01143595     0.00006667    F
 <Apr18-2019> <14:06:05>  gradient max                        0.02261663
 <Apr18-2019> <14:06:05>  gradient rms                        0.01143595
 <Apr18-2019> <14:06:05>  cart. step max                      0.15000000     0.01000000    F
 <Apr18-2019> <14:06:05>  cart. step rms                      0.08972854     0.00666667    F
  Coordinates in Geometry Cycle 3
    Atom         X           Y           Z   (Angstrom)
    1.Cl       -3.864765    0.158273   -0.127658
    2.H        -2.673802    0.406976    0.686027
    3.Cl       -1.341929    0.572619    1.631859
 <Apr18-2019> <14:06:05>  >>>> CORORT
 <Apr18-2019> <14:06:05>  >>>> CLSMAT
 <Apr18-2019> <14:06:05>  >>>> ORTHON
 <Apr18-2019> <14:06:05>  >>>> GENPT
 <Apr18-2019> <14:06:05>  Block Length= 128
 <Apr18-2019> <14:06:05>  >>>> PTBAS
 <Apr18-2019> <14:06:05>  >>>> CYCLE
 <Apr18-2019> <14:06:05>              |Error|         MaxErr       Wt(A-DIIS)
 <Apr18-2019> <14:06:05>      1      0.32126507      0.09736103
 <Apr18-2019> <14:06:05>      2      0.12766993      0.03407567    100.0
 <Apr18-2019> <14:06:05>      3      0.05767928      0.01596570    100.0
 <Apr18-2019> <14:06:05>      4      0.10838583      0.02834764    100.0
 <Apr18-2019> <14:06:05>      5      0.01442188      0.00426532      3.3
 <Apr18-2019> <14:06:06>      6      0.00145537      0.00032037      0.0
 <Apr18-2019> <14:06:06>      7      0.00058137      0.00016199      0.0
 <Apr18-2019> <14:06:06>      8      0.00011023      0.00003524      0.0
 <Apr18-2019> <14:06:06>      9      0.00002133      0.00000584      0.0
 <Apr18-2019> <14:06:06>     10      0.00000577      0.00000119      0.0
 <Apr18-2019> <14:06:06>     11      0.00000068      0.00000023      0.0
 <Apr18-2019> <14:06:06>  SCF converged
 <Apr18-2019> <14:06:06>     12      0.00000021      0.00000007      0.0
 <Apr18-2019> <14:06:06>  >>>> TOTEN
 <Apr18-2019> <14:06:06>  >>>> POPAN
 <Apr18-2019> <14:06:06>  >>>> DEBYE
 <Apr18-2019> <14:06:06>  >>>> ENGRAD
 <Apr18-2019> <14:06:06>  current energy                               -0.39073328 Hartree
 <Apr18-2019> <14:06:06>  energy change                      -0.00264477     0.00010000    F
 <Apr18-2019> <14:06:06>  constrained gradient max            0.02709786     0.00010000    F
 <Apr18-2019> <14:06:06>  constrained gradient rms            0.01372316     0.00006667    F
 <Apr18-2019> <14:06:06>  gradient max                        0.02709786
 <Apr18-2019> <14:06:06>  gradient rms                        0.01372316
 <Apr18-2019> <14:06:06>  cart. step max                      0.15000000     0.01000000    F
 <Apr18-2019> <14:06:06>  cart. step rms                      0.06679510     0.00666667    F
  Coordinates in Geometry Cycle 4
    Atom         X           Y           Z   (Angstrom)
    1.Cl       -3.912163    0.008273   -0.115358
    2.H        -2.665515    0.447833    0.679211
    3.Cl       -1.302817    0.681762    1.626376
 <Apr18-2019> <14:06:06>  >>>> CORORT
 <Apr18-2019> <14:06:06>  >>>> CLSMAT
 <Apr18-2019> <14:06:06>  >>>> ORTHON
 <Apr18-2019> <14:06:06>  >>>> GENPT
 <Apr18-2019> <14:06:06>  Block Length= 128
 <Apr18-2019> <14:06:06>  >>>> PTBAS
 <Apr18-2019> <14:06:06>  >>>> CYCLE
 <Apr18-2019> <14:06:06>              |Error|         MaxErr       Wt(A-DIIS)
 <Apr18-2019> <14:06:06>      1      0.15780489      0.05274021
 <Apr18-2019> <14:06:07>      2      0.04003916      0.00817776    100.0
 <Apr18-2019> <14:06:07>      3      0.06838568      0.01384176    100.0
 <Apr18-2019> <14:06:07>      4      0.01052581      0.00243394      1.4
 <Apr18-2019> <14:06:07>      5      0.00219417      0.00049571      0.0
 <Apr18-2019> <14:06:07>      6      0.00033568      0.00007672      0.0
 <Apr18-2019> <14:06:07>      7      0.00011278      0.00002076      0.0
 <Apr18-2019> <14:06:07>      8      0.00001137      0.00000272      0.0
 <Apr18-2019> <14:06:07>      9      0.00000573      0.00000133      0.0
 <Apr18-2019> <14:06:07>     10      0.00000048      0.00000009      0.0
 <Apr18-2019> <14:06:07>  SCF converged
 <Apr18-2019> <14:06:07>     11      0.00000015      0.00000006      0.0
 <Apr18-2019> <14:06:07>  >>>> TOTEN
 <Apr18-2019> <14:06:07>  >>>> POPAN
 <Apr18-2019> <14:06:07>  >>>> DEBYE
 <Apr18-2019> <14:06:07>  >>>> ENGRAD
 <Apr18-2019> <14:06:07>  current energy                               -0.39148225 Hartree
 <Apr18-2019> <14:06:07>  energy change                      -0.00074897     0.00010000    F
 <Apr18-2019> <14:06:07>  constrained gradient max            0.00905200     0.00010000    F
 <Apr18-2019> <14:06:07>  constrained gradient rms            0.00529112     0.00006667    F
 <Apr18-2019> <14:06:07>  gradient max                        0.00905200
 <Apr18-2019> <14:06:07>  gradient rms                        0.00529112
 <Apr18-2019> <14:06:07>  cart. step max                      0.10261369     0.01000000    F
 <Apr18-2019> <14:06:07>  cart. step rms                      0.04613234     0.00666667    F
  Coordinates in Geometry Cycle 5
    Atom         X           Y           Z   (Angstrom)
    1.Cl       -3.903369   -0.020144   -0.099702
    2.H        -2.667342    0.373637    0.701504
    3.Cl       -1.309784    0.784376    1.588426
 <Apr18-2019> <14:06:07>  >>>> CORORT
 <Apr18-2019> <14:06:07>  >>>> CLSMAT
 <Apr18-2019> <14:06:07>  >>>> ORTHON
 <Apr18-2019> <14:06:07>  >>>> GENPT
 <Apr18-2019> <14:06:07>  Block Length= 128
 <Apr18-2019> <14:06:07>  >>>> PTBAS
 <Apr18-2019> <14:06:07>  >>>> CYCLE
 <Apr18-2019> <14:06:08>              |Error|         MaxErr       Wt(A-DIIS)
 <Apr18-2019> <14:06:08>      1      0.05266531      0.02025919
 <Apr18-2019> <14:06:08>      2      0.01115451      0.00254470    100.0
 <Apr18-2019> <14:06:08>      3      0.00612508      0.00155113    100.0
 <Apr18-2019> <14:06:08>      4      0.00807626      0.00203006    100.0
 <Apr18-2019> <14:06:08>      5      0.00163036      0.00031606      0.0
 <Apr18-2019> <14:06:08>      6      0.00013527      0.00003542      0.0
 <Apr18-2019> <14:06:08>      7      0.00004908      0.00001182      0.0
 <Apr18-2019> <14:06:08>      8      0.00000342      0.00000092      0.0
 <Apr18-2019> <14:06:08>  SCF converged
 <Apr18-2019> <14:06:08>      9      0.00000155      0.00000059      0.0
 <Apr18-2019> <14:06:08>  >>>> TOTEN
 <Apr18-2019> <14:06:08>  >>>> POPAN
 <Apr18-2019> <14:06:08>  >>>> DEBYE
 <Apr18-2019> <14:06:08>  >>>> ENGRAD
 <Apr18-2019> <14:06:08>  current energy                               -0.39210564 Hartree
 <Apr18-2019> <14:06:08>  energy change                      -0.00062340     0.00010000    F
 <Apr18-2019> <14:06:08>  constrained gradient max            0.00577307     0.00010000    F
 <Apr18-2019> <14:06:08>  constrained gradient rms            0.00292738     0.00006667    F
 <Apr18-2019> <14:06:08>  gradient max                        0.00577307
 <Apr18-2019> <14:06:08>  gradient rms                        0.00292738
 <Apr18-2019> <14:06:08>  cart. step max                      0.09848725     0.01000000    F
 <Apr18-2019> <14:06:08>  cart. step rms                      0.05356973     0.00666667    F
  Coordinates in Geometry Cycle 6
    Atom         X           Y           Z   (Angstrom)
    1.Cl       -3.901191   -0.118632   -0.066658
    2.H        -2.626941    0.387031    0.727525
    3.Cl       -1.352363    0.869469    1.529362
 <Apr18-2019> <14:06:08>  >>>> CORORT
 <Apr18-2019> <14:06:08>  >>>> CLSMAT
 <Apr18-2019> <14:06:08>  >>>> ORTHON
 <Apr18-2019> <14:06:08>  >>>> GENPT
 <Apr18-2019> <14:06:08>  Block Length= 128
 <Apr18-2019> <14:06:08>  >>>> PTBAS
 <Apr18-2019> <14:06:09>  >>>> CYCLE
 <Apr18-2019> <14:06:09>              |Error|         MaxErr       Wt(A-DIIS)
 <Apr18-2019> <14:06:09>      1      0.15321350      0.04481474
 <Apr18-2019> <14:06:09>      2      0.06486500      0.01648797    100.0
 <Apr18-2019> <14:06:09>      3      0.02837979      0.00722880    100.0
 <Apr18-2019> <14:06:09>      4      0.05575230      0.01394711    100.0
 <Apr18-2019> <14:06:09>      5      0.00807040      0.00213061      1.1
 <Apr18-2019> <14:06:09>      6      0.00065658      0.00020479      0.0
 <Apr18-2019> <14:06:09>      7      0.00026106      0.00008735      0.0
 <Apr18-2019> <14:06:09>      8      0.00003316      0.00000959      0.0
 <Apr18-2019> <14:06:09>      9      0.00001072      0.00000246      0.0
 <Apr18-2019> <14:06:09>     10      0.00000116      0.00000029      0.0
 <Apr18-2019> <14:06:09>  SCF converged
 <Apr18-2019> <14:06:09>     11      0.00000036      0.00000011      0.0
 <Apr18-2019> <14:06:09>  >>>> TOTEN
 <Apr18-2019> <14:06:09>  >>>> POPAN
 <Apr18-2019> <14:06:09>  >>>> DEBYE
 <Apr18-2019> <14:06:10>  >>>> ENGRAD
 <Apr18-2019> <14:06:10>  current energy                               -0.39233355 Hartree
 <Apr18-2019> <14:06:10>  energy change                      -0.00022791     0.00010000    F
 <Apr18-2019> <14:06:10>  constrained gradient max            0.00338431     0.00010000    F
 <Apr18-2019> <14:06:10>  constrained gradient rms            0.00201324     0.00006667    F
 <Apr18-2019> <14:06:10>  gradient max                        0.00338431
 <Apr18-2019> <14:06:10>  gradient rms                        0.00201324
 <Apr18-2019> <14:06:10>  cart. step max                      0.06712841     0.01000000    F
 <Apr18-2019> <14:06:10>  cart. step rms                      0.03101946     0.00666667    F
  Coordinates in Geometry Cycle 7
    Atom         X           Y           Z   (Angstrom)
    1.Cl       -3.910909   -0.178298   -0.054915
    2.H        -2.629419    0.379569    0.728047
    3.Cl       -1.340167    0.936598    1.517097
 <Apr18-2019> <14:06:10>  >>>> CORORT
 <Apr18-2019> <14:06:10>  >>>> CLSMAT
 <Apr18-2019> <14:06:10>  >>>> ORTHON
 <Apr18-2019> <14:06:10>  >>>> GENPT
 <Apr18-2019> <14:06:10>  Block Length= 128
 <Apr18-2019> <14:06:10>  >>>> PTBAS
 <Apr18-2019> <14:06:10>  >>>> CYCLE
 <Apr18-2019> <14:06:10>              |Error|         MaxErr       Wt(A-DIIS)
 <Apr18-2019> <14:06:10>      1      0.05765574      0.01629432
 <Apr18-2019> <14:06:10>      2      0.01134442      0.00233865    100.0
 <Apr18-2019> <14:06:10>      3      0.01788718      0.00357488    100.0
 <Apr18-2019> <14:06:10>      4      0.00256086      0.00064481      0.0
 <Apr18-2019> <14:06:10>      5      0.00066239      0.00014380      0.0
 <Apr18-2019> <14:06:10>      6      0.00009977      0.00002714      0.0
 <Apr18-2019> <14:06:10>      7      0.00002754      0.00000517      0.0
 <Apr18-2019> <14:06:10>      8      0.00000351      0.00000083      0.0
 <Apr18-2019> <14:06:10>  SCF converged
 <Apr18-2019> <14:06:10>      9      0.00000167      0.00000043      0.0
 <Apr18-2019> <14:06:10>  >>>> TOTEN
 <Apr18-2019> <14:06:11>  >>>> POPAN
 <Apr18-2019> <14:06:11>  >>>> DEBYE
 <Apr18-2019> <14:06:11>  >>>> ENGRAD
 <Apr18-2019> <14:06:11>  current energy                               -0.39227881 Hartree
 <Apr18-2019> <14:06:11>  energy change                       0.00005474     0.00010000    T
 <Apr18-2019> <14:06:11>  constrained gradient max            0.00542843     0.00010000    F
 <Apr18-2019> <14:06:11>  constrained gradient rms            0.00311983     0.00006667    F
 <Apr18-2019> <14:06:11>  gradient max                        0.00542843
 <Apr18-2019> <14:06:11>  gradient rms                        0.00311983
 <Apr18-2019> <14:06:11>  cart. step max                      0.01464197     0.01000000    F
 <Apr18-2019> <14:06:11>  cart. step rms                      0.00777701     0.00666667    F
  Coordinates in Geometry Cycle 8
    Atom         X           Y           Z   (Angstrom)
    1.Cl       -3.903822   -0.171423   -0.051794
    2.H        -2.621958    0.381391    0.733060
    3.Cl       -1.354716    0.927900    1.508962
 <Apr18-2019> <14:06:11>  >>>> CORORT
 <Apr18-2019> <14:06:11>  >>>> CLSMAT
 <Apr18-2019> <14:06:11>  >>>> ORTHON
 <Apr18-2019> <14:06:11>  >>>> GENPT
 <Apr18-2019> <14:06:11>  Block Length= 128
 <Apr18-2019> <14:06:11>  >>>> PTBAS
 <Apr18-2019> <14:06:11>  >>>> CYCLE
 <Apr18-2019> <14:06:11>              |Error|         MaxErr       Wt(A-DIIS)
 <Apr18-2019> <14:06:11>      1      0.03973540      0.01458949
 <Apr18-2019> <14:06:11>      2      0.01292063      0.00296444    100.0
 <Apr18-2019> <14:06:11>      3      0.00578892      0.00130511    100.0
 <Apr18-2019> <14:06:11>      4      0.01092191      0.00241176    100.0
 <Apr18-2019> <14:06:11>      5      0.00160606      0.00033933      0.0
 <Apr18-2019> <14:06:11>      6      0.00012429      0.00003016      0.0
 <Apr18-2019> <14:06:11>      7      0.00005504      0.00001150      0.0
 <Apr18-2019> <14:06:11>      8      0.00000518      0.00000116      0.0
 <Apr18-2019> <14:06:11>      9      0.00000170      0.00000050      0.0
 <Apr18-2019> <14:06:11>  SCF converged
 <Apr18-2019> <14:06:11>     10      0.00000030      0.00000008      0.0
 <Apr18-2019> <14:06:12>  >>>> TOTEN
 <Apr18-2019> <14:06:12>  >>>> POPAN
 <Apr18-2019> <14:06:12>  >>>> DEBYE
 <Apr18-2019> <14:06:12>  >>>> ENGRAD
 <Apr18-2019> <14:06:12>  current energy                               -0.39237378 Hartree
 <Apr18-2019> <14:06:12>  energy change                      -0.00009497     0.00010000    T
 <Apr18-2019> <14:06:12>  constrained gradient max            0.00070322     0.00010000    F
 <Apr18-2019> <14:06:12>  constrained gradient rms            0.00039496     0.00006667    F
 <Apr18-2019> <14:06:12>  gradient max                        0.00070322
 <Apr18-2019> <14:06:12>  gradient rms                        0.00039496
 <Apr18-2019> <14:06:12>  cart. step max                      0.02205370     0.01000000    F
 <Apr18-2019> <14:06:12>  cart. step rms                      0.01120904     0.00666667    F
  Coordinates in Geometry Cycle 9
    Atom         X           Y           Z   (Angstrom)
    1.Cl       -3.903580   -0.149383   -0.058781
    2.H        -2.627414    0.379048    0.729716
    3.Cl       -1.349501    0.908203    1.519293
 <Apr18-2019> <14:06:12>  >>>> CORORT
 <Apr18-2019> <14:06:12>  >>>> CLSMAT
 <Apr18-2019> <14:06:12>  >>>> ORTHON
 <Apr18-2019> <14:06:12>  >>>> GENPT
 <Apr18-2019> <14:06:12>  Block Length= 128
 <Apr18-2019> <14:06:12>  >>>> PTBAS
 <Apr18-2019> <14:06:12>  >>>> CYCLE
 <Apr18-2019> <14:06:12>              |Error|         MaxErr       Wt(A-DIIS)
 <Apr18-2019> <14:06:12>      1      0.02224282      0.00577233
 <Apr18-2019> <14:06:12>      2      0.00901043      0.00225213    100.0
 <Apr18-2019> <14:06:12>      3      0.00393883      0.00097674    100.0
 <Apr18-2019> <14:06:12>      4      0.00771282      0.00184399    100.0
 <Apr18-2019> <14:06:12>      5      0.00109935      0.00027236      0.0
 <Apr18-2019> <14:06:12>      6      0.00008574      0.00001814      0.0
 <Apr18-2019> <14:06:12>      7      0.00003842      0.00000952      0.0
 <Apr18-2019> <14:06:12>      8      0.00000365      0.00000093      0.0
 <Apr18-2019> <14:06:12>  SCF converged
 <Apr18-2019> <14:06:13>      9      0.00000182      0.00000037      0.0
 <Apr18-2019> <14:06:13>  >>>> TOTEN
 <Apr18-2019> <14:06:13>  >>>> POPAN
 <Apr18-2019> <14:06:13>  >>>> DEBYE
 <Apr18-2019> <14:06:13>  >>>> ENGRAD
 <Apr18-2019> <14:06:13>  current energy                               -0.39237706 Hartree
 <Apr18-2019> <14:06:13>  energy change                      -0.00000328     0.00010000    T
 <Apr18-2019> <14:06:13>  constrained gradient max            0.00008356     0.00010000    T
 <Apr18-2019> <14:06:13>  constrained gradient rms            0.00004265     0.00006667    T
 <Apr18-2019> <14:06:13>  gradient max                        0.00008356
 <Apr18-2019> <14:06:13>  gradient rms                        0.00004265
 <Apr18-2019> <14:06:13>  cart. step max                      0.00091377     0.01000000    T
 <Apr18-2019> <14:06:13>  cart. step rms                      0.00044985     0.00666667    T
 <Apr18-2019> <14:06:13>  GEOMETRY CONVERGED
 <Apr18-2019> <14:06:13>  Calculating Energy Terms for Final Geometry
  Coordinates in Geometry Cycle 9
    Atom         X           Y           Z   (Angstrom)
    1.Cl       -3.903580   -0.149383   -0.058781
    2.H        -2.627414    0.379048    0.729716
    3.Cl       -1.349501    0.908203    1.519293
 <Apr18-2019> <14:06:13>  >>>> CORORT
 <Apr18-2019> <14:06:13>  >>>> CLSMAT
 <Apr18-2019> <14:06:13>  >>>> ORTHON
 <Apr18-2019> <14:06:13>  >>>> GENPT
 <Apr18-2019> <14:06:13>  Block Length= 128
 <Apr18-2019> <14:06:13>  >>>> PTBAS
 <Apr18-2019> <14:06:13>  >>>> CYCLE
 <Apr18-2019> <14:06:13>              |Error|         MaxErr       Wt(A-DIIS)
 <Apr18-2019> <14:06:13>      1      0.00000014      0.00000004
 <Apr18-2019> <14:06:13>      2      0.00000019      0.00000006    100.0
 <Apr18-2019> <14:06:13>  SCF converged
 <Apr18-2019> <14:06:13>      3      0.00000029      0.00000008    100.0
 <Apr18-2019> <14:06:13>  >>>> TOTEN
 <Apr18-2019> <14:06:13>  >>>> POPAN
 <Apr18-2019> <14:06:13>  >>>> DEBYE
 <Apr18-2019> <14:06:13>  >>>> AMETS
 <Apr18-2019> <14:06:13>  >>>> POPUL
 <Apr18-2019> <14:06:13>   Bond Energy          -0.39237706 a.u.
 <Apr18-2019> <14:06:13>   Bond Energy         -10.67712298 eV
 <Apr18-2019> <14:06:13>   Bond Energy        -246.22       kcal/mol
 <Apr18-2019> <14:06:13>  >>>> ENHESS
 <Apr18-2019> <14:06:13>  === NUCLEUS:     1
 <Apr18-2019> <14:06:15>  === NUCLEUS:     2
 <Apr18-2019> <14:06:17>  === NUCLEUS:     3
 <Apr18-2019> <14:06:18>  >>>> CALC_HESS_PMAT
 <Apr18-2019> <14:06:18>  >>>> CALC_HESS_WMAT
 <Apr18-2019> <14:06:18>  NORMAL TERMINATION
 <Apr18-2019> <14:06:18>  END
