

 Parallel Execution: Process Information
 ==============================================================================
 Rank   Node Name                              NodeID   MyNodeRank  NodeMaster
    0   BAZIS-cn022                               0          0          0
    1   BAZIS-cn022                               0          1         -1
    2   BAZIS-cn022                               0          2         -1
    3   BAZIS-cn022                               0          3         -1
    4   BAZIS-cn022                               0          4         -1
    5   BAZIS-cn022                               0          5         -1
    6   BAZIS-cn022                               0          6         -1
    7   BAZIS-cn022                               0          7         -1
    8   BAZIS-cn022                               0          8         -1
    9   BAZIS-cn022                               0          9         -1
   10   BAZIS-cn022                               0         10         -1
   11   BAZIS-cn022                               0         11         -1
 ==============================================================================


May use up to 30771MB of RAM as shared memory on node 0


XC
    GGA BP86
END

SCF
    iterations 250
END

EPRINT
    SFO Eig Ovl
END

ZLMFIT
    Quality normal
END

BECKEGRID
    Quality good
End

SYMMETRY nosym
CHARGE -1

ATOMS
1.F        -4.944608    3.131607   -0.046738 f=FCl
2.Cl       -3.904822    1.425360    0.006848 f=FCl
3.F        -5.925951    4.741952   -0.097312 f=F
END

Fragments
FCl /home/tcst25/advanced_comp_chemistry/exercise2/halogen/ClFF/frag1_FCl.t21
F /home/tcst25/advanced_comp_chemistry/exercise2/halogen/ClFF/frag2_F.t21
End
end input

 *******************************************************************************
 *                                                                             *
 *  -------------------------------------                                      *
 *   Amsterdam Density Functional  (ADF)         2017                          *
 *  -------------------------------------                                      *
 *                                               r58813 2017-04-12             *
 *                                                                             *
 *                                                                             *
 *                              =================                              *
 *                              |               |                              *
 *                              |     A D F     |                              *
 *                              |               |                              *
 *                              =================                              *
 *                                                                             *
 *                                                                             *
 *   Online information and documentation:  https://www.scm.com/support/       *
 *   E-mail:  support@scm.com   info@scm.com                                   *
 *                                                                             *
 *   Scientific publications using ADF results must be properly referenced     *
 *   See the User Manuals (or the web site) for recommended citations          *
 *   The terms and conditions of the End User License Agreement apply to       *
 *   the use of ADF, https://www.scm.com/license-terms/                        *
 *                                                                             *
 **********************  x86_64_linux_intel / intelmpi  ************************
 
 Licensed to: VU/FEW (+ SARA) / ALGEMEEN / Amsterdam / THE NETHERLANDS
 SCM User ID: u7668
  
 ADF 2017  RunTime: May09-2019 17:12:11  Nodes: 1  Procs: 12

 Temporary files are created in /local/datastore0/tcst25/189782/kid_0.bGbUmC


Communication costs MPI_COMM_WORLD:      3.879 usec per message,   0.0179 usec per 8-byte item
Communication costs for intra-node:      3.893 usec per message,   0.0177 usec per 8-byte item

 *** (NO TITLE) ***



 ===========================
 A T T A C H E D   F I L E S
 ===========================
  



 ===============================
 M O D E L   P A R A M E T E R S
 ===============================
  
 DENSITY FUNCTIONAL POTENTIAL (scf)
    LDA:                               VWN                                      
    Gradient Corrections:              Becke88 Perdew86                        == Not Default ==

 SPIN  (restricted / unrestr.)
    Molecule:                          Restricted                               
    Fragments:                         Restricted                               

 OTHER ASPECTS
    Relativistic Corrections:          ---                                      

    Nuclear Charge Density Model:      Point Charge Nuclei                      
    Core Treatment:                    Frozen Orbital(s)                        

    Hyperfine or Zeeman Interaction:   ---                                      


 Fragment File(s)
 ----------------
 FCl:
         file : /home/tcst25/advanced_comp_chemistry/exercise2/halogen/ClFF/frag1_FCl.t21
         jobid: ADF 2017  RunTime: May09-2019 16:32:27  Nodes: 1  Procs: 12
         title: *** (NO TITLE) ***
 F:
         file : /home/tcst25/advanced_comp_chemistry/exercise2/halogen/ClFF/frag2_F.t21
         jobid: ADF 2017  RunTime: May09-2019 16:32:26  Nodes: 1  Procs: 12
         title: *** (NO TITLE) ***



                                        ************************************
                                        *  R U N   T Y P E : SINGLE POINT  *
                                        ************************************
  



 ===============
 G E O M E T R Y  ***  Linear Molecule  ***
 ===============
  

 ATOMS
 =====                            X Y Z                    CHARGE
                                (Angstrom)             Nucl     +Core       At.Mass
                       --------------------------    ----------------       -------
    1  F              -4.9446    3.1316   -0.0467      9.00      9.00       18.9984
    2  Cl             -3.9048    1.4254    0.0068     17.00     17.00       34.9689
    3  F              -5.9260    4.7420   -0.0973      9.00      9.00       18.9984


 FRAGMENTS
 =========                                     Atoms in this Fragment     Cart. coord.s (Angstrom)
                                               -------------------------------------------------------
    1  FCl                                               1  F           -4.9446    3.1316   -0.0467
                                                         2  Cl          -3.9048    1.4254    0.0068
    2  F                                                 3  F           -5.9260    4.7420   -0.0973


 Interatomic Distance Matrix (Angstrom)
 --------------------------------------

   1)     0.000
   2)     1.999   0.000
   3)     1.886   3.885   0.000

 Min. Distance =    1.8865
 Max. Distance =    3.8853



 =====================================
 S Y M M E T R Y ,   E L E C T R O N S
 =====================================
  
 Symmetry: NOSYM

 Irreducible Representations, including subspecies
 -------------------------------------------------
 A


 Configuration of Valence Electrons
 ==================================
 ( determined in the SCF procedure )

 Total:   36

 Net Charge: -1 (Nuclei minus Electrons)

 Aufbau principle for MO occupations will be applied through SCF cycle no.     125
 Thereafter, the program will assign electrons to MOs that are spatially
 similar to the occupied MOs in a "reference" cycle ("KeepOrbitals").
 The reference cycle is always the PREVIOUS cycle: it will evolve with
 the SCF procedure.
1
 ***************************************************************************************************



                                      ****************************************
                                      *  B U I L D : (Fragments, Functions)  *
                                      ****************************************
  

 The individual fragments are copies of the corresponding 'Master' fragments defined on the fragment files.
 However, they may have been rotated (and translated) with respect to the Master. The local coordinate axes
 of each fragment (which define for instance the spatial orientation in the current molecule of a fragment
 P:x orbital) are not necessarily those of the molecule.
 The local frame (if different from the molecular one) is printed to enable an interpretation of the expan-
 sion of an MO in Fragment Orbitals.



                                             *************************
                                             *  Fragment Type : FCl  *
                                             *************************
  

 Fragment no.    1   (in the list of all fragments)
 -----------------
 The local coordinate frame is identical to the molecular frame.

 Check Atomic Coordinates:

                  Master (on file)          After Computed Tranformation               As specified on Input
           ----------------------------     ----------------------------     ---------------------------------
     1)    -4.94461   3.13161  -0.04674     -4.94461   3.13161  -0.04674       1  -4.94461   3.13161  -0.04674
     2)    -3.90482   1.42536   0.00685     -3.90482   1.42536   0.00685       2  -3.90482   1.42536   0.00685



                                              ***********************
                                              *  Fragment Type : F  *
                                              ***********************
  

 Fragment no.    2   (in the list of all fragments)
 -----------------
 The local coordinate frame is identical to the molecular frame.

 Check Atomic Coordinates:

                  Master (on file)          After Computed Tranformation               As specified on Input
           ----------------------------     ----------------------------     ---------------------------------
     1)    -5.92595   4.74195  -0.09731     -5.92595   4.74195  -0.09731       3  -5.92595   4.74195  -0.09731



 =======
 S F O s  ***  (Symmetrized Fragment Orbitals)  ***
 =======
  
 SFOs are linear combinations of (valence) Fragment Orbitals (FOs), such that the SFOs transform as the
 irreducible representations of the (molecular) symmetry group. Each SFO is therefore characterized by
 an irrep of the molecule and by a few (or only one) generating FOs.
 The SFOs constitute a symmetry-adapted basis for the Fock matrix. The MO eigenvector coefficients in
 this basis provide a direct interpretation of the MOs in terms of Frontier Orbital Theory.

 The SFOs are combined with auxiliary Core Functions (CFs) to ensure orthogonalization on the (frozen)
 Core Orbitals (COs). The Core-orthogonalized SFOs (CSFOs) constitute the true Fock basis.

 The FOs, and hence also the (C)SFOs are combinations of the elementary basis functions (BAS). The basis
 functions that participate in the description of the SFOs depend on the irrep. The indices of the
 involved functions are printed below for each irrep.
 (The complete list of primitive basis functions is printed in another section)

 Total nr. of (C)SFOs (summation over all irreps) :    86

 NOTE: a (C)SFO that is defined as a combination of more than one FO is usually NOT normalized.



                                       === A ===
 Nr. of SFOs :   86
 Cartesian basis functions that participate in this irrep (total number =    98) :
      1     2     3     4     5     6     9    12     7    10
     13     8    11    14    15    16    17    18    19    20
     21    22    23    24    25    26    27    28    29    30
     31    32    33    34    41    42    43    35    38    44
     47    50    36    39    45    48    51    37    40    46
     49    52    53    54    55    56    57    58    59    60
     61    62    63    64    65    66    67    68    69    70
     71    72    73    74    77    80    75    78    81    76
     79    82    83    84    85    86    87    88    89    90
     91    92    93    94    95    96    97    98

    SFO  (index         Fragment          Generating    Expansion in Fragment Orbitals
  indx  incl.CFs)   Occup   Orb.Energy   FragmentType  Coeff.   Orbital     on Fragment
 --------------------------------------------------------------------------------------
     1       1      2.000    -100.820 au  FCl           1.00      1 A               1
                        (   -2743.447 eV)
     2       2      2.000     -24.331 au  FCl           1.00      2 A               1
                        (    -662.086 eV)
     3       3      2.000      -9.267 au  FCl           1.00      3 A               1
                        (    -252.173 eV)
     4       4      2.000      -7.104 au  FCl           1.00      4 A               1
                        (    -193.320 eV)
     5       5      2.000      -7.082 au  FCl           1.00      5 A               1
                        (    -192.720 eV)
     6       6      2.000      -7.082 au  FCl           1.00      6 A               1
                        (    -192.720 eV)
     7       7      2.000      -1.065 au  FCl           1.00      7 A               1
                        (     -28.993 eV)
     8       8      2.000      -0.782 au  FCl           1.00      8 A               1
                        (     -21.273 eV)
     9       9      2.000      -0.451 au  FCl           1.00      9 A               1
                        (     -12.282 eV)
    10      10      2.000      -0.379 au  FCl           1.00     10 A               1
                        (     -10.303 eV)
    11      11      2.000      -0.379 au  FCl           1.00     11 A               1
                        (     -10.303 eV)
    12      12      2.000      -0.316 au  FCl           1.00     12 A               1
                        (      -8.604 eV)
    13      13      2.000      -0.316 au  FCl           1.00     13 A               1
                        (      -8.604 eV)
    14      14       --        -0.268 au  FCl           1.00     14 A               1
                        (      -7.289 eV)
    15      15       --         0.037 au  FCl           1.00     15 A               1
                        (       1.014 eV)
    16      16       --         0.186 au  FCl           1.00     16 A               1
                        (       5.054 eV)
    17      17       --         0.219 au  FCl           1.00     17 A               1
                        (       5.946 eV)
    18      18       --         0.219 au  FCl           1.00     18 A               1
                        (       5.946 eV)
    19      19       --         0.272 au  FCl           1.00     19 A               1
                        (       7.401 eV)
    20      20       --         0.318 au  FCl           1.00     20 A               1
                        (       8.661 eV)
    21      21       --         0.318 au  FCl           1.00     21 A               1
                        (       8.661 eV)
    22      22       --         0.368 au  FCl           1.00     22 A               1
                        (      10.004 eV)
    23      23       --         0.368 au  FCl           1.00     23 A               1
                        (      10.004 eV)
    24      24       --         0.469 au  FCl           1.00     24 A               1
                        (      12.769 eV)
    25      25       --         0.556 au  FCl           1.00     25 A               1
                        (      15.121 eV)
    26      26       --         0.556 au  FCl           1.00     26 A               1
                        (      15.121 eV)
    27      27       --         0.706 au  FCl           1.00     27 A               1
                        (      19.224 eV)
    28      28       --         1.032 au  FCl           1.00     28 A               1
                        (      28.094 eV)
    29      29       --         1.032 au  FCl           1.00     29 A               1
                        (      28.094 eV)
    30      30       --         1.054 au  FCl           1.00     30 A               1
                        (      28.671 eV)
    31      31       --         1.054 au  FCl           1.00     31 A               1
                        (      28.671 eV)
    32      32       --         1.179 au  FCl           1.00     32 A               1
                        (      32.077 eV)
    33      33       --         1.179 au  FCl           1.00     33 A               1
                        (      32.077 eV)
    34      34       --         1.282 au  FCl           1.00     34 A               1
                        (      34.878 eV)
    35      35       --         1.326 au  FCl           1.00     35 A               1
                        (      36.089 eV)
    36      36       --         1.326 au  FCl           1.00     36 A               1
                        (      36.089 eV)
    37      37       --         1.391 au  FCl           1.00     37 A               1
                        (      37.851 eV)
    38      38       --         1.557 au  FCl           1.00     38 A               1
                        (      42.370 eV)
    39      39       --         1.557 au  FCl           1.00     39 A               1
                        (      42.370 eV)
    40      40       --         1.847 au  FCl           1.00     40 A               1
                        (      50.262 eV)
    41      41       --         2.093 au  FCl           1.00     41 A               1
                        (      56.962 eV)
    42      42       --         2.093 au  FCl           1.00     42 A               1
                        (      56.962 eV)
    43      43       --         2.106 au  FCl           1.00     43 A               1
                        (      57.298 eV)
    44      44       --         2.593 au  FCl           1.00     44 A               1
                        (      70.546 eV)
    45      45       --         3.464 au  FCl           1.00     45 A               1
                        (      94.255 eV)
    46      46       --         3.464 au  FCl           1.00     46 A               1
                        (      94.255 eV)
    47      47       --         3.504 au  FCl           1.00     47 A               1
                        (      95.352 eV)
    48      48       --         3.504 au  FCl           1.00     48 A               1
                        (      95.352 eV)
    49      49       --         3.648 au  FCl           1.00     49 A               1
                        (      99.262 eV)
    50      50       --         3.648 au  FCl           1.00     50 A               1
                        (      99.262 eV)
    51      51       --         3.816 au  FCl           1.00     51 A               1
                        (     103.828 eV)
    52      52       --         4.714 au  FCl           1.00     52 A               1
                        (     128.287 eV)
    53      53       --         4.714 au  FCl           1.00     53 A               1
                        (     128.288 eV)
    54      54       --         5.159 au  FCl           1.00     54 A               1
                        (     140.374 eV)
    55      55       --        13.120 au  FCl           1.00     55 A               1
                        (     357.020 eV)
    56      56       --        18.838 au  FCl           1.00     56 A               1
                        (     512.604 eV)
    57      57       --        18.838 au  FCl           1.00     57 A               1
                        (     512.605 eV)
    58      58       --        19.265 au  FCl           1.00     58 A               1
                        (     524.234 eV)
    59      59       --        49.266 au  FCl           1.00     59 A               1
                        (    1340.586 eV)
    60      60       --       216.200 au  FCl           1.00     60 A               1
                        (    5883.097 eV)
    61      61      2.000     -23.791 au  F             1.00      1 A               2
                        (    -647.398 eV)
    62      62      2.000      -0.555 au  F             1.00      2 A               2
                        (     -15.093 eV)
    63      63      2.000       0.108 au  F             1.00      3 A               2
                        (       2.944 eV)
    64      64      2.000       0.108 au  F             1.00      4 A               2
                        (       2.944 eV)
    65      65      2.000       0.108 au  F             1.00      5 A               2
                        (       2.944 eV)
    66      66       --         0.286 au  F             1.00      6 A               2
                        (       7.773 eV)
    67      67       --         0.812 au  F             1.00      7 A               2
                        (      22.092 eV)
    68      68       --         0.812 au  F             1.00      8 A               2
                        (      22.092 eV)
    69      69       --         0.812 au  F             1.00      9 A               2
                        (      22.092 eV)
    70      70       --         1.566 au  F             1.00     10 A               2
                        (      42.603 eV)
    71      71       --         1.566 au  F             1.00     11 A               2
                        (      42.603 eV)
    72      72       --         1.566 au  F             1.00     12 A               2
                        (      42.603 eV)
    73      73       --         1.566 au  F             1.00     13 A               2
                        (      42.603 eV)
    74      74       --         1.566 au  F             1.00     14 A               2
                        (      42.603 eV)
    75      75       --         2.040 au  F             1.00     15 A               2
                        (      55.515 eV)
    76      76       --         3.896 au  F             1.00     16 A               2
                        (     106.020 eV)
    77      77       --         3.896 au  F             1.00     17 A               2
                        (     106.020 eV)
    78      78       --         3.896 au  F             1.00     18 A               2
                        (     106.020 eV)
    79      79       --         3.896 au  F             1.00     19 A               2
                        (     106.020 eV)
    80      80       --         3.896 au  F             1.00     20 A               2
                        (     106.020 eV)
    81      81       --         3.896 au  F             1.00     21 A               2
                        (     106.020 eV)
    82      82       --         3.896 au  F             1.00     22 A               2
                        (     106.020 eV)
    83      83       --         5.088 au  F             1.00     23 A               2
                        (     138.458 eV)
    84      84       --         5.088 au  F             1.00     24 A               2
                        (     138.458 eV)
    85      85       --         5.088 au  F             1.00     25 A               2
                        (     138.458 eV)
    86      86       --        48.938 au  F             1.00     26 A               2
                        (    1331.672 eV)



 ================================
 (Slater-type)  F U N C T I O N S  ***  (Basis and Fit)  ***
 ================================
  

 Atom Type    1  (F)
 ==============

 Valence Basis Sets:  10
 -----------------------
   1 S   10.880000
   1 S    7.700000
   2 S    3.240000
   2 S    1.940000
   2 S    0.740000
   2 P    4.540000
   2 P    2.300000
   2 P    1.240000
   3 D    2.000000
   4 F    3.000000

 Atom Type    2  (Cl)
 ==============

 Valence Basis Sets:  14
 -----------------------
   1 S   20.300000
   1 S   15.250000
   2 S    6.250000
   2 S    4.450000
   2 P    8.850000
   2 P    5.050000
   3 S    3.450000
   3 S    2.300000
   3 S    1.600000
   3 P    3.350000
   3 P    2.050000
   3 P    1.200000
   3 D    2.000000
   4 F    2.000000

 Atom Type    3  (F)
 ==============

 Valence Basis Sets:  10
 -----------------------
   1 S   10.880000
   1 S    7.700000
   2 S    3.240000
   2 S    1.940000
   2 S    0.740000
   2 P    4.540000
   2 P    2.300000
   2 P    1.240000
   3 D    2.000000
   4 F    3.000000


 BAS: List of all Elementary Cartesian Basis Functions
 =====================================================

 The numbering in the list below (to the right of the function characteristics) is referred
 to in print-outs of MO eigenvectors and Mulliken populations in the BAS representation
 (as contrasted to the SFO representation).

 Notes:
 1. The functions are characterized by a polynomial prefactor (powers of x,y,z and r) and
    an exponential decay factor alpha.
 2. Since the basis sets are specific for an atom TYPE, the individual functions occur on
    all atoms of that type.
 3. The word 'Core' in the left margin signals that it is a Core Function (CF) : not a
    degree of freedom in the valence set, but only used to ensure orthogonalization of
    the other valence basis functions on the frozen Core Orbitals.


 (power of) X  Y  Z  R     Alpha  on Atom
            ==========     =====     ==========

 F                                    1
                                  ---------------------------------------------------------------------------
            0  0  0  0    10.880      1
            0  0  0  0     7.700      2
            0  0  0  1     3.240      3
            0  0  0  1     1.940      4
            0  0  0  1     0.740      5
            1  0  0  0     4.540      6
            0  1  0  0     4.540      7
            0  0  1  0     4.540      8
            1  0  0  0     2.300      9
            0  1  0  0     2.300     10
            0  0  1  0     2.300     11
            1  0  0  0     1.240     12
            0  1  0  0     1.240     13
            0  0  1  0     1.240     14
            2  0  0  0     2.000     15
            1  1  0  0     2.000     16
            1  0  1  0     2.000     17
            0  2  0  0     2.000     18
            0  1  1  0     2.000     19
            0  0  2  0     2.000     20
            3  0  0  0     3.000     21
            2  1  0  0     3.000     22
            2  0  1  0     3.000     23
            1  2  0  0     3.000     24
            1  1  1  0     3.000     25
            1  0  2  0     3.000     26
            0  3  0  0     3.000     27
            0  2  1  0     3.000     28
            0  1  2  0     3.000     29
            0  0  3  0     3.000     30

 Cl                                   2
                                  ---------------------------------------------------------------------------
            0  0  0  0    20.300     31
            0  0  0  0    15.250     32
            0  0  0  1     6.250     33
            0  0  0  1     4.450     34
            1  0  0  0     8.850     35
            0  1  0  0     8.850     36
            0  0  1  0     8.850     37
            1  0  0  0     5.050     38
            0  1  0  0     5.050     39
            0  0  1  0     5.050     40
            0  0  0  2     3.450     41
            0  0  0  2     2.300     42
            0  0  0  2     1.600     43
            1  0  0  1     3.350     44
            0  1  0  1     3.350     45
            0  0  1  1     3.350     46
            1  0  0  1     2.050     47
            0  1  0  1     2.050     48
            0  0  1  1     2.050     49
            1  0  0  1     1.200     50
            0  1  0  1     1.200     51
            0  0  1  1     1.200     52
            2  0  0  0     2.000     53
            1  1  0  0     2.000     54
            1  0  1  0     2.000     55
            0  2  0  0     2.000     56
            0  1  1  0     2.000     57
            0  0  2  0     2.000     58
            3  0  0  0     2.000     59
            2  1  0  0     2.000     60
            2  0  1  0     2.000     61
            1  2  0  0     2.000     62
            1  1  1  0     2.000     63
            1  0  2  0     2.000     64
            0  3  0  0     2.000     65
            0  2  1  0     2.000     66
            0  1  2  0     2.000     67
            0  0  3  0     2.000     68

 F                                    3
                                  ---------------------------------------------------------------------------
            0  0  0  0    10.880     69
            0  0  0  0     7.700     70
            0  0  0  1     3.240     71
            0  0  0  1     1.940     72
            0  0  0  1     0.740     73
            1  0  0  0     4.540     74
            0  1  0  0     4.540     75
            0  0  1  0     4.540     76
            1  0  0  0     2.300     77
            0  1  0  0     2.300     78
            0  0  1  0     2.300     79
            1  0  0  0     1.240     80
            0  1  0  0     1.240     81
            0  0  1  0     1.240     82
            2  0  0  0     2.000     83
            1  1  0  0     2.000     84
            1  0  1  0     2.000     85
            0  2  0  0     2.000     86
            0  1  1  0     2.000     87
            0  0  2  0     2.000     88
            3  0  0  0     3.000     89
            2  1  0  0     3.000     90
            2  0  1  0     3.000     91
            1  2  0  0     3.000     92
            1  1  1  0     3.000     93
            1  0  2  0     3.000     94
            0  3  0  0     3.000     95
            0  2  1  0     3.000     96
            0  1  2  0     3.000     97
            0  0  3  0     3.000     98

 Total number of charge fitting functions (nprimf)       276
 Total number of Cartesian basis functions (naos)         98
 Total number of Cartesian core functions  (ncos)          0

1
 ***************************************************************************************************



                                              ***********************
                                              *  T E C H N I C A L  *
                                              ***********************
  



 =============================================================
 P A R A L L E L I Z A T I O N  and  V E C T O R I Z A T I O N
 =============================================================
  
 Nr of parallel processes:                               12
 Maximum vector length in NumInt loops:                 128

 IO buffersize (Mb):                                     64.000000



 =====================
 S C F   U P D A T E S
 =====================
  
 Max. nr. of cycles:                               250
 Convergence criterion:                              0.0000010000
   secondary criterion:                              0.0010000000

 Mix parameter (when DIIS does not apply):           0.2000000000
 Mixed ADIIS+DIIS will be used
    Max number of expansion vectors:                10
    Pure ADIIS when Max([F,P]) is above              0.1000000000
    Pure DIIS when Max([F,P]) is below               0.0010000000
 Automatic ElectronSmearing (in case of problematic SCF convergence) disabled



 =================
 P R E C I S I O N  ***  (General: NumInt, NeglectFunctionTails, ...)  ***
 =================
  

 NumInt:           Target precision:                 6.0000000000
 -------           Initial precision:                6.0000000000
                   Min. precision (optimization):    6.0000000000

 Neglect Functions:          Basis functions:        0.1000000000E-07
 ------------------          Fit functions:          0.1000000000E-07



 ===========================
 L I N E A R   S C A L I N G
 ===========================
  

 Cut-off radii density fit:                        0.1000000000E-09
 Overlap cut-off criterion AO matrix elements:     0.1000000000E-07
 Cut-offs for Coulomb potential and fitted density:0.1000000000E-09
 Cut-off criterion for Coulomb multipole terms:    0.1000000000E-09
 Progressive Convergence parameter:                 0.000000000    
1
 ***************************************************************************************************



                                            ***************************
                                            *  C O M P U T A T I O N  *
                                            ***************************
  

 Number of elements of the density matrix on this node (used, total):       741      4851



 ===========================================
 Numerical Integration : Fuzzy Cells (Becke)
 ===========================================
  
 Becke grid quality: GOOD           
  
 Lebedev angular grid order:             min:  11 max:  31
 Nr. of radial points:                   min:  65 max:  80

 Total nr. of points:      45490
 Nr. of blocks:              356
 Block length:               128
 Nr. of dummy points:         78


 Test of Precision of the Numerical Integration Grid
 ===================================================

 Integral of the Total Core Density:                   0.00000000000000



 ========================
 Density Fitting (zlmFit)
 ========================
  
 ZlmFit Fit Quality: NORMAL         
  
 Max L-expansion:                        min:   7 max:   7
 Nr. of radial interpolation points:     min:  51 max:  60



 =====
 S C F  ***  ScaSCF  ***
 =====
  
 Initial density matrix is calculated as sum of fragments

 CYCLE    1
 SCF Error: norm([F,P])=      0.778223737347, max([F,P])=      0.560909351549
 orbitals (Q,E):
 ---------------
 A :9...28           ( 2.00    -0.6522)  ( 2.00    -0.5596)  ( 2.00    -0.2630)  ( 2.00    -0.2158)
                     ( 2.00    -0.2158)  ( 2.00    -0.1007)  ( 2.00    -0.1007)  ( 2.00    -0.0717)
                     ( 2.00     0.1106)  ( 2.00     0.1106)  ( 0.00     0.1394)  ( 0.00     0.2199)
                     ( 0.00     0.3129)  ( 0.00     0.3480)  ( 0.00     0.3488)  ( 0.00     0.3488)
                     ( 0.00     0.4568)  ( 0.00     0.4572)  ( 0.00     0.4572)  ( 0.00     0.4896)

 CYCLE    2
  SDIIS (wt  0.000):  0.8150  0.1850
 A-DIIS (wt  1.000):  0.8748  0.1252
  DIIS coefficients:  0.8748  0.1252
 SCF Error: norm([F,P])=      1.757102968438, max([F,P])=      0.689348334701
 orbitals (Q,E):
 ---------------
 A :9...19           ( 2.00    -0.6954)  ( 2.00    -0.5815)  ( 2.00    -0.2127)  ( 2.00    -0.1557)
                     ( 2.00    -0.1557)  ( 2.00    -0.0734)  ( 2.00    -0.0734)  ( 2.00    -0.0638)
                     ( 2.00    -0.0135)  ( 2.00    -0.0135)  ( 0.00     0.0438)

 CYCLE    3
  SDIIS (wt  0.000):  0.4489 -0.0751  0.6262
 A-DIIS (wt  1.000):  0.7169  0.0000  0.2831
  DIIS coefficients:  0.7169  0.0000  0.2831
 SCF Error: norm([F,P])=      0.729197387071, max([F,P])=      0.338695295561
 orbitals (Q,E):
 ---------------
 A :9...19           ( 2.00    -0.7098)  ( 2.00    -0.5543)  ( 2.00    -0.2316)  ( 2.00    -0.1598)
                     ( 2.00    -0.1598)  ( 2.00    -0.1009)  ( 2.00    -0.1009)  ( 2.00    -0.0701)
                     ( 2.00    -0.0273)  ( 2.00    -0.0273)  ( 0.00     0.0151)

 CYCLE    4
  SDIIS (wt  0.000): -0.4361  0.5028  0.9333
 A-DIIS (wt  1.000):  0.0000  0.5246  0.4754
  DIIS coefficients:  0.0000  0.5246  0.4754
 SCF Error: norm([F,P])=      0.841605161826, max([F,P])=      0.535248942958
 orbitals (Q,E):
 ---------------
 A :9...19           ( 2.00    -0.8345)  ( 2.00    -0.4705)  ( 2.00    -0.4280)  ( 2.00    -0.4280)
                     ( 2.00    -0.3250)  ( 2.00    -0.1429)  ( 2.00    -0.1362)  ( 2.00    -0.1362)
                     ( 2.00     0.0921)  ( 2.00     0.0921)  ( 0.00     0.1385)

 CYCLE    5
  SDIIS (wt  0.000): -0.0289  0.6516  0.1643  0.2131
 A-DIIS (wt  1.000):  0.0000  0.5984  0.1557  0.2458
  DIIS coefficients:  0.0000  0.5984  0.1557  0.2458
 SCF Error: norm([F,P])=      2.103537171479, max([F,P])=      0.655207931847
 orbitals (Q,E):
 ---------------
 A :9...19           ( 2.00    -0.7831)  ( 2.00    -0.4775)  ( 2.00    -0.2142)  ( 2.00    -0.1450)
                     ( 2.00    -0.1449)  ( 2.00    -0.1048)  ( 2.00    -0.1021)  ( 2.00    -0.1021)
                     ( 2.00    -0.0339)  ( 2.00    -0.0339)  ( 0.00     0.0423)

 CYCLE    6
  SDIIS (wt  0.000): -0.0521  0.0914  0.3842 -0.0969  0.6734
 A-DIIS (wt  1.000):  0.0000  0.0990  0.3678  0.0000  0.5332
  DIIS coefficients:  0.0000  0.0990  0.3678  0.0000  0.5332
 SCF Error: norm([F,P])=      0.662296146020, max([F,P])=      0.212913202329
 orbitals (Q,E):
 ---------------
 A :9...19           ( 2.00    -0.7463)  ( 2.00    -0.5349)  ( 2.00    -0.2104)  ( 2.00    -0.1337)
                     ( 2.00    -0.1337)  ( 2.00    -0.0841)  ( 2.00    -0.0840)  ( 2.00    -0.0807)
                     ( 2.00    -0.0569)  ( 2.00    -0.0569)  ( 0.00     0.0177)

 CYCLE    7
  SDIIS (wt  0.000):  0.0155 -0.2975  0.3403  0.0057  0.1488  0.7871
 A-DIIS (wt  1.000):  0.0000  0.0000  0.1224  0.0000  0.1352  0.7423
  DIIS coefficients:  0.0000  0.0000  0.1224  0.0000  0.1352  0.7423
 SCF Error: norm([F,P])=      0.269194461798, max([F,P])=      0.120301390646
 orbitals (Q,E):
 ---------------
 A :9...19           ( 2.00    -0.7501)  ( 2.00    -0.5147)  ( 2.00    -0.2608)  ( 2.00    -0.2005)
                     ( 2.00    -0.2005)  ( 2.00    -0.0750)  ( 2.00    -0.0744)  ( 2.00    -0.0744)
                     ( 2.00    -0.0630)  ( 2.00    -0.0630)  ( 0.00    -0.0067)

 CYCLE    8
  SDIIS (wt  0.000): -0.0155 -0.0144  0.1058 -0.0099  0.0632  0.6278  0.2431
 A-DIIS (wt  1.000):  0.0000  0.0000  0.0062  0.0000  0.0000  0.7534  0.2404
  DIIS coefficients:  0.0000  0.0000  0.0062  0.0000  0.0000  0.7534  0.2404
 SCF Error: norm([F,P])=      0.628519705265, max([F,P])=      0.290273135232
 orbitals (Q,E):
 ---------------
 A :9...19           ( 2.00    -0.7335)  ( 2.00    -0.5307)  ( 2.00    -0.2358)  ( 2.00    -0.1657)
                     ( 2.00    -0.1657)  ( 2.00    -0.0848)  ( 2.00    -0.0848)  ( 2.00    -0.0710)
                     ( 2.00    -0.0488)  ( 2.00    -0.0488)  ( 0.00     0.0041)

 CYCLE    9
  SDIIS (wt  0.000): -0.0047  0.0173 -0.0219  0.0013  0.0549  0.5498  0.1702  0.2331
 A-DIIS (wt  1.000):  0.0000  0.0000  0.0000  0.0000  0.0000  0.6434  0.1528  0.2038
  DIIS coefficients:  0.0000  0.0000  0.0000  0.0000  0.0000  0.6434  0.1528  0.2038
 SCF Error: norm([F,P])=      0.376491548909, max([F,P])=      0.197457416934
 orbitals (Q,E):
 ---------------
 A :9...19           ( 2.00    -0.7622)  ( 2.00    -0.5180)  ( 2.00    -0.2308)  ( 2.00    -0.1580)
                     ( 2.00    -0.1580)  ( 2.00    -0.0854)  ( 2.00    -0.0830)  ( 2.00    -0.0830)
                     ( 2.00    -0.0672)  ( 2.00    -0.0671)  ( 0.00     0.0043)

 CYCLE   10
  SDIIS (wt  0.000): -0.0024  0.0079 -0.0491 -0.0049 -0.0312  0.3210 -0.0883  0.4233  0.4238
 A-DIIS (wt  1.000):  0.0000  0.0000  0.0000  0.0000  0.0000  0.4201  0.0000  0.2965  0.2833
  DIIS coefficients:  0.0000  0.0000  0.0000  0.0000  0.0000  0.4201  0.0000  0.2965  0.2833
 SCF Error: norm([F,P])=      0.337278630189, max([F,P])=      0.129512570192
 orbitals (Q,E):
 ---------------
 A :9...19           ( 2.00    -0.7460)  ( 2.00    -0.5286)  ( 2.00    -0.2245)  ( 2.00    -0.1501)
                     ( 2.00    -0.1501)  ( 2.00    -0.0827)  ( 2.00    -0.0827)  ( 2.00    -0.0778)
                     ( 2.00    -0.0588)  ( 2.00    -0.0588)  ( 0.00     0.0079)

 CYCLE   11
  SDIIS (wt  0.938): -0.0007 -0.0024  0.0017 -0.0006 -0.0088  0.1058 -0.0139  0.0475  0.0820  0.7893
 A-DIIS (wt  0.062):  0.0000  0.0000  0.0000  0.0000  0.0000  0.0000  0.0000  0.0000  0.0000  1.0000
  DIIS coefficients: -0.0006 -0.0022  0.0016 -0.0006 -0.0082  0.0992 -0.0131  0.0445  0.0769  0.8024
 SCF Error: norm([F,P])=      0.017935265723, max([F,P])=      0.007181139457
 orbitals (Q,E):
 ---------------
 A :9...19           ( 2.00    -0.7464)  ( 2.00    -0.5295)  ( 2.00    -0.2238)  ( 2.00    -0.1489)
                     ( 2.00    -0.1489)  ( 2.00    -0.0832)  ( 2.00    -0.0832)  ( 2.00    -0.0785)
                     ( 2.00    -0.0591)  ( 2.00    -0.0591)  ( 0.00     0.0081)

 CYCLE   12
  SDIIS (wt  0.997): -0.0007  0.0017 -0.0001 -0.0001  0.0140  0.0005 -0.0070  0.0023  0.3342  0.6552
 A-DIIS (wt  0.003):  0.0000  0.0000  0.0000  0.0000  0.0000  0.0000  0.0000  0.0000  0.0208  0.9792
  DIIS coefficients: -0.0007  0.0017 -0.0001 -0.0001  0.0139  0.0005 -0.0070  0.0023  0.3333  0.6562
 SCF Error: norm([F,P])=      0.002867970575, max([F,P])=      0.001304184998
 orbitals (Q,E):
 ---------------
 A :9...19           ( 2.00    -0.7464)  ( 2.00    -0.5292)  ( 2.00    -0.2238)  ( 2.00    -0.1490)
                     ( 2.00    -0.1490)  ( 2.00    -0.0830)  ( 2.00    -0.0830)  ( 2.00    -0.0784)
                     ( 2.00    -0.0590)  ( 2.00    -0.0590)  ( 0.00     0.0081)

 CYCLE   13
  SDIIS (wt  1.000):  0.0004  0.0000  0.0003  0.0005  0.0008 -0.0022 -0.0040  0.0740  0.1954  0.7348
  DIIS coefficients:  0.0004  0.0000  0.0003  0.0005  0.0008 -0.0022 -0.0040  0.0740  0.1954  0.7348
 SCF Error: norm([F,P])=      0.001393267990, max([F,P])=      0.000761583727
 orbitals (Q,E):
 ---------------
 A :9...19           ( 2.00    -0.7464)  ( 2.00    -0.5292)  ( 2.00    -0.2238)  ( 2.00    -0.1490)
                     ( 2.00    -0.1490)  ( 2.00    -0.0831)  ( 2.00    -0.0831)  ( 2.00    -0.0784)
                     ( 2.00    -0.0590)  ( 2.00    -0.0590)  ( 0.00     0.0081)

 CYCLE   14
  SDIIS (wt  1.000):  0.0000  0.0000  0.0007 -0.0000  0.0007 -0.0008  0.0231  0.0619  0.3132  0.6012
  DIIS coefficients:  0.0000  0.0000  0.0007 -0.0000  0.0007 -0.0008  0.0231  0.0619  0.3132  0.6012
 SCF Error: norm([F,P])=      0.000291931678, max([F,P])=      0.000158235761
 orbitals (Q,E):
 ---------------
 A :9...19           ( 2.00    -0.7464)  ( 2.00    -0.5292)  ( 2.00    -0.2238)  ( 2.00    -0.1490)
                     ( 2.00    -0.1490)  ( 2.00    -0.0831)  ( 2.00    -0.0831)  ( 2.00    -0.0784)
                     ( 2.00    -0.0590)  ( 2.00    -0.0590)  ( 0.00     0.0081)

 CYCLE   15
  SDIIS (wt  1.000): -0.0000 -0.0000 -0.0000  0.0000 -0.0000  0.0012  0.0015  0.0107  0.1539  0.8327
  DIIS coefficients: -0.0000 -0.0000 -0.0000  0.0000 -0.0000  0.0012  0.0015  0.0107  0.1539  0.8327
 SCF Error: norm([F,P])=      0.000050390754, max([F,P])=      0.000023334243
 orbitals (Q,E):
 ---------------
 A :9...19           ( 2.00    -0.7464)  ( 2.00    -0.5292)  ( 2.00    -0.2238)  ( 2.00    -0.1490)
                     ( 2.00    -0.1490)  ( 2.00    -0.0831)  ( 2.00    -0.0831)  ( 2.00    -0.0784)
                     ( 2.00    -0.0590)  ( 2.00    -0.0590)  ( 0.00     0.0081)

 CYCLE   16
  SDIIS (wt  1.000): -0.0000  0.0000  0.0000  0.0000  0.0002  0.0005  0.0013  0.0379  0.2233  0.7367
  DIIS coefficients: -0.0000  0.0000  0.0000  0.0000  0.0002  0.0005  0.0013  0.0379  0.2233  0.7367
 SCF Error: norm([F,P])=      0.000002687220, max([F,P])=      0.000001239419
 orbitals (Q,E):
 ---------------
 A :9...19           ( 2.00    -0.7464)  ( 2.00    -0.5292)  ( 2.00    -0.2238)  ( 2.00    -0.1490)
                     ( 2.00    -0.1490)  ( 2.00    -0.0831)  ( 2.00    -0.0831)  ( 2.00    -0.0784)
                     ( 2.00    -0.0590)  ( 2.00    -0.0590)  ( 0.00     0.0081)

 CYCLE   17
  SDIIS (wt  1.000):  0.0000  0.0000  0.0000  0.0000  0.0001  0.0003  0.0052  0.0302  0.1297  0.8345
  DIIS coefficients:  0.0000  0.0000  0.0000  0.0000  0.0001  0.0003  0.0052  0.0302  0.1297  0.8345
 SCF Error: norm([F,P])=      0.000000336804, max([F,P])=      0.000000182087
 orbitals (Q,E):
 ---------------
 A :9...19           ( 2.00    -0.7464)  ( 2.00    -0.5292)  ( 2.00    -0.2238)  ( 2.00    -0.1490)
                     ( 2.00    -0.1490)  ( 2.00    -0.0831)  ( 2.00    -0.0831)  ( 2.00    -0.0784)
                     ( 2.00    -0.0590)  ( 2.00    -0.0590)  ( 0.00     0.0081)

 SCF CONVERGED

 CYCLE   18
1
 ***************************************************************************************************



                                                *******************
                                                *  R E S U L T S  *
                                                *******************
  
 *** Setting up for NEW gradients in Focky
 *** Using FIT density in Focky

 Orbital Energies, per Irrep and Spin:
 ======================================
                        Occup              E (au)              E (eV)       Diff (eV) with prev. cycle
                        -----      --------------------        ------       --------------------------
 A
               9        2.000     -0.74637602147795E+00       -20.310              -6.68E-08
              10        2.000     -0.52922345600462E+00       -14.401               2.60E-07
              11        2.000     -0.22381370249162E+00        -6.090               9.72E-08
              12        2.000     -0.14898308655794E+00        -4.054               9.87E-08
              13        2.000     -0.14898235193003E+00        -4.054               9.87E-08
              14        2.000     -0.83070631608423E-01        -2.260               1.62E-07
              15        2.000     -0.83069146877176E-01        -2.260               1.62E-07
              16        2.000     -0.78364419048085E-01        -2.132               3.34E-08
              17        2.000     -0.58995923490482E-01        -1.605              -2.25E-08
              18        2.000     -0.58995193651387E-01        -1.605              -2.25E-08
              19        0.000      0.81289966633247E-02         0.221
              20        0.000      0.23294907349139E+00         6.339
              21        0.000      0.27241211369911E+00         7.413
              22        0.000      0.39813605308592E+00        10.834
              23        0.000      0.41606684841224E+00        11.322
              24        0.000      0.41607006492528E+00        11.322
              25        0.000      0.52922900804877E+00        14.401
              26        0.000      0.56033902386616E+00        15.248
              27        0.000      0.56034085013631E+00        15.248
              28        0.000      0.60732834047186E+00        16.526
  
 HOMO :       18 A                -0.58995193651387E-01
 LUMO :       19 A                 0.81289966633247E-02
  


 All Electron Calculation, thus no Orbital Energies of the Core Orbitals are calculated


 Fit test: (difference of exact and fit density, squared integrated, result summed over spins)
         Sum-of-Fragments:                             0.00009635023363
         Orthogonalized Fragments:                     0.00009749458745
         SCF:                                          0.00009887381142



 ==========================
 Electron Density at Nuclei
 ==========================
  
 The electron density is calculated at points on a small sphere around the center of a nucleus.
 The printed electron density is the average electron density on these points.
 The radius of the sphere is the printed approximate finite nuclear radius.

         Atom        Nuclear Radius (Angstrom)             Electron Density (a.u.)
         ----        -------------------------             -----------------------
     1)   F                 0.0000361580                              448.40899
     2)   Cl                0.0000426624                             3210.88197
     3)   F                 0.0000361580                              447.60619



 =======================================
 M U L L I K E N   P O P U L A T I O N S
 =======================================
  
 The survey below gives for each atom:
 a) the total charge (Z minus electrons)
 b) the net spin polarization (nr of electrons spin-A minus spin-B)
 c) for each spin the atomic electron valence density (integrated) per L-value.

 Atom              Charge    Spin density          S         P         D         F
 ----              ------    ------------       ------    ------    ------    ------
 1 F              -0.2159                       3.9824    5.2077    0.0242    0.0017
 2 Cl             -0.3051                       5.9831   11.2795    0.0337    0.0088
 3 F              -0.4790                       3.9950    5.4766    0.0067    0.0007

 Populations of individual BAS functions
 ----------------------------------------
 1 F            0.5754  1.4003  1.1334  0.8795 -0.0062  0.3758  0.2928  0.4247  0.9493  0.8042
                1.0347  0.4577  0.3436  0.5249  0.0001  0.0100  0.0012  0.0165  0.0033 -0.0068
               -0.0005 -0.0016  0.0005  0.0034  0.0002 -0.0021  0.0053  0.0042 -0.0031 -0.0045
 2 Cl           0.5055  1.4529  1.7128  0.2535  0.7268  0.7221  0.7296  1.2715  1.2776  1.2679
                0.6103  1.0514  0.3968  0.2809  0.2270  0.3127  1.0202  0.8701  1.1087  0.5056
                0.3777  0.5810  0.0022  0.0113  0.0024  0.0162  0.0065 -0.0049 -0.0017  0.0000
                0.0007  0.0077  0.0013 -0.0033  0.0091  0.0064 -0.0056 -0.0058
 3 F            0.5757  1.4009  1.0972  0.9115  0.0097  0.3851  0.3336  0.4154  0.9135  0.8271
                0.9644  0.5592  0.4615  0.6167 -0.0001  0.0026  0.0004  0.0060  0.0011 -0.0032
               -0.0003 -0.0008  0.0003  0.0018  0.0001 -0.0012  0.0028  0.0022 -0.0018 -0.0024

 Gross Charges per Atom (Z minus electrons)
 ==========================================
            -0.2159   -0.3051   -0.4790
 Net Total: -1.00000000


 Atom-Atom Population Matrix (off-diagonal elements not doubled)
 ===============================================================

     1 :     9.2407
     2 :    -0.0295   17.3165
     3 :     0.0048    0.0181    9.4561


 Frag-Frag Population Matrix (off-diagonal elements not doubled)
 ===============================================================

     1 :    26.4981
     2 :     0.0229    9.4561



 =================================================
 H I R S H F E L D   C H A R G E   A N A L Y S I S
 =================================================
  
 For each fragment: the (numerical) integral of rho(scf) * rho(fragment)/rho(sum-of-fragments)
 (nuclear charges are included, electrons are counted negative)

 The fragments and their ordering are defined in the early G E O M E T R Y output section.
 If you use single-atom fragments, this usually implies that all atoms of the same
 chemical type are grouped together. This may not be the order in which you listed them
 in the input file!

    1  FCl                      -0.4465
    2  F                        -0.5535

 Sum of these charges (accuracy NumInt/Tails) =          -0.99999858



 =============================
 V O R O N O I   C H A R G E S
 =============================
  
 For each atom: the (numerical) integral of the total electronic charge density in its Voronoi cell,
 i.e. the region of space that is closer to that atom than to any other atom.
 (cf. Wigner-Seitz cells in crystals)

 Within the Voronoi cell the subintegrals over the atomic sphere and the remaining part are evaluated
 separately to give the numbers of electrons (negative charge) in these regions.
 The net total charge in the cell (including the nuclear charge) is also given.

 Values are provided for
    a) the Initial (sum-of-fragments) density
    b) the Orthogonalized-Fragments density
    c) the SCF density
    d) the Voronoi Deformation Density (VDD): the difference SCF-Initial for the complete atomic cell
 ---------------------------------------------------------------------------------------------------
 Total NetCharge:              -1.000                     -1.000                     -1.000    0.000
 (accuracy NumInt/Tails)

 Remark: the 'NetTotal' Voronoi charges often do not match the Mulliken and/or Hirshfeld charges very
 well. This is caused by the fact that chemically different atoms are not treated in accordance with
 their relative sizes. (Voronoi cells are defined by boundary planes halfway between the atoms.)
 However, the CHANGES in charge, comparing 'Initial' to 'SCF' for instance, do give a fair indication
 of the flow of charge caused by the relaxation from sum-of-fragments to self-consistency.

 Warning: the absolute accuracy of the VDD charges obtained using the Fuzzy Cells (Becke) integration
 scheme is much poorer than the one obtained with an 'equivalent' Voronoi integration grid. 



 =================================================================
 M U L T I P O L E   D E R I V E D   C H A R G E   A N A L Y S I S
 =================================================================

 This charge analysis uses the atomic multipoles (obtained from the fitted density) up to some level X,
 and reconstructs these multipoles exactly (up to level X) by distributing charges over all atoms.
 This is achieved by using Lagrange multipliers and a weight function to keep the multipoles local.

 Dummy atoms can be included (by setting INCDUM in MDC-block to 1) to obtain a fractional charge.
 This is generally useful and necessary only for small symmetrical molecules, when there are not
 enough degrees of freedom to reconstruct the multipoles.

 Since the atomic multipoles are reconstructed up to level X,
 the molecular multipoles are represented also up to level X.
 The recommended level is to reconstruct up to quadrupole : -> MDC-q charges.

 See: M. Swart, P.Th. van Duijnen, J.G. Snijders, J.Comput.Chem., (2001), p. 79-88.

 ------------------------------------------------------------- 
 Atomic electronic multipole moments from SCF equations (a.u.)
 ------------------------------------------------------------- 

   atom        charge        dip-x     dip-y     dip-z      quad-xx   quad-xy   quad-xz   quad-yy   quad-yz   quad-zz
 --------------------------------------------------------------------------------------------------------------------
    1 F     -0.480475    -0.225364  0.369932 -0.011570    -0.016900 -0.080805  0.002585  0.107581 -0.004228 -0.090680
    2 Cl    -0.053382    -0.414667  0.680399 -0.021380    -0.192494 -0.908587  0.028520  1.213345 -0.046803 -1.020851
    3 F     -0.466144     0.063913 -0.104897  0.003288    -0.045260 -0.213576  0.006720  0.285240 -0.010989 -0.239980

 --------------------------------------- 
 Multipole derived atomic charges (a.u.)
 --------------------------------------- 

 The MDC-m charges are just the Monopole terms in the multipole expansion, while for the MDC-d charges
 also the Dipoles are reconstructed. The usually preferred charges are the MDC-q charges.
 These reconstruct the Monopoles, Dipoles and Quadrupoles (both atomic AND molecular).

        Atom    Level:     MDC-m        MDC-d        MDC-q
 ---------------------------------------------------------
     1     F           -0.480475    -0.248001    -0.086937
     2     Cl          -0.053382    -0.317104    -0.395307
     3     F           -0.466144    -0.434896    -0.517756

 ------------------------------------------------ 
 Average absolute deviations in atomic multipoles
 ------------------------------------------------ 

 Stated here are the average differences between the atomic multipoles
 and the reconstructed atomic multipoles (from the distributed charges).
 If these values are not zero, this means there are not enough degrees of freedom,
 to be able to reconstruct the atomic multipoles. (This usually happens only
 for small and/or highly symmetric molecules). If this is the case, one could add
 dummy atoms as extra point charges (and setting INCDUM in MDC-block to 1).

 Level:                                 MDC-d        MDC-q
 ---------------------------------------------------------
 Charge   (a.u.)                       0.0000       0.0000
 Dipole   (Debye)                      0.0001       0.0001
 Quad.    (a.u.)                       0.3037       0.1071

 --------------------------------------- 
 Represented molecular multipole moments
 --------------------------------------- 

 Given here are the Molecular multipole moments from the atomic charges, and from the Fit Density.
 Note that the atomic charges represent the latter, NOT the ones from the Exact density.

            Q (a.u.)             Dipole moment (Debye)                                          Quadrupole moment (a.u.)
                                 x         y         z              xx        xy        xz        yy        yz        zz
------------------------------------------------------------------------------------------------------------------------
MDC-m        -1.0000       25.6806  -18.2098    0.3240        -75.9809  111.6098   -2.0270   -2.9788    1.5261   78.9597
MDC-d        -1.0000       24.2162  -15.8068    0.2485        -70.4949   95.4863   -1.6050    0.8291    1.2528   69.6658
MDC-q        -1.0000       24.2162  -15.8068    0.2485        -70.2909   96.9309   -1.6503   -0.4570    1.3273   70.7478
 
Fit.Dens.    -1.0000       24.2162  -15.8067    0.2486        -70.4178   96.6361   -1.6415    0.3412    1.3123   70.0766



 =============
 Dipole Moment  ***  (Debye)  ***
 =============
  
 Vector   :        24.21283493    -15.80144732      0.24833416
 Magnitude:        28.91381647

 This molecular dipole moment is calculated with analytic integration
 ************************************************************************************
 Since the molecule is NOT NEUTRAL, the dipole moment depends on the choice of origin
 ************************************************************************************



 =========================================
 Quadrupole Moment (Buckingham convention)  ***  (a.u.)  ***
 =========================================
  
      quad-xx        quad-xy        quad-xz        quad-yy        quad-yz        quad-zz
    -70.40511091    95.99604824    -1.62108439     0.35147631     1.28038389    70.05363460

 This molecular quadrupole moment is calculated with analytic integration
1



                                             *************************
                                             *  SFO MO coefficients  *
                                             *************************
  


                                       === A ===
 MOs expanded in CFs+SFOs
 ========================

 The SFOs have been characterized in an earlier part of output.
 To deduce the bonding / antibonding nature of SFO combinations in an MO, consider the products
 of the coefficients AND THE OVERLAP between the SFOs (may be NEGATIVE). The SFO overlap matrix
 is printed later, in the SFO Populations section.

 (The CF coefficients are not printed)

 MOs :      1        2        3        4        5        6        7        8        9       10
 occup:   2.00     2.00     2.00     2.00     2.00     2.00     2.00     2.00     2.00     2.00
 CF+SFO
     1  -1.0000  -0.0000   0.0000  -0.0001   0.0000   0.0000  -0.0000  -0.0000   0.0000  -0.0000
     2   0.0000   1.0000  -0.0000  -0.0001   0.0000   0.0000  -0.0000  -0.0006   0.0021   0.0001
     3  -0.0001   0.0000  -0.0000   1.0000  -0.0021  -0.0000  -0.0000  -0.0000  -0.0001  -0.0004
     4  -0.0000   0.0000  -0.0000  -0.0021  -1.0000  -0.0001   0.0001   0.0000  -0.0000   0.0000
     5  -0.0000   0.0000  -0.0000  -0.0000   0.0001  -0.9999  -0.0130  -0.0000  -0.0000  -0.0000
     6  -0.0000   0.0000  -0.0000   0.0000   0.0001  -0.0130   0.9999  -0.0000  -0.0000  -0.0000
     7  -0.0000   0.0002   0.0000   0.0006  -0.0001  -0.0000   0.0000  -0.9538  -0.2949  -0.0150
     8   0.0000  -0.0000  -0.0000  -0.0005  -0.0000   0.0000  -0.0000   0.0210  -0.0266  -0.9983
     9  -0.0000  -0.0000   0.0000   0.0003  -0.0002  -0.0000   0.0000  -0.0233   0.0337   0.0018
    10  -0.0000   0.0000  -0.0000  -0.0000   0.0000   0.0000   0.0000   0.0000   0.0000   0.0000
    11   0.0000   0.0000  -0.0000  -0.0000   0.0000  -0.0000   0.0000   0.0000  -0.0000  -0.0000
    12  -0.0000   0.0000  -0.0000   0.0000  -0.0000   0.0000  -0.0000   0.0000   0.0000   0.0000
    13   0.0000   0.0000  -0.0000  -0.0000   0.0000  -0.0000  -0.0000   0.0000  -0.0000  -0.0000
    14  -0.0000  -0.0001   0.0000   0.0003   0.0000  -0.0000   0.0000  -0.0098   0.0174   0.0089
    15  -0.0001   0.0000   0.0000   0.0014  -0.0003  -0.0000   0.0000   0.0001  -0.0042  -0.0106
    16  -0.0000   0.0000   0.0000   0.0003  -0.0002  -0.0000   0.0000   0.0009  -0.0023   0.0094
    17  -0.0000  -0.0000  -0.0000   0.0000  -0.0000   0.0000  -0.0000   0.0000   0.0000   0.0000
    18   0.0000  -0.0000   0.0000   0.0000  -0.0000  -0.0000  -0.0000   0.0000   0.0000  -0.0000
    19   0.0000  -0.0000  -0.0000  -0.0001   0.0000   0.0000  -0.0000  -0.0022  -0.0026  -0.0164
    20   0.0000  -0.0000  -0.0000   0.0000  -0.0000  -0.0000  -0.0001   0.0000   0.0000  -0.0000
    21  -0.0000   0.0000  -0.0000  -0.0000   0.0000   0.0001  -0.0000   0.0000   0.0000   0.0000
    22   0.0000   0.0000  -0.0000   0.0000  -0.0000  -0.0000  -0.0000   0.0000   0.0000   0.0000
    23   0.0000  -0.0000  -0.0000  -0.0000  -0.0000  -0.0000   0.0000   0.0000   0.0000   0.0000
    24   0.0000  -0.0001  -0.0000  -0.0004   0.0001   0.0000  -0.0000  -0.0021   0.0004   0.0006
    25  -0.0000   0.0000   0.0000   0.0000  -0.0000   0.0000  -0.0000   0.0000  -0.0000  -0.0000
    26  -0.0000   0.0000   0.0000   0.0000  -0.0000  -0.0000  -0.0000   0.0000  -0.0000  -0.0000
    27  -0.0000   0.0001   0.0001   0.0004  -0.0001  -0.0000   0.0000   0.0014   0.0021  -0.0038
    28   0.0000  -0.0000  -0.0000  -0.0000  -0.0000  -0.0000   0.0000  -0.0000   0.0000  -0.0000
    29   0.0000  -0.0000  -0.0000  -0.0000  -0.0000   0.0000   0.0000  -0.0000  -0.0000  -0.0000
    30   0.0000  -0.0000   0.0000   0.0000  -0.0000  -0.0000  -0.0000   0.0000   0.0000   0.0000
    31  -0.0000   0.0000   0.0000   0.0000  -0.0000   0.0000  -0.0000  -0.0000   0.0000  -0.0000
    32   0.0000   0.0000   0.0000  -0.0000  -0.0000   0.0000  -0.0000  -0.0000  -0.0000  -0.0000
    33   0.0000   0.0000   0.0000  -0.0000  -0.0000  -0.0000  -0.0000  -0.0000  -0.0000  -0.0000
    34   0.0000   0.0001   0.0000  -0.0000  -0.0001  -0.0000   0.0000   0.0001  -0.0008  -0.0001
    35   0.0000  -0.0000  -0.0000   0.0000   0.0000  -0.0000  -0.0000   0.0000  -0.0000   0.0000
    36  -0.0000  -0.0000  -0.0000   0.0000  -0.0000  -0.0000   0.0000  -0.0000   0.0000   0.0000
    37  -0.0000   0.0000   0.0000   0.0002  -0.0002  -0.0000   0.0000  -0.0003   0.0042  -0.0011
    38  -0.0000   0.0000  -0.0000   0.0000  -0.0000  -0.0000  -0.0001   0.0000   0.0000  -0.0000
    39   0.0000  -0.0000  -0.0000  -0.0000   0.0000   0.0001  -0.0000  -0.0000  -0.0000  -0.0000
    40  -0.0000  -0.0001   0.0000   0.0002  -0.0004  -0.0000   0.0000  -0.0008  -0.0002  -0.0006
    41  -0.0000  -0.0000  -0.0000   0.0000   0.0000  -0.0002   0.0001  -0.0000  -0.0000  -0.0000
    42   0.0000   0.0000   0.0000  -0.0000  -0.0000   0.0001   0.0002   0.0000   0.0000   0.0000
    43  -0.0000  -0.0000  -0.0000   0.0007   0.0001   0.0000   0.0000  -0.0004  -0.0004  -0.0043
    44  -0.0000   0.0001  -0.0000   0.0001  -0.0003  -0.0000   0.0000   0.0004  -0.0011  -0.0008
    45   0.0000  -0.0000   0.0000  -0.0000   0.0000  -0.0000  -0.0000   0.0000   0.0000  -0.0000
    46   0.0000  -0.0000   0.0000  -0.0000   0.0000   0.0000   0.0000   0.0000   0.0000  -0.0000
    47   0.0000  -0.0000  -0.0000  -0.0000   0.0000  -0.0000   0.0000   0.0000  -0.0000   0.0000
    48   0.0000  -0.0000  -0.0000  -0.0000   0.0000   0.0000  -0.0000  -0.0000   0.0000   0.0000
    49  -0.0000  -0.0000   0.0000   0.0000  -0.0000   0.0000  -0.0000   0.0000  -0.0000  -0.0000
    50  -0.0000   0.0000   0.0000   0.0000  -0.0000  -0.0000  -0.0000   0.0000  -0.0000  -0.0000
    51   0.0000  -0.0000  -0.0000  -0.0001   0.0001   0.0000  -0.0000   0.0007  -0.0003   0.0003
    52   0.0000  -0.0000  -0.0000   0.0000  -0.0000  -0.0000  -0.0000   0.0000   0.0000  -0.0000
    53  -0.0000   0.0000  -0.0000   0.0000   0.0000  -0.0000   0.0000  -0.0000  -0.0000   0.0000
    54   0.0000  -0.0002   0.0000  -0.0000  -0.0000  -0.0000   0.0000   0.0002  -0.0001   0.0000
    55  -0.0001  -0.0000   0.0000   0.0002  -0.0000  -0.0000  -0.0000  -0.0000   0.0000  -0.0002
    56   0.0000   0.0000   0.0000  -0.0000  -0.0000  -0.0005  -0.0003  -0.0000  -0.0000  -0.0000
    57  -0.0000   0.0000   0.0000   0.0000   0.0000  -0.0003   0.0005   0.0000   0.0000   0.0000
    58  -0.0000  -0.0000  -0.0000   0.0000   0.0004  -0.0000  -0.0000  -0.0000   0.0000  -0.0000
    59   0.0000  -0.0002  -0.0000  -0.0000  -0.0000   0.0000   0.0000  -0.0001   0.0001   0.0000
    60  -0.0001   0.0000  -0.0000  -0.0000  -0.0000   0.0000   0.0000  -0.0000  -0.0000  -0.0000
    61   0.0000  -0.0000   1.0000  -0.0001   0.0000   0.0000  -0.0000   0.0017   0.0003  -0.0009
    62   0.0000  -0.0000  -0.0002  -0.0008   0.0002   0.0000  -0.0000  -0.2438   0.9639  -0.0495
    63  -0.0000   0.0001  -0.0000   0.0004  -0.0002  -0.0000  -0.0000   0.0253   0.0021  -0.0200
    64   0.0000  -0.0000   0.0000  -0.0000   0.0000  -0.0000   0.0000  -0.0008  -0.0001   0.0007
    65  -0.0000   0.0000  -0.0000   0.0001  -0.0000   0.0000   0.0000   0.0071   0.0006  -0.0056
    66   0.0001  -0.0000   0.0000  -0.0015   0.0003   0.0000  -0.0000   0.0065  -0.0190  -0.0005
    67  -0.0000   0.0000   0.0000   0.0002  -0.0001  -0.0000  -0.0000  -0.0018   0.0009   0.0006
    68   0.0000  -0.0001  -0.0001  -0.0006   0.0002  -0.0000  -0.0000   0.0051  -0.0026  -0.0016
    69   0.0000  -0.0000  -0.0000  -0.0000   0.0000  -0.0000   0.0000   0.0000  -0.0000  -0.0000
    70  -0.0000   0.0000   0.0000   0.0001  -0.0000  -0.0000  -0.0000   0.0027  -0.0028  -0.0012
    71   0.0000  -0.0000  -0.0000  -0.0000   0.0000  -0.0000   0.0000  -0.0003   0.0003   0.0001
    72  -0.0000   0.0000   0.0000   0.0000  -0.0000   0.0000   0.0000   0.0018  -0.0018  -0.0008
    73  -0.0000   0.0000   0.0000   0.0001  -0.0000   0.0000   0.0000   0.0029  -0.0030  -0.0014
    74  -0.0000   0.0000   0.0000   0.0000  -0.0000   0.0000  -0.0000   0.0000  -0.0000  -0.0000
    75  -0.0000   0.0000  -0.0002   0.0002  -0.0001  -0.0000   0.0000  -0.0027   0.0064   0.0001
    76   0.0000  -0.0000  -0.0000  -0.0000  -0.0000  -0.0000   0.0000  -0.0005   0.0002   0.0003
    77  -0.0000   0.0000   0.0000   0.0000   0.0000   0.0000   0.0000   0.0000  -0.0000  -0.0000
    78   0.0000  -0.0000  -0.0000  -0.0000  -0.0000   0.0000  -0.0000  -0.0002   0.0000   0.0001
    79   0.0000  -0.0000  -0.0000  -0.0000  -0.0000   0.0000  -0.0000  -0.0001   0.0000   0.0000
    80   0.0000  -0.0000  -0.0000  -0.0000  -0.0000  -0.0000   0.0000  -0.0004   0.0001   0.0002
    81   0.0000  -0.0000  -0.0000  -0.0000  -0.0000   0.0000  -0.0000  -0.0000   0.0000   0.0000
    82  -0.0000   0.0000   0.0000   0.0000   0.0000  -0.0000  -0.0000   0.0004  -0.0001  -0.0003
    83   0.0000  -0.0000   0.0000  -0.0000  -0.0000   0.0000   0.0000  -0.0000   0.0001  -0.0000
    84   0.0000  -0.0000   0.0000  -0.0000  -0.0000  -0.0000   0.0000  -0.0000   0.0000  -0.0000
    85   0.0000  -0.0000   0.0001  -0.0001  -0.0000  -0.0000  -0.0000  -0.0001   0.0001  -0.0001
    86   0.0000   0.0000   0.0002   0.0000  -0.0000  -0.0000  -0.0000  -0.0001   0.0002   0.0000

 MOs :     11       12       13       14       15       16       17       18       19       20
 occup:   2.00     2.00     2.00     2.00     2.00     2.00     2.00     2.00     0.00     0.00
 CF+SFO
     1  -0.0000   0.0000   0.0000   0.0000   0.0000   0.0000  -0.0000  -0.0000  -0.0000   0.0007
     2   0.0021  -0.0000  -0.0000   0.0000   0.0000   0.0067   0.0000  -0.0000   0.0045   0.0118
     3   0.0001  -0.0000  -0.0000  -0.0000  -0.0000  -0.0001   0.0000   0.0000   0.0002  -0.0056
     4  -0.0001  -0.0000   0.0000  -0.0000  -0.0000  -0.0000   0.0000   0.0000  -0.0001  -0.0013
     5  -0.0000   0.0000  -0.0000   0.0000   0.0000   0.0000  -0.0000   0.0000  -0.0000  -0.0000
     6  -0.0000  -0.0000  -0.0000   0.0000  -0.0000  -0.0000  -0.0000  -0.0000  -0.0000  -0.0000
     7  -0.0476   0.0000   0.0000  -0.0000  -0.0000  -0.1002  -0.0000   0.0000  -0.0649  -0.1103
     8   0.0203   0.0000   0.0000   0.0000   0.0000   0.0436   0.0000  -0.0000   0.0195  -0.0198
     9   0.9174  -0.0000  -0.0000  -0.0000  -0.0000  -0.3899  -0.0000   0.0000  -0.1576  -0.0197
    10   0.0000   0.2805   0.9305  -0.0485   0.1478   0.0000  -0.0062  -0.1817  -0.0000   0.0000
    11  -0.0000  -0.9305   0.2805  -0.1478  -0.0485   0.0000  -0.1817   0.0062   0.0000  -0.0000
    12  -0.0000  -0.0265   0.0544   0.7780  -0.4325  -0.0001  -0.3169  -0.3201  -0.0000  -0.0000
    13  -0.0000   0.0544   0.0265  -0.4325  -0.7780   0.0000   0.3202  -0.3169   0.0000  -0.0000
    14   0.0717  -0.0000  -0.0000   0.0000  -0.0000   0.4797   0.0000  -0.0000  -0.8782  -0.0235
    15   0.0009  -0.0000  -0.0000  -0.0000  -0.0000  -0.0138   0.0000  -0.0000   0.0427   0.6181
    16  -0.0233   0.0000  -0.0000   0.0000  -0.0000   0.0196   0.0000  -0.0000  -0.0378  -0.0677
    17   0.0000  -0.0157   0.0131  -0.0404   0.0034   0.0000   0.0129   0.0050  -0.0000  -0.0000
    18   0.0000   0.0131   0.0157   0.0034   0.0404  -0.0000  -0.0050   0.0129   0.0000  -0.0000
    19  -0.0049   0.0000   0.0000   0.0000   0.0000   0.0041  -0.0000   0.0000  -0.0238   0.0066
    20   0.0000   0.0001   0.0005   0.0003  -0.0007  -0.0000  -0.0009  -0.0050  -0.0000  -0.0000
    21  -0.0000  -0.0005   0.0001   0.0007   0.0003   0.0000  -0.0050   0.0009   0.0000  -0.0000
    22   0.0000  -0.0000  -0.0000  -0.0000  -0.0000  -0.0000   0.0000   0.0000   0.0000  -0.0000
    23   0.0000   0.0000  -0.0000   0.0000   0.0000  -0.0000  -0.0000   0.0000   0.0000  -0.0000
    24  -0.0020  -0.0000  -0.0000   0.0000   0.0000   0.0114  -0.0000  -0.0000  -0.0079   0.0074
    25   0.0000   0.0015  -0.0038  -0.0066   0.0043   0.0000   0.0015   0.0017  -0.0000   0.0000
    26   0.0000  -0.0038  -0.0015   0.0043   0.0066  -0.0000  -0.0017   0.0015  -0.0000  -0.0000
    27  -0.0020   0.0000   0.0000  -0.0000   0.0000   0.0005   0.0000   0.0000   0.0032  -0.0572
    28   0.0000   0.0000   0.0000  -0.0000  -0.0000   0.0000   0.0000   0.0000  -0.0000   0.0000
    29  -0.0000   0.0000   0.0000  -0.0000   0.0000   0.0000  -0.0000   0.0000  -0.0000   0.0000
    30   0.0000  -0.0006  -0.0032  -0.0002   0.0005  -0.0000  -0.0007  -0.0051  -0.0000   0.0000
    31  -0.0000   0.0032  -0.0007  -0.0005  -0.0002   0.0000  -0.0051   0.0007   0.0000  -0.0000
    32  -0.0000   0.0000  -0.0000  -0.0000  -0.0000   0.0000   0.0000  -0.0000  -0.0000  -0.0000
    33  -0.0000   0.0000   0.0000   0.0000   0.0000   0.0000   0.0000  -0.0000  -0.0000  -0.0000
    34  -0.0030   0.0000   0.0000  -0.0000   0.0000  -0.0004   0.0000   0.0000  -0.0028   0.0008
    35   0.0000  -0.0000  -0.0000   0.0000  -0.0000  -0.0000  -0.0000   0.0000   0.0000  -0.0000
    36   0.0000   0.0000   0.0000   0.0000   0.0000   0.0000   0.0000  -0.0000  -0.0000   0.0000
    37   0.0044   0.0000  -0.0000   0.0000  -0.0000   0.0147   0.0000  -0.0000   0.0030   0.0138
    38  -0.0000   0.0001   0.0005   0.0018  -0.0038   0.0000   0.0004   0.0025   0.0000  -0.0000
    39  -0.0000  -0.0005   0.0001   0.0038   0.0018  -0.0000   0.0025  -0.0004   0.0000  -0.0000
    40  -0.0039  -0.0000  -0.0000   0.0000   0.0000   0.0006  -0.0000   0.0000  -0.0028  -0.0149
    41   0.0000  -0.0024   0.0011  -0.0050  -0.0009   0.0000   0.0025   0.0003   0.0000  -0.0000
    42  -0.0000   0.0011   0.0024  -0.0009   0.0050   0.0000  -0.0003   0.0025  -0.0000   0.0000
    43   0.0014   0.0000   0.0000  -0.0000   0.0000  -0.0010  -0.0000   0.0000   0.0001  -0.0046
    44  -0.0016   0.0000  -0.0000   0.0000   0.0000   0.0009  -0.0000   0.0000  -0.0031   0.0039
    45  -0.0000   0.0000   0.0000   0.0000  -0.0000   0.0000  -0.0000  -0.0000   0.0000   0.0000
    46  -0.0000  -0.0000   0.0000   0.0000   0.0000   0.0000  -0.0000   0.0000   0.0000   0.0000
    47  -0.0000  -0.0000  -0.0000   0.0000   0.0000  -0.0000  -0.0000   0.0000   0.0000  -0.0000
    48   0.0000   0.0000  -0.0000   0.0000  -0.0000   0.0000  -0.0000  -0.0000  -0.0000   0.0000
    49  -0.0000  -0.0001   0.0005  -0.0002   0.0002   0.0000  -0.0005  -0.0009  -0.0000   0.0000
    50  -0.0000   0.0005   0.0001   0.0002   0.0002   0.0000   0.0009  -0.0005   0.0000   0.0000
    51   0.0007  -0.0000  -0.0000  -0.0000   0.0000  -0.0011  -0.0000   0.0000  -0.0009  -0.0006
    52  -0.0000   0.0017   0.0006  -0.0004  -0.0005   0.0000   0.0008  -0.0006   0.0000   0.0000
    53   0.0000   0.0006  -0.0017  -0.0005   0.0004  -0.0000   0.0006   0.0008  -0.0000  -0.0000
    54  -0.0009   0.0000   0.0000  -0.0000  -0.0000  -0.0000   0.0000  -0.0000   0.0013  -0.0001
    55  -0.0000  -0.0000   0.0000  -0.0000   0.0000   0.0000   0.0000   0.0000  -0.0001   0.0001
    56   0.0000   0.0001   0.0000   0.0001   0.0002  -0.0000  -0.0001   0.0000   0.0000  -0.0000
    57   0.0000   0.0000  -0.0001   0.0002  -0.0001  -0.0000  -0.0000  -0.0001   0.0000   0.0000
    58  -0.0001   0.0000   0.0000   0.0000   0.0000   0.0002   0.0000  -0.0000  -0.0001  -0.0000
    59   0.0001   0.0000   0.0000   0.0000  -0.0000   0.0004   0.0000  -0.0000   0.0003   0.0008
    60   0.0000  -0.0000  -0.0000   0.0000  -0.0000  -0.0000   0.0000  -0.0000   0.0000  -0.0000
    61  -0.0060  -0.0000   0.0000   0.0000   0.0000  -0.0004  -0.0000  -0.0000   0.0057  -0.0128
    62  -0.1239  -0.0000   0.0000   0.0000   0.0000  -0.0012   0.0000  -0.0000   0.0937  -0.1075
    63  -0.2970  -0.0450  -0.0183   0.0603   0.0932  -0.7547   0.1851  -0.1599  -0.5357  -0.0305
    64   0.0098  -0.0850   0.1562   0.3635  -0.1813   0.0249   0.6576   0.6075   0.0177   0.0010
    65  -0.0837   0.1497   0.0832  -0.1715  -0.3516  -0.2128  -0.5794   0.6385  -0.1511  -0.0086
    66  -0.0197   0.0000   0.0000  -0.0000   0.0000  -0.0282  -0.0000   0.0000  -0.0525   0.4986
    67   0.0102   0.0095   0.0059  -0.0080  -0.0188   0.0196  -0.0265   0.0323   0.0085   0.0118
    68  -0.0285   0.0033   0.0022  -0.0027  -0.0068  -0.0549  -0.0091   0.0118  -0.0239  -0.0331
    69  -0.0003   0.0063  -0.0101  -0.0200   0.0085  -0.0005  -0.0344  -0.0280  -0.0002  -0.0003
    70  -0.0053   0.0033   0.0019  -0.0006  -0.0013   0.0024   0.0015  -0.0016   0.0055   0.0002
    71   0.0005   0.0016  -0.0021  -0.0010   0.0003  -0.0002   0.0013   0.0009  -0.0005  -0.0000
    72  -0.0035  -0.0014  -0.0016   0.0001   0.0008   0.0016  -0.0005   0.0012   0.0037   0.0002
    73  -0.0058  -0.0020  -0.0009   0.0004   0.0007   0.0026  -0.0009   0.0009   0.0061   0.0003
    74  -0.0001  -0.0020   0.0035   0.0014  -0.0006   0.0000  -0.0017  -0.0015   0.0001   0.0000
    75   0.0058  -0.0000  -0.0000   0.0000   0.0000   0.0041   0.0000  -0.0000  -0.0023   0.0109
    76   0.0016   0.0001  -0.0000  -0.0001  -0.0000   0.0013  -0.0001   0.0000   0.0005   0.0018
    77  -0.0001  -0.0012  -0.0006   0.0006   0.0011  -0.0001   0.0012  -0.0013  -0.0000  -0.0002
    78   0.0005  -0.0005   0.0008   0.0009  -0.0004   0.0004   0.0010   0.0008   0.0002   0.0005
    79   0.0002  -0.0002   0.0008   0.0006  -0.0005   0.0002   0.0006   0.0009   0.0001   0.0003
    80   0.0012   0.0003  -0.0004  -0.0004   0.0002   0.0010  -0.0005  -0.0004   0.0004   0.0014
    81   0.0000  -0.0002   0.0001   0.0002   0.0000   0.0000   0.0003   0.0000   0.0000   0.0000
    82  -0.0013   0.0002   0.0001  -0.0001  -0.0002  -0.0010  -0.0003   0.0002  -0.0004  -0.0015
    83  -0.0002  -0.0001  -0.0001   0.0003   0.0005  -0.0007   0.0010  -0.0010  -0.0009  -0.0002
    84  -0.0000   0.0001  -0.0002  -0.0005   0.0003  -0.0001  -0.0011  -0.0011  -0.0001  -0.0000
    85  -0.0004   0.0001   0.0000  -0.0001  -0.0002  -0.0016  -0.0004   0.0005  -0.0021  -0.0005
    86   0.0003  -0.0000  -0.0000   0.0000   0.0000   0.0000   0.0000  -0.0000  -0.0003   0.0006

 MOs :     21       22       23       24       25       26       27       28       29       30
 occup:   0.00     0.00     0.00     0.00     0.00     0.00     0.00     0.00     0.00     0.00
 CF+SFO
     1   0.0020   0.0006   0.0000   0.0000   0.0006   0.0000   0.0000  -0.0000  -0.0000  -0.0000
     2   0.0485   0.0159   0.0000   0.0000   0.0088  -0.0000   0.0000  -0.0000  -0.0000  -0.0000
     3  -0.0168  -0.0049  -0.0000  -0.0000  -0.0054  -0.0000  -0.0000  -0.0000   0.0000   0.0000
     4  -0.0043  -0.0012  -0.0000  -0.0000  -0.0012  -0.0000  -0.0000   0.0000   0.0000   0.0000
     5  -0.0000  -0.0000   0.0000   0.0000  -0.0000  -0.0000  -0.0001  -0.0000   0.0000   0.0001
     6  -0.0000  -0.0000   0.0000  -0.0000  -0.0000   0.0001  -0.0000   0.0000   0.0000   0.0001
     7  -0.4777  -0.1581  -0.0000  -0.0000  -0.1015   0.0000  -0.0000   0.0000   0.0000   0.0000
     8   0.0180   0.0044   0.0000   0.0000  -0.0236  -0.0000  -0.0000   0.0000  -0.0000  -0.0000
     9  -0.2277  -0.1160  -0.0000  -0.0000  -0.0495  -0.0000  -0.0000  -0.0000   0.0000   0.0000
    10  -0.0000  -0.0000  -0.0010   0.0268   0.0000  -0.0067   0.0008   0.0000   0.0000   0.0344
    11   0.0000   0.0000  -0.0268  -0.0010   0.0000   0.0008   0.0067  -0.0000  -0.0000   0.0847
    12  -0.0000   0.0000   0.0278  -0.0280  -0.0000  -0.0040   0.0048  -0.0000   0.0000   0.0478
    13   0.0000   0.0000  -0.0280  -0.0278   0.0000  -0.0048  -0.0040  -0.0000  -0.0000  -0.0224
    14  -0.3008  -0.0565  -0.0000  -0.0000  -0.0801   0.0000  -0.0000   0.0000   0.0000   0.0000
    15  -1.4710  -0.4263  -0.0001  -0.0002  -0.3964  -0.0000  -0.0000   0.0000   0.0000   0.0000
    16  -0.0310  -1.0429  -0.0002  -0.0002  -0.2293  -0.0000  -0.0000   0.0000   0.0000  -0.0000
    17  -0.0000  -0.0001   0.9306  -0.3575  -0.0000  -0.0017   0.0060  -0.0000   0.0000   0.0467
    18   0.0000   0.0003  -0.3575  -0.9306  -0.0000  -0.0060  -0.0017  -0.0000   0.0000  -0.0008
    19   0.0101  -0.1440  -0.0000  -0.0001   1.0010  -0.0000  -0.0000   0.0000  -0.0000  -0.0000
    20   0.0000  -0.0000  -0.0000   0.0000  -0.0000   0.9562  -0.2568   0.0000  -0.0000   0.0816
    21   0.0000   0.0000  -0.0000   0.0000  -0.0000  -0.2568  -0.9562  -0.0000  -0.0000   0.1405
    22   0.0000   0.0000  -0.0000  -0.0000  -0.0000  -0.0000  -0.0000   0.9999  -0.0105   0.0000
    23   0.0000  -0.0000   0.0000  -0.0000   0.0000  -0.0000   0.0000  -0.0105  -0.9999  -0.0000
    24   0.0535  -0.0344  -0.0000  -0.0000  -0.0819  -0.0000   0.0000  -0.0000   0.0000  -0.0000
    25  -0.0000  -0.0000   0.0149  -0.0173  -0.0000  -0.0363   0.0371  -0.0000  -0.0000   0.3815
    26  -0.0000   0.0000  -0.0173  -0.0149   0.0000  -0.0371  -0.0363  -0.0000  -0.0000  -0.2133
    27  -0.1556  -0.0644  -0.0000  -0.0000   0.1094   0.0000   0.0000   0.0000   0.0000   0.0000
    28  -0.0000  -0.0000  -0.0000   0.0000  -0.0000   0.0000  -0.0000  -0.0000   0.0002  -0.0000
    29  -0.0000  -0.0000   0.0000   0.0000   0.0000   0.0000  -0.0000  -0.0002  -0.0000   0.0000
    30  -0.0000  -0.0000  -0.0003   0.0023  -0.0000   0.0039  -0.0009  -0.0000   0.0000   0.0093
    31   0.0000   0.0000  -0.0023  -0.0003  -0.0000  -0.0009  -0.0039   0.0000   0.0000   0.0179
    32   0.0000   0.0000   0.0000   0.0000  -0.0000   0.0000   0.0000  -0.0000   0.0000  -0.0000
    33   0.0000   0.0000  -0.0000   0.0000  -0.0000   0.0000   0.0000  -0.0000  -0.0000   0.0000
    34  -0.0012   0.0003   0.0000  -0.0000   0.0002   0.0000   0.0000   0.0000  -0.0000  -0.0000
    35   0.0000   0.0000  -0.0000  -0.0000   0.0000  -0.0000   0.0000  -0.0029  -0.0001   0.0000
    36   0.0000  -0.0000   0.0000  -0.0000  -0.0000  -0.0000   0.0000  -0.0001   0.0029  -0.0000
    37   0.0358   0.0170   0.0000   0.0000   0.0190  -0.0000  -0.0000  -0.0000  -0.0000  -0.0000
    38   0.0000   0.0000   0.0008  -0.0047   0.0000  -0.0082   0.0021  -0.0000   0.0000   0.0001
    39  -0.0000  -0.0000   0.0047   0.0008  -0.0000   0.0021   0.0082   0.0000   0.0000   0.0002
    40  -0.0475  -0.0043  -0.0000  -0.0000  -0.0123  -0.0000   0.0000  -0.0000   0.0000   0.0000
    41   0.0000   0.0000  -0.0123   0.0013  -0.0000  -0.0000   0.0010  -0.0000   0.0000   0.0017
[...]
   84    8.03125114830440E-17  3.69616385679015E-16  3.33209579499600E-16  1.76930306665287E-16
   85    5.71923928663105E-16  1.26148616834583E-16 -1.27220113512860E-16  5.71899705327159E-17
   86    5.08047879499619E-17 -3.30790082825327E-16  1.16660153759440E-16 -1.34441069388203E-16

 column          69                    70                    71                    72
 row
   69    1.00000000000000E+00
   70   -6.24627241595943E-17  1.00000000000000E+00
   71   -4.48102084685962E-16  3.83157471272851E-16  1.00000000000000E+00
   72    7.90691439036937E-16  3.29744844168416E-16  4.93381551061698E-16  1.00000000000000E+00
   73    6.24640264727507E-16  5.28514677768793E-16 -4.39457845452713E-16  1.61539347436762E-15
   74    6.82100703054602E-16  4.30350679552733E-16 -2.59633230515380E-16 -4.49752789772760E-17
   75    4.28326032580778E-17 -1.48251433373416E-15  2.06279627710734E-16 -9.01243055878576E-18
   76   -2.78224912184620E-17  1.06694557025109E-15 -7.77286136795013E-17  5.61006861625468E-16
   77    4.16250403321199E-17 -5.15851852844697E-16  2.97883991025021E-16 -3.49106852672346E-16
   78   -1.09351728497404E-16  3.21386111286673E-16  1.59595459762373E-16  3.67690861414224E-16
   79    7.44589506978140E-17 -7.42502728816015E-17  8.04441655741961E-16  6.97637511182323E-16
   80    9.04185701276896E-17  6.53313971118400E-16  1.01007884866687E-16  6.69864571391275E-16
   81    4.96877288501855E-16  2.94794253061453E-16  7.22514167394022E-16  3.99871231267191E-16
   82   -8.28872693214066E-17 -2.48278909367391E-16 -5.31684698573892E-17 -1.12180789424475E-15
   83   -3.43610826454528E-16 -2.67936426490796E-16 -1.23775230516376E-16  2.26097234061170E-16
   84   -1.94621684955824E-16  1.49046246739472E-16  1.65795310802356E-16  1.34697879189898E-16
   85    3.99793582168730E-16  2.77176285395919E-16 -4.09292672860382E-16  2.76979773752156E-19
   86   -7.58263894382050E-18  2.95336671785051E-16 -3.93511178503614E-16  1.33140026781220E-16

 column          73                    74                    75                    76
 row
   73    9.99999999999999E-01
   74   -1.57924528455236E-17  9.99999999999999E-01
   75    6.36636739419910E-16 -2.59546776906479E-17  9.99999999999999E-01
   76    5.48683379275865E-16 -5.45341185789347E-16 -3.87871633140795E-16  1.00000000000000E+00
   77    5.75440408925800E-16  3.50953460597977E-16  1.25144459275613E-16  2.11386680517306E-16
   78    8.08163452337748E-16  3.04808098248298E-16 -3.16688254802964E-16  2.55456984199780E-16
   79    5.58368353994771E-16  4.80607385972790E-16 -5.97290788470527E-16  6.93646609572216E-16
   80    9.22047032096088E-16  2.37338155364622E-16 -4.32771155608851E-16  6.23409049399113E-16
   81   -2.34353343607396E-16  1.05741741284631E-16  3.49452521524165E-16 -1.38589064508034E-15
   82   -8.06768389073620E-16 -3.97114430191454E-16  1.93155699225976E-16 -1.23808730669440E-15
   83    4.30553199836465E-16 -4.35337413976125E-17  4.75854639437993E-16 -1.27540927241632E-16
   84    2.49775140129157E-16 -3.83405950125007E-16  1.28943825560522E-16  3.91950070312045E-17
   85    4.86908419399662E-17  5.34702782844078E-19  6.00110984668410E-16  1.14074585687947E-15
   86    1.98625837999344E-16  4.51705730111773E-17  1.41726907987305E-15  7.71951946809679E-17

 column          77                    78                    79                    80
 row
   77    1.00000000000000E+00
   78    1.71061705064685E-16  9.99999999999997E-01
   79   -3.94812902707421E-16  4.82833343890422E-16  1.00000000000000E+00
   80   -1.23193292411833E-16 -2.91169163805442E-16 -3.79920587804478E-16  1.00000000000000E+00
   81   -1.53914089666241E-16 -3.86424900866884E-17  7.38633184527937E-16  1.89473122902626E-15
   82    3.13216902026879E-19 -1.75939204001617E-15  5.81495529828366E-16  3.96680564034003E-16
   83   -4.33896002127915E-16 -5.60625273282730E-16 -6.30330155611128E-18  3.85601796600390E-16
   84   -1.16168811784306E-16  1.75149572094918E-16 -7.60137779415560E-16  1.06345780621165E-17
   85    1.83622396344188E-16  3.87164995904548E-16  5.33072985574442E-16  3.87863162811322E-16
   86   -2.34729770343112E-17  1.04300248993106E-16 -1.16172262781822E-16  2.33753988387875E-16

 column          81                    82                    83                    84
 row
   81    1.00000000000000E+00
   82    6.31290697590760E-16  1.00000000000000E+00
   83    4.11169568831322E-16  5.82146686406567E-16  1.00000000000000E+00
   84    1.13408426534975E-17 -4.39861456652080E-16  2.21674425057302E-16  9.99999999999999E-01
   85   -2.00165247589085E-16 -3.67848197784177E-16 -8.28300813625771E-17 -3.14039384253553E-16
   86    2.84060969191202E-17 -1.49836740237497E-16 -1.92987986702420E-17  1.40702336934306E-16

 column          85                    86
 row
   85    1.00000000000000E+00
   86    9.86623976961809E-17  1.00000000000000E+00


 SFO contributions (%) per orbital
 (multiplication by the orbital occupation yields the SFO Gross Populations)

 Orb.:        9     10     11     12     13     14     15     16     17     18     19     20     21     22
 occup:     2.00   2.00   2.00   2.00   2.00   2.00   2.00   2.00   2.00   2.00   0.00   0.00   0.00   0.00
 CF+SFO     ----   ----   ----   ----   ----   ----   ----   ----   ----   ----   ----   ----   ----   ----
 ------
      7:    7.29   0.02   0.12   0.00   0.00   0.00  -0.00   0.18   0.00   0.00   0.04   0.01  -0.06  -0.01
      8:    0.12  99.65   0.03   0.00   0.00   0.00   0.00   0.09   0.00   0.00   0.00   0.02   0.02  -0.00
      9:    0.40  -0.00  86.10   0.00   0.00   0.00   0.00  11.95   0.00   0.00   1.42  -0.01  -0.16   0.30
     10:    0.00   0.00   0.00   7.94  87.43   0.20   1.89   0.00   0.00   2.46   0.00   0.00   0.00   0.00
     11:    0.00   0.00   0.00  87.43   7.94   1.89   0.20   0.00   2.46   0.00   0.00  -0.00   0.00   0.00
     12:    0.00   0.00   0.00   0.08   0.32  61.37  18.96   0.00   9.44   9.64   0.00   0.00  -0.00   0.00
     13:    0.00   0.00   0.00   0.32   0.08  18.96  61.37   0.00   9.64   9.44   0.00   0.00   0.00   0.00
     14:    0.17   0.01   0.63   0.00   0.00   0.00   0.00  26.45   0.00   0.00  72.09  -0.05   0.93  -0.22
     15:   -0.10   0.02  -0.00   0.00   0.00  -0.00   0.00  -0.03   0.00   0.00   0.32  56.47  43.82   2.72
     16:   -0.02   0.01   0.05   0.00   0.00   0.00   0.00   0.11   0.00   0.00   0.02  -0.07  -1.02  96.67
     19:    0.03   0.02  -0.00  -0.00  -0.00  -0.00   0.00  -0.01  -0.00  -0.00   0.11  -0.04  -0.34   3.70
     24:   -0.01   0.00  -0.00   0.00   0.00  -0.00   0.00  -0.03  -0.00   0.00   0.04  -0.02  -1.12   0.44
     62:   91.84   0.16   0.49   0.00  -0.00  -0.00   0.00   0.00   0.00   0.00   0.13  -0.22   0.36  -0.10
     63:    0.01   0.10  11.97   0.27   0.04   0.38   0.91  56.07   3.33   2.49  22.58   0.11  -0.09  -0.35
     64:    0.00   0.00   0.01   0.96   3.26  13.91   3.46   0.06  42.02  35.87   0.02   0.00  -0.00  -0.00
     65:    0.00   0.01   0.95   2.99   0.92   3.10  13.02   4.46  32.62  39.62   1.80   0.01  -0.01  -0.03
     66:    0.17   0.00  -0.09  -0.00  -0.00   0.00  -0.00   0.10   0.00   0.00   0.79  42.97  61.37  -2.09
     68:    0.02  -0.01  -0.29  -0.01  -0.00  -0.00  -0.00   0.46   0.02   0.03   0.42  -0.00  -4.04  -1.02
     75:   -0.00  -0.00  -0.05   0.00   0.00   0.00  -0.00   0.01   0.00   0.00  -0.01   0.07   1.14   0.28


 Summation over all MOs, multiplied by occupation: Total SFO Gross Populations in this Irrep
 ===========================================================================================

     2.00    2.00    2.00    2.00    2.00    2.00    2.00    2.00    1.97    2.00    2.00    2.00
     2.00    0.55   -0.00    0.00    0.00    0.00    0.00   -0.00   -0.00    0.00    0.00   -0.00
     0.00    0.00    0.00    0.00    0.00    0.00    0.00    0.00    0.00   -0.00    0.00    0.00
     0.00    0.00    0.00   -0.00    0.00    0.00    0.00   -0.00    0.00    0.00    0.00    0.00
     0.00    0.00    0.00    0.00    0.00   -0.00    0.00    0.00    0.00   -0.00   -0.00    0.00
     2.00    2.00    1.52    1.99    1.95    0.00    0.00    0.00    0.00    0.00    0.00    0.00
     0.00    0.00   -0.00    0.00    0.00    0.00    0.00    0.00    0.00    0.00    0.00    0.00
     0.00   -0.00



 List of all MOs, ordered by energy, with the most significant SFO gross populations
 ===================================================================================

 Each percentage contribution in the table below corresponds to the indicated SFO.
 In general, a SFO may be a linear combination of several Fragment Orbitals on the same,
 or on symmetry-related Fragments. Only the first 'member' of such a combination is
 specified here. A full definition of all SFOs is given in an earlier part of the output.
 The numbering of the SFOs in this table does NOT include the Core Orbitals, and starts
 from one for each symmetry representation, as in the SFO definition list earlier.

       E(eV)  Occ       MO           %     SFO (first member)   E(eV)  Occ   Fragment
 -------------------------------------------------------------------------------------

     -20.310  2.00     9 A         91.84%     2 A             -15.093  2.00     2 F
                                    7.29%     7 A             -28.993  2.00     1 FCl
     -14.401  2.00    10 A         99.65%     8 A             -21.273  2.00     1 FCl
                                    0.16%     2 A             -15.093  2.00     2 F
      -6.090  2.00    11 A         86.10%     9 A             -12.282  2.00     1 FCl
                                   11.97%     3 A               2.944  2.00     2 F
      -4.054  2.00    12 A         87.43%    11 A             -10.303  2.00     1 FCl
                                    7.94%    10 A             -10.303  2.00     1 FCl
                                    2.99%     5 A               2.944  2.00     2 F
      -4.054  2.00    13 A         87.43%    10 A             -10.303  2.00     1 FCl
                                    7.94%    11 A             -10.303  2.00     1 FCl
                                    3.26%     4 A               2.944  2.00     2 F
      -2.260  2.00    14 A         61.37%    12 A              -8.604  2.00     1 FCl
                                   18.96%    13 A              -8.604  2.00     1 FCl
                                   13.91%     4 A               2.944  2.00     2 F
                                    3.10%     5 A               2.944  2.00     2 F
                                    1.89%    11 A             -10.303  2.00     1 FCl
      -2.260  2.00    15 A         61.37%    13 A              -8.604  2.00     1 FCl
                                   18.96%    12 A              -8.604  2.00     1 FCl
                                   13.02%     5 A               2.944  2.00     2 F
                                    3.46%     4 A               2.944  2.00     2 F
                                    1.89%    10 A             -10.303  2.00     1 FCl
      -2.132  2.00    16 A         56.07%     3 A               2.944  2.00     2 F
                                   26.45%    14 A              -7.289  0.00     1 FCl
                                   11.95%     9 A             -12.282  2.00     1 FCl
                                    4.46%     5 A               2.944  2.00     2 F
      -1.605  2.00    17 A         42.02%     4 A               2.944  2.00     2 F
                                   32.62%     5 A               2.944  2.00     2 F
                                    9.64%    13 A              -8.604  2.00     1 FCl
                                    9.44%    12 A              -8.604  2.00     1 FCl
                                    3.33%     3 A               2.944  2.00     2 F
                                    2.46%    11 A             -10.303  2.00     1 FCl
      -1.605  2.00    18 A         39.62%     5 A               2.944  2.00     2 F
                                   35.87%     4 A               2.944  2.00     2 F
                                    9.64%    12 A              -8.604  2.00     1 FCl
                                    9.44%    13 A              -8.604  2.00     1 FCl
                                    2.49%     3 A               2.944  2.00     2 F
                                    2.46%    10 A             -10.303  2.00     1 FCl
       0.221  0.00    19 A         72.09%    14 A              -7.289  0.00     1 FCl
                                   22.58%     3 A               2.944  2.00     2 F
                                    1.80%     5 A               2.944  2.00     2 F
                                    1.42%     9 A             -12.282  2.00     1 FCl



 =======================================================================
 Electrostatic potential at the Nuclei due to electrons and other nuclei
 =======================================================================
  
         Atom                  Potential
         ----                  ---------
     1)   F                  26.79917509
     2)   Cl                 64.61490319
     3)   F                  26.88070562
 
 
 ========================
 No memory problems found
 ========================
 
 Maximum number of active allocate calls:         576
 
 *******************************************************************************

                             A D F   E X I T
 NORMAL TERMINATION



 =================
 Timing Statistics
 =================
  
 Total Used :                     CPU=        5.70      System=        0.18     Elapsed=        6.29

 Calls  Section                     ( Mean, Percentage )
 ---------------------------------------------------------------------------------------------------
     3  ><      ................      0.00    0.02             0.00    0.00             0.00    0.03
     1  INIT    ................      0.44    7.65             0.02   12.02             0.46    7.33
     1  GEOMET  ................      0.03    0.56             0.00    2.73             0.34    5.40
     1  FRAGM   ................      0.01    0.21             0.01    3.28             0.05    0.81
     1  INPUTA  ................      0.00    0.00             0.00    0.00             0.00    0.01
     1  ATDEN   ................      0.00    0.09             0.00    0.00             0.01    0.08
     1  MAINSY  ................      0.01    0.14             0.00    1.09             0.01    0.20
     1  SYMFIT  ................      0.00    0.04             0.00    0.00             0.00    0.04
     1  CORORT  ................      0.00    0.00             0.00    0.00             0.00    0.01
     1  SYMORB  ................      0.00    0.07             0.00    0.00             0.00    0.05
     1  CLSMAT  ................      0.01    0.11             0.00    0.00             0.01    0.11
     1  ORTHON  ................      0.01    0.11             0.00    1.09             0.01    0.14
     1  GENPT   ................      0.10    1.81             0.01    2.73             0.11    1.73
     1  PTBAS   ................      0.03    0.53             0.00    0.00             0.03    0.47
    18  FOCKY   ................      0.11   33.32             0.00   10.38             0.11   30.68
    18  FOCKTR  ................      0.00    0.44             0.00    1.64             0.00    0.52
    18  SDIIS   ................      0.00    1.19             0.00    2.19             0.00    1.14
     1  COREPS  ................      0.09    1.65             0.00    0.00             0.09    1.51
     1  TOTEN   ................      0.27    4.77             0.00    1.09             0.28    4.38
     1  POPAN   ................      0.00    0.02             0.00    1.64             0.01    0.15
     1  DEBYE   ................      0.00    0.04             0.00    0.00             0.00    0.03
     1  INPUTE  ................      0.00    0.00             0.00    0.00             0.00    0.02
     1  SYMORE  ................      0.00    0.02             0.00    0.00             0.00    0.02
     1  METS    ................      0.00    0.00             0.00    0.55             0.00    0.01
     1  CETS    ................      0.01    0.14             0.00    0.55             0.02    0.28
     1  POPUL   ................      2.66   46.63             0.11   57.92             2.79   44.39
     1  EXIT PROCEDURE .........      0.03    0.47             0.00    1.09             0.03    0.48


 Currently Open Files (EXIT00)
 ====================

 Unit    Access Format  Status   Type       Ident (file)
 -------------------------------------------------------
   3      SEQ    FORM   TRANSP  NORMAL      LOGFILE
                                          ( logfile )


 Buffered I/O statistics
 =======================
 Memory available:                     67108864
 Number of records fitting in memory:     16131
 Input :   1.3% of                        52841  *4k bytes
 Output:  11.5% of                         3859  *4k bytes
 Records from serial files evicted:           0
                    others evicted:           0
 Hash table lookups:     150248 with          0 conflicts (  0.00%)

 ***************************************************************************************************
 (LOGFILE)
 <May09-2019> <17:12:11>  ADF 2017  RunTime: May09-2019 17:12:11  Nodes: 1  Procs: 12
 <May09-2019> <17:12:12>  *** (NO TITLE) ***
 <May09-2019> <17:12:12>  RunType   : SINGLE POINT
 <May09-2019> <17:12:12>  Net Charge: -1 (Nuclei minus Electrons)
 <May09-2019> <17:12:12>  Symmetry  : NOSYM
 <May09-2019> <17:12:12>  >>>> FRAGM
  Coordinates
    Atom         X           Y           Z   (Angstrom)
    1.F        -4.944608    3.131607   -0.046738
    2.Cl       -3.904822    1.425360    0.006848
    3.F        -5.925951    4.741952   -0.097312
 <May09-2019> <17:12:12>  >>>> CORORT
 <May09-2019> <17:12:12>  >>>> CLSMAT
 <May09-2019> <17:12:12>  >>>> ORTHON
 <May09-2019> <17:12:12>  >>>> GENPT
 <May09-2019> <17:12:12>  Block Length= 128
 <May09-2019> <17:12:12>  >>>> PTBAS
 <May09-2019> <17:12:12>  >>>> CYCLE
 <May09-2019> <17:12:12>              |Error|         MaxErr       Wt(A-DIIS)
 <May09-2019> <17:12:12>      1      0.77822374      0.56090935
 <May09-2019> <17:12:13>      2      1.75710297      0.68934833    100.0
 <May09-2019> <17:12:13>      3      0.72919739      0.33869530    100.0
 <May09-2019> <17:12:13>      4      0.84160516      0.53524894    100.0
 <May09-2019> <17:12:13>      5      2.10353717      0.65520793    100.0
 <May09-2019> <17:12:13>      6      0.66229615      0.21291320    100.0
 <May09-2019> <17:12:13>      7      0.26919446      0.12030139    100.0
 <May09-2019> <17:12:13>      8      0.62851971      0.29027314    100.0
 <May09-2019> <17:12:13>      9      0.37649155      0.19745742    100.0
 <May09-2019> <17:12:13>     10      0.33727863      0.12951257    100.0
 <May09-2019> <17:12:14>     11      0.01793527      0.00718114      6.2
 <May09-2019> <17:12:14>     12      0.00286797      0.00130418      0.3
 <May09-2019> <17:12:14>     13      0.00139327      0.00076158      0.0
 <May09-2019> <17:12:14>     14      0.00029193      0.00015824      0.0
 <May09-2019> <17:12:14>     15      0.00005039      0.00002333      0.0
 <May09-2019> <17:12:14>     16      0.00000269      0.00000124      0.0
 <May09-2019> <17:12:14>     17      0.00000034      0.00000018      0.0
 <May09-2019> <17:12:14>  SCF converged
 <May09-2019> <17:12:14>     18      0.00000013      0.00000007      0.0
 <May09-2019> <17:12:14>  >>>> TOTEN
 <May09-2019> <17:12:15>  >>>> POPAN
 <May09-2019> <17:12:15>  >>>> DEBYE
 <May09-2019> <17:12:15>  >>>> AMETS
 <May09-2019> <17:12:17>   Bond Energy          -0.07975232 a.u.
 <May09-2019> <17:12:17>   Bond Energy          -2.17017103 eV
 <May09-2019> <17:12:17>   Bond Energy         -50.05       kcal/mol
 <May09-2019> <17:12:17>  >>>> POPUL
 <May09-2019> <17:12:18>  NORMAL TERMINATION
 <May09-2019> <17:12:18>  END
