
Create H   file=TZ2P-H
XC
  GGA BP86
End
End Input

 *******************************************************************************
 *                                                                             *
 *  -------------------------------------                                      *
 *   Amsterdam Density Functional  (ADF)         development version           *
 *  -------------------------------------                                      *
 *                                               r61132 2017-09-08             *
 *                                                                             *
 *                                                                             *
 *                              =================                              *
 *                              |               |                              *
 *                              |     A D F     |                              *
 *                              |               |                              *
 *                              =================                              *
 *                                                                             *
 *                                                                             *
 *   Online information and documentation:  https://www.scm.com/support/       *
 *   E-mail:  support@scm.com   info@scm.com                                   *
 *                                                                             *
 *   Scientific publications using ADF results must be properly referenced     *
 *   See the User Manuals (or the web site) for recommended citations          *
 *   The terms and conditions of the End User License Agreement apply to       *
 *   the use of ADF, https://www.scm.com/license-terms/                        *
 *                                                                             *
 **********************  x86_64_linux_intel / intelmpi  ************************
 
 Licensed to: VU/FEW (+ SARA) / ALGEMEEN / Amsterdam / THE NETHERLANDS
 SCM User ID: u7668
  
 ADF development version  RunTime: Apr18-2019 22:08:07  Nodes: 1  Procs: 1

 Temporary files are created in /local/datastore0/tcst25/186817/kid_0.Zm9gWO

 Hydrogen (TZ2P)



 ===========================
 A T T A C H E D   F I L E S
 ===========================
  
 CREATE - Data File:    TZ2P-H
                        Hydrogen (TZ2P)



 ===============================
 M O D E L   P A R A M E T E R S
 ===============================
  
 DENSITY FUNCTIONAL POTENTIAL (scf)
    LDA:                               VWN                                      
    Gradient Corrections:              Becke88 Perdew86                        == Not Default ==

 SPIN  (restricted / unrestr.)
    Molecule:                          Restricted                               

 OTHER ASPECTS
    Relativistic Corrections:          ---                                      

    Nuclear Charge Density Model:      Point Charge Nuclei                      
    Core Treatment:                    Frozen Orbital(s)                        

    Hyperfine or Zeeman Interaction:   ---                                      



 =====================================
 S Y M M E T R Y ,   E L E C T R O N S
 =====================================
  
 Symmetry: ATOM

 Irreducible Representations, including subspecies
 -------------------------------------------------
 S
 P:x  P:y  P:z
 D:z2  D:x2-y2  D:xy  D:xz  D:yz
 F:z3  F:z  F:xyz  F:z2x  F:z2y  F:x  F:y


 Configuration of Valence Electrons
 ==================================

          Occupation Numbers
          -------------------------------------------------
 S        1
 P        0
 D        0
 F        0
          -------------------------------------------------

 Total:   1

 Net Charge: 0 (Nuclei minus Electrons)

 Preset values for MO occupations will be applied through SCF cycle no. 1000000
 Thereafter, the program will assign electrons to MOs that are spatially
 similar to the occupied MOs in a "reference" cycle ("KeepOrbitals").
 The reference cycle is always the PREVIOUS cycle: it will evolve with
 the SCF procedure.



 ================================
 (Slater-type)  F U N C T I O N S  ***  (Basis and Fit)  ***
 ================================
  

 Atom Type    1  (H)
 ==============

 Valence Basis Sets:   5
 -----------------------
   1 S    0.690000
   1 S    0.920000
   1 S    1.580000
   2 P    1.250000
   3 D    2.500000


 BAS: List of all Elementary Cartesian Basis Functions
 =====================================================

 The numbering in the list below (to the right of the function characteristics) is referred
 to in print-outs of MO eigenvectors and Mulliken populations in the BAS representation
 (as contrasted to the SFO representation).

 Notes:
 1. The functions are characterized by a polynomial prefactor (powers of x,y,z and r) and
    an exponential decay factor alpha.
 2. Since the basis sets are specific for an atom TYPE, the individual functions occur on
    all atoms of that type.
 3. The word 'Core' in the left margin signals that it is a Core Function (CF) : not a
    degree of freedom in the valence set, but only used to ensure orthogonalization of
    the other valence basis functions on the frozen Core Orbitals.


 (power of) X  Y  Z  R     Alpha  on Atom
            ==========     =====     ==========

 H                                    1
                                  ---------------------------------------------------------------------------
            0  0  0  0     0.690      1
            0  0  0  0     0.920      2
            0  0  0  0     1.580      3
            1  0  0  0     1.250      4
            0  1  0  0     1.250      5
            0  0  1  0     1.250      6
            2  0  0  0     2.500      7
            1  1  0  0     2.500      8
            1  0  1  0     2.500      9
            0  2  0  0     2.500     10
            0  1  1  0     2.500     11
            0  0  2  0     2.500     12

 Total number of charge fitting functions (nprimf)        50
 Total number of Cartesian basis functions (naos)         12
 Total number of Cartesian core functions  (ncos)          0



 BAS: List of all Elementary Cartesian Basis Functions
 =====================================================

 The numbering in the list below (to the right of the function characteristics) is referred
 to in print-outs of MO eigenvectors and Mulliken populations in the BAS representation
 (as contrasted to the SFO representation).

 Notes:
 1. The functions are characterized by a polynomial prefactor (powers of x,y,z and r) and
    an exponential decay factor alpha.
 2. Since the basis sets are specific for an atom TYPE, the individual functions occur on
    all atoms of that type.
 3. The word 'Core' in the left margin signals that it is a Core Function (CF) : not a
    degree of freedom in the valence set, but only used to ensure orthogonalization of
    the other valence basis functions on the frozen Core Orbitals.


 (power of) X  Y  Z  R     Alpha  on Atom
            ==========     =====     ==========

 H                                    1
                                  ---------------------------------------------------------------------------
            0  0  0  0     0.690      1
            0  0  0  0     0.920      2
            0  0  0  0     1.580      3
            1  0  0  0     1.250      4
            0  1  0  0     1.250      5
            0  0  1  0     1.250      6
            2  0  0  0     2.500      7
            1  1  0  0     2.500      8
            1  0  1  0     2.500      9
            0  2  0  0     2.500     10
            0  1  1  0     2.500     11
            0  0  2  0     2.500     12
1
 ***************************************************************************************************



                                              ***********************
                                              *  T E C H N I C A L  *
                                              ***********************
  



 =============================================================
 P A R A L L E L I Z A T I O N  and  V E C T O R I Z A T I O N
 =============================================================
  
 Nr of parallel processes:                                1
 Maximum vector length in NumInt loops:                 128

 IO buffersize (Mb):                                     64.000000



 =====================
 S C F   U P D A T E S
 =====================
  
 Max. nr. of cycles:                               300
 Convergence criterion:                              0.0000000100
   secondary criterion:                              0.0000000100

 Mix parameter (when DIIS does not apply):           0.2000000000
 Special mix parameter for the first cycle:          1.0000000000
 Mixed ADIIS+DIIS will be used
    Max number of expansion vectors:                10
    Pure ADIIS when Max([F,P]) is above              0.1000000000
    Pure DIIS when Max([F,P]) is below               0.0010000000
 Automatic ElectronSmearing (in case of problematic SCF convergence) disabled



 =================
 P R E C I S I O N  ***  (General: NumInt, NeglectFunctionTails, ...)  ***
 =================
  

 NumInt:           Target precision:                12.0000000000
 -------           Initial precision:               10.0000000000
                   Min. precision (optimization):   10.0000000000

 Neglect Functions:          Basis functions:        0.1000000000E-13
 ------------------          Fit functions:          0.1000000000E-13



 ===========================
 L I N E A R   S C A L I N G
 ===========================
  

 Cut-off radii density fit:                        0.1000000000E-97
 Overlap cut-off criterion AO matrix elements:     0.1000000000E-97
 Cut-offs for Coulomb potential and fitted density:0.1000000000E-97
 Cut-off criterion for Coulomb multipole terms:    0.1000000000E-97
 Progressive Convergence parameter:                 0.000000000    
1
 ***************************************************************************************************



                                            ***************************
                                            *  C O M P U T A T I O N  *
                                            ***************************
  

 Number of elements of the density matrix on this node (used, total):        78        78



 ===========================================
 Numerical Integration : Fuzzy Cells (Becke)
 ===========================================
  
 Becke grid quality: VERYGOOD       
  
 Lebedev angular grid order:             min:  13 max:  41
 Nr. of radial points:                   min:  64 max:  64

 Total nr. of points:         64
 Nr. of blocks:                1
 Block length:                64
 Nr. of dummy points:          0


 Test of Precision of the Numerical Integration Grid
 ===================================================

 Integral of the Total Core Density:                   0.00000000000000



 ========================
 Density Fitting (zlmFit)
 ========================
  
 ZlmFit Fit Quality: VERYGOOD       
  
 Max L-expansion:                        min:   0 max:   0
 Nr. of radial interpolation points:     min: 130 max: 130



 =====
 S C F  ***  ScaSCF  ***
 =====
  

 CYCLE    1
 SCF Error: norm([F,P])=      0.000000000000, max([F,P])=      0.000000000000
 orbitals (Q,E):
 ---------------
 S :1...3            ( 1.00    -0.5000)  ( 0.00    -0.0900)  ( 0.00     1.2939)
 P :1...1            ( 0.00     0.1562)
 D :1...1            ( 0.00     2.2917)

 CYCLE    2
 SCF Error: norm([F,P])=      0.030526162244, max([F,P])=      0.029682528591
 orbitals (Q,E):
 ---------------
 S :1...2            ( 1.00    -0.2270)  ( 0.00     0.1038)
 P :1...1            ( 0.00     0.4131)
 D :1...1            ( 0.00     2.5768)

 CYCLE    3
  SDIIS (wt  0.000):  0.1733  0.8267
 A-DIIS (wt  1.000):  0.0000  1.0000
  DIIS coefficients:  0.0000  1.0000
 SCF Error: norm([F,P])=      0.007183061946, max([F,P])=      0.006712148192
 orbitals (Q,E):
 ---------------
 S :1...2            ( 1.00    -0.2462)  ( 0.00     0.0917)
 P :1...1            ( 0.00     0.3973)
 D :1...1            ( 0.00     2.5583)

 CYCLE    4
  SDIIS (wt  0.999):  0.1398  0.8602
 A-DIIS (wt  0.001):  0.0000  1.0000
  DIIS coefficients:  0.1396  0.8604
 SCF Error: norm([F,P])=      0.001175086780, max([F,P])=      0.001143060931
 orbitals (Q,E):
 ---------------
 S :1...2            ( 1.00    -0.2434)  ( 0.00     0.0933)
 P :1...1            ( 0.00     0.3996)
 D :1...1            ( 0.00     2.5611)

 CYCLE    5
  SDIIS (wt  1.000):  0.0219  0.9781
  DIIS coefficients:  0.0219  0.9781
 SCF Error: norm([F,P])=      0.000027525369, max([F,P])=      0.000023543474
 orbitals (Q,E):
 ---------------
 S :1...2            ( 1.00    -0.2435)  ( 0.00     0.0932)
 P :1...1            ( 0.00     0.3996)
 D :1...1            ( 0.00     2.5610)

 CYCLE    6
  SDIIS (wt  1.000): -0.0582  1.0582
  DIIS coefficients: -0.0582  1.0582
 SCF Error: norm([F,P])=      0.000001514450, max([F,P])=      0.000001285214
 orbitals (Q,E):
 ---------------
 S :1...2            ( 1.00    -0.2435)  ( 0.00     0.0932)
 P :1...1            ( 0.00     0.3996)
 D :1...1            ( 0.00     2.5610)

 CYCLE    7
  SDIIS (wt  1.000): -0.0031  1.0031
  DIIS coefficients: -0.0031  1.0031
 SCF Error: norm([F,P])=      0.000000004705, max([F,P])=      0.000000004158
 orbitals (Q,E):
 ---------------
 S :1...2            ( 1.00    -0.2435)  ( 0.00     0.0932)
 P :1...1            ( 0.00     0.3996)
 D :1...1            ( 0.00     2.5610)

 SCF CONVERGED

 CYCLE    8
1
 ***************************************************************************************************



                                                *******************
                                                *  R E S U L T S  *
                                                *******************
  
 *** Setting up for NEW gradients in Focky
 *** Using FIT density in Focky

 Orbital Energies, per Irrep and Spin:
 ======================================
                        Occup              E (au)              E (eV)       Diff (eV) with prev. cycle
                        -----      --------------------        ------       --------------------------
 S
               1        1.000     -0.24350452296405E+00        -6.626               4.48E-09
               2        0.000      0.93233330888585E-01         2.537
               3        0.000      0.15154066862623E+01        41.236
 P
               1        0.000      0.39955072057198E+00        10.872
 D
               1        0.000      0.25610214787646E+01        69.689


 Partially Occupied:
               1 S                -0.24350452296405E+00
  
 LUMO :        2 S                 0.93233330888585E-01
  


 Orbital Energies, all Irreps
 ========================================

 Irrep        no.  (spin)   Occup              E (au)                E (eV)
 ---------------------------------------------------------------------------
 S             1             1.00       -0.24350452296405E+00        -6.6261
 S             2             0.00        0.93233330888585E-01         2.5370
 P             1             0.00        0.39955072057198E+00        10.8723
 S             3             0.00        0.15154066862623E+01        41.2363
 D             1             0.00        0.25610214787646E+01        69.6889


 All Electron Calculation, thus no Orbital Energies of the Core Orbitals are calculated



 =======================================
 M U L L I K E N   P O P U L A T I O N S
 =======================================
  
 The survey below gives for each atom:
 a) the total charge (Z minus electrons)
 b) the net spin polarization (nr of electrons spin-A minus spin-B)
 c) for each spin the atomic electron valence density (integrated) per L-value.

 Atom              Charge    Spin density          S         P         D         F
 ----              ------    ------------       ------    ------    ------    ------
 1 H               0.0000                       1.0000    0.0000    0.0000    0.0000

 Populations of individual BAS functions
 ----------------------------------------
 1 H            0.1853  0.7115  0.1032  0.0000  0.0000  0.0000  0.0000  0.0000  0.0000  0.0000
                0.0000  0.0000

 Gross Charges per Atom (Z minus electrons)
 ==========================================
             0.0000
 Net Total:  0.00000000



 =======================================================================
 Electrostatic potential at the Nuclei due to electrons and other nuclei
 =======================================================================
  
         Atom                  Potential
         ----                  ---------
     1)   H                   0.94550094
 
 
 ========================
 No memory problems found
 ========================
 
 Maximum number of active allocate calls:         363
 
 *******************************************************************************

                             A D F   E X I T
 NORMAL TERMINATION



 =================
 Timing Statistics
 =================
  
 Total Used :                     CPU=        0.30      System=        0.03     Elapsed=        0.33

 Calls  Section                     ( Mean, Percentage )
 ---------------------------------------------------------------------------------------------------
     3  ><      ................      0.00    0.33             0.00    0.00             0.00    0.24
     1  INIT    ................      0.01    2.68             0.02   64.28             0.03    8.70
     1  GEOMET  ................      0.00    1.34             0.00   17.86             0.01    2.66
     1  INPUTA  ................      0.00    0.33             0.00    0.00             0.00    0.44
     1  MAINSY  ................      0.00    1.67             0.00    3.57             0.01    1.80
     1  SYMFIT  ................      0.00    0.00             0.00    3.57             0.00    0.26
     1  CORORT  ................      0.00    0.00             0.00    0.00             0.00    0.08
     1  SYMORB  ................      0.00    0.33             0.00    0.00             0.00    0.16
     1  CLSMAT  ................      0.00    1.34             0.00    0.00             0.00    1.21
     1  ORTHON  ................      0.00    0.33             0.00    0.00             0.00    0.39
     1  GENPT   ................      0.01    3.01             0.00    3.57             0.01    2.96
     1  PTBAS   ................      0.00    1.00             0.00    0.00             0.00    1.06
     8  FOCKY   ................      0.03   69.23             0.00    7.14             0.03   63.61
     8  FOCKTR  ................      0.00    2.01             0.00    0.00             0.00    1.59
     8  SDIIS   ................      0.00    3.68             0.00    0.00             0.00    3.48
     1  COREPS  ................      0.02    5.69             0.00    0.00             0.02    4.80
     1  POPAN   ................      0.00    1.34             0.00    0.00             0.00    1.14
     1  DEBYE   ................      0.00    0.00             0.00    0.00             0.00    0.15
     1  EXIT PROCEDURE .........      0.02    5.69             0.00    0.00             0.02    5.26


 Currently Open Files (EXIT00)
 ====================

 Unit    Access Format  Status   Type       Ident (file)
 -------------------------------------------------------
   3      SEQ    FORM   TRANSP  NORMAL      LOGFILE
                                          ( logfile )


 Buffered I/O statistics
 =======================
 Memory available:                     67108864
 Number of records fitting in memory:     16131
 Input :   0.2% of                        17478  *4k bytes
 Output:  15.2% of                         1046  *4k bytes
 Records from serial files evicted:           0
                    others evicted:           0
 Hash table lookups:      44676 with          0 conflicts (  0.00%)

 ***************************************************************************************************
 (LOGFILE)
 <Apr18-2019> <22:08:07>  ADF development version  RunTime: Apr18-2019 22:08:07  Nodes: 1  Procs: 1
 <Apr18-2019> <22:08:07>  Hydrogen (TZ2P)
 <Apr18-2019> <22:08:07>  RunType   : CREATE
 <Apr18-2019> <22:08:07>  Net Charge: 0 (Nuclei minus Electrons)
 <Apr18-2019> <22:08:07>  Symmetry  : ATOM
  Coordinates
    Atom         X           Y           Z   (Angstrom)
    1.H         0.000000    0.000000    0.000000
 <Apr18-2019> <22:08:07>  >>>> CORORT
 <Apr18-2019> <22:08:07>  >>>> CLSMAT
 <Apr18-2019> <22:08:07>  >>>> ORTHON
 <Apr18-2019> <22:08:07>  >>>> GENPT
 <Apr18-2019> <22:08:07>  Block Length=  64
 <Apr18-2019> <22:08:07>  >>>> PTBAS
 <Apr18-2019> <22:08:07>  >>>> CYCLE
 <Apr18-2019> <22:08:07>              |Error|         MaxErr       Wt(A-DIIS)
 <Apr18-2019> <22:08:07>      1      0.00000000      0.00000000
 <Apr18-2019> <22:08:07>      2      0.03052616      0.02968253
 <Apr18-2019> <22:08:07>      3      0.00718306      0.00671215    100.0
 <Apr18-2019> <22:08:07>      4      0.00117509      0.00114306      0.1
 <Apr18-2019> <22:08:07>      5      0.00002753      0.00002354      0.0
 <Apr18-2019> <22:08:07>      6      0.00000151      0.00000129      0.0
 <Apr18-2019> <22:08:07>      7      0.00000000      0.00000000      0.0
 <Apr18-2019> <22:08:07>  SCF converged
 <Apr18-2019> <22:08:07>      8      0.00000000      0.00000000      0.0
 <Apr18-2019> <22:08:07>  >>>> POPAN
 <Apr18-2019> <22:08:07>  >>>> DEBYE
 <Apr18-2019> <22:08:07>  NORMAL TERMINATION
 <Apr18-2019> <22:08:07>  END

Create N   file=TZ2P-N
XC
  GGA BP86
End
End Input

 *******************************************************************************
 *                                                                             *
 *  -------------------------------------                                      *
 *   Amsterdam Density Functional  (ADF)         development version           *
 *  -------------------------------------                                      *
 *                                               r61132 2017-09-08             *
 *                                                                             *
 *                                                                             *
 *                              =================                              *
 *                              |               |                              *
 *                              |     A D F     |                              *
 *                              |               |                              *
 *                              =================                              *
 *                                                                             *
 *                                                                             *
 *   Online information and documentation:  https://www.scm.com/support/       *
 *   E-mail:  support@scm.com   info@scm.com                                   *
 *                                                                             *
 *   Scientific publications using ADF results must be properly referenced     *
 *   See the User Manuals (or the web site) for recommended citations          *
 *   The terms and conditions of the End User License Agreement apply to       *
 *   the use of ADF, https://www.scm.com/license-terms/                        *
 *                                                                             *
 **********************  x86_64_linux_intel / intelmpi  ************************
 
 Licensed to: VU/FEW (+ SARA) / ALGEMEEN / Amsterdam / THE NETHERLANDS
 SCM User ID: u7668
  
 ADF development version  RunTime: Apr18-2019 22:08:07  Nodes: 1  Procs: 1

 Temporary files are created in /local/datastore0/tcst25/186817/kid_0.7tCGch

 Nitrogen (TZ2P)



 ===========================
 A T T A C H E D   F I L E S
 ===========================
  
 CREATE - Data File:    TZ2P-N
                        Nitrogen (TZ2P)



 ===============================
 M O D E L   P A R A M E T E R S
 ===============================
  
 DENSITY FUNCTIONAL POTENTIAL (scf)
    LDA:                               VWN                                      
    Gradient Corrections:              Becke88 Perdew86                        == Not Default ==

 SPIN  (restricted / unrestr.)
    Molecule:                          Restricted                               

 OTHER ASPECTS
    Relativistic Corrections:          ---                                      

    Nuclear Charge Density Model:      Point Charge Nuclei                      
    Core Treatment:                    Frozen Orbital(s)                        

    Hyperfine or Zeeman Interaction:   ---                                      



 =====================================
 S Y M M E T R Y ,   E L E C T R O N S
 =====================================
  
 Symmetry: ATOM

 Irreducible Representations, including subspecies
 -------------------------------------------------
 S
 P:x  P:y  P:z
 D:z2  D:x2-y2  D:xy  D:xz  D:yz
 F:z3  F:z  F:xyz  F:z2x  F:z2y  F:x  F:y


 Configuration of Valence Electrons
 ==================================

          Occupation Numbers
          -------------------------------------------------
 S        2*2
 P        3
 D        0
 F        0
          -------------------------------------------------

 Total:   7

 Net Charge: 0 (Nuclei minus Electrons)

 Preset values for MO occupations will be applied through SCF cycle no. 1000000
 Thereafter, the program will assign electrons to MOs that are spatially
 similar to the occupied MOs in a "reference" cycle ("KeepOrbitals").
 The reference cycle is always the PREVIOUS cycle: it will evolve with
 the SCF procedure.



 ================================
 (Slater-type)  F U N C T I O N S  ***  (Basis and Fit)  ***
 ================================
  

 Atom Type    1  (N)
 ==============

 Valence Basis Sets:  10
 -----------------------
   1 S    8.740000
   1 S    5.900000
   2 S    5.150000
   2 S    2.500000
   2 S    1.500000
   2 P    3.680000
   2 P    1.880000
   2 P    1.000000
   3 D    2.200000
   4 F    3.300000


 BAS: List of all Elementary Cartesian Basis Functions
 =====================================================

 The numbering in the list below (to the right of the function characteristics) is referred
 to in print-outs of MO eigenvectors and Mulliken populations in the BAS representation
 (as contrasted to the SFO representation).

 Notes:
 1. The functions are characterized by a polynomial prefactor (powers of x,y,z and r) and
    an exponential decay factor alpha.
 2. Since the basis sets are specific for an atom TYPE, the individual functions occur on
    all atoms of that type.
 3. The word 'Core' in the left margin signals that it is a Core Function (CF) : not a
    degree of freedom in the valence set, but only used to ensure orthogonalization of
    the other valence basis functions on the frozen Core Orbitals.


 (power of) X  Y  Z  R     Alpha  on Atom
            ==========     =====     ==========

 N                                    1
                                  ---------------------------------------------------------------------------
            0  0  0  0     8.740      1
            0  0  0  0     5.900      2
            0  0  0  1     5.150      3
            0  0  0  1     2.500      4
            0  0  0  1     1.500      5
            1  0  0  0     3.680      6
            0  1  0  0     3.680      7
            0  0  1  0     3.680      8
            1  0  0  0     1.880      9
            0  1  0  0     1.880     10
            0  0  1  0     1.880     11
            1  0  0  0     1.000     12
            0  1  0  0     1.000     13
            0  0  1  0     1.000     14
            2  0  0  0     2.200     15
            1  1  0  0     2.200     16
            1  0  1  0     2.200     17
            0  2  0  0     2.200     18
            0  1  1  0     2.200     19
            0  0  2  0     2.200     20
            3  0  0  0     3.300     21
            2  1  0  0     3.300     22
            2  0  1  0     3.300     23
            1  2  0  0     3.300     24
            1  1  1  0     3.300     25
            1  0  2  0     3.300     26
            0  3  0  0     3.300     27
            0  2  1  0     3.300     28
            0  1  2  0     3.300     29
            0  0  3  0     3.300     30

 Total number of charge fitting functions (nprimf)        84
 Total number of Cartesian basis functions (naos)         30
 Total number of Cartesian core functions  (ncos)          0



 BAS: List of all Elementary Cartesian Basis Functions
 =====================================================

 The numbering in the list below (to the right of the function characteristics) is referred
 to in print-outs of MO eigenvectors and Mulliken populations in the BAS representation
 (as contrasted to the SFO representation).

 Notes:
 1. The functions are characterized by a polynomial prefactor (powers of x,y,z and r) and
    an exponential decay factor alpha.
 2. Since the basis sets are specific for an atom TYPE, the individual functions occur on
    all atoms of that type.
 3. The word 'Core' in the left margin signals that it is a Core Function (CF) : not a
    degree of freedom in the valence set, but only used to ensure orthogonalization of
    the other valence basis functions on the frozen Core Orbitals.


 (power of) X  Y  Z  R     Alpha  on Atom
            ==========     =====     ==========

 N                                    1
                                  ---------------------------------------------------------------------------
            0  0  0  0     8.740      1
            0  0  0  0     5.900      2
            0  0  0  1     5.150      3
            0  0  0  1     2.500      4
            0  0  0  1     1.500      5
            1  0  0  0     3.680      6
            0  1  0  0     3.680      7
            0  0  1  0     3.680      8
            1  0  0  0     1.880      9
            0  1  0  0     1.880     10
            0  0  1  0     1.880     11
            1  0  0  0     1.000     12
            0  1  0  0     1.000     13
            0  0  1  0     1.000     14
            2  0  0  0     2.200     15
            1  1  0  0     2.200     16
            1  0  1  0     2.200     17
            0  2  0  0     2.200     18
            0  1  1  0     2.200     19
            0  0  2  0     2.200     20
            3  0  0  0     3.300     21
            2  1  0  0     3.300     22
            2  0  1  0     3.300     23
            1  2  0  0     3.300     24
            1  1  1  0     3.300     25
            1  0  2  0     3.300     26
            0  3  0  0     3.300     27
            0  2  1  0     3.300     28
            0  1  2  0     3.300     29
            0  0  3  0     3.300     30
1
 ***************************************************************************************************



                                              ***********************
                                              *  T E C H N I C A L  *
                                              ***********************
  



 =============================================================
 P A R A L L E L I Z A T I O N  and  V E C T O R I Z A T I O N
 =============================================================
  
 Nr of parallel processes:                                1
 Maximum vector length in NumInt loops:                 128

 IO buffersize (Mb):                                     64.000000



 =====================
 S C F   U P D A T E S
 =====================
  
 Max. nr. of cycles:                               300
 Convergence criterion:                              0.0000000100
   secondary criterion:                              0.0000000100

 Mix parameter (when DIIS does not apply):           0.2000000000
 Special mix parameter for the first cycle:          1.0000000000
 Mixed ADIIS+DIIS will be used
    Max number of expansion vectors:                10
    Pure ADIIS when Max([F,P]) is above              0.1000000000
    Pure DIIS when Max([F,P]) is below               0.0010000000
 Automatic ElectronSmearing (in case of problematic SCF convergence) disabled



 =================
 P R E C I S I O N  ***  (General: NumInt, NeglectFunctionTails, ...)  ***
 =================
  

 NumInt:           Target precision:                12.0000000000
 -------           Initial precision:               10.0000000000
                   Min. precision (optimization):   10.0000000000

 Neglect Functions:          Basis functions:        0.1000000000E-13
 ------------------          Fit functions:          0.1000000000E-13



 ===========================
 L I N E A R   S C A L I N G
 ===========================
  

 Cut-off radii density fit:                        0.1000000000E-97
 Overlap cut-off criterion AO matrix elements:     0.1000000000E-97
 Cut-offs for Coulomb potential and fitted density:0.1000000000E-97
 Cut-off criterion for Coulomb multipole terms:    0.1000000000E-97
 Progressive Convergence parameter:                 0.000000000    
1
 ***************************************************************************************************



                                            ***************************
                                            *  C O M P U T A T I O N  *
                                            ***************************
  

 Number of elements of the density matrix on this node (used, total):       465       465



 ===========================================
 Numerical Integration : Fuzzy Cells (Becke)
 ===========================================
  
 Becke grid quality: VERYGOOD       
  
 Lebedev angular grid order:             min:  13 max:  41
 Nr. of radial points:                   min:  72 max:  72

 Total nr. of points:         72
 Nr. of blocks:                1
 Block length:                72
 Nr. of dummy points:          0


 Test of Precision of the Numerical Integration Grid
 ===================================================

 Integral of the Total Core Density:                   0.00000000000000



 ========================
 Density Fitting (zlmFit)
 ========================
  
 ZlmFit Fit Quality: VERYGOOD       
  
 Max L-expansion:                        min:   0 max:   0
 Nr. of radial interpolation points:     min: 160 max: 160



 =====
 S C F  ***  ScaSCF  ***
 =====
  

 CYCLE    1
 SCF Error: norm([F,P])=      0.000000000000, max([F,P])=      0.000000000000
 orbitals (Q,E):
 ---------------
 S :1...5            ( 2.00   -24.4993)  ( 2.00    -6.1004)  ( 0.00    -2.6599)  ( 0.00     0.7211)
                     ( 0.00    54.4424)
 P :1...3            ( 3.00    -6.1210)  ( 0.00    -2.6439)  ( 0.00    -1.4084)
 D :1...1            ( 0.00    -2.7133)
 F :1...1            ( 0.00    -0.3300)

 CYCLE    2
  SDIIS (wt  0.000):  1.0000 -0.0000
 A-DIIS (wt  1.000):  0.0000  1.0000
  DIIS coefficients:  0.0000  1.0000
 SCF Error: norm([F,P])=      6.451367365890, max([F,P])=      4.219703087224
 orbitals (Q,E):
 ---------------
 S :1...3            ( 2.00   -10.8287)  ( 2.00     0.0014)  ( 0.00     1.1966)
 P :1...2            ( 3.00     0.1843)  ( 0.00     0.9564)
 D :1...1            ( 0.00     1.8417)
 F :1...1            ( 0.00     4.7248)

 CYCLE    3
  SDIIS (wt  0.000):  0.2198  0.7802
 A-DIIS (wt  1.000):  0.2131  0.7869
  DIIS coefficients:  0.2131  0.7869
 SCF Error: norm([F,P])=      2.481517685351, max([F,P])=      1.954795594132
 orbitals (Q,E):
 ---------------
 S :1...3            ( 2.00   -15.1747)  ( 2.00    -1.2497)  ( 0.00     0.2017)
 P :1...2            ( 3.00    -0.8323)  ( 0.00     0.0719)
 D :1...1            ( 0.00     0.7940)
 F :1...1            ( 0.00     3.4887)

 CYCLE    4
  SDIIS (wt  0.000): -0.0612  0.1925  0.8687
 A-DIIS (wt  1.000):  0.0000  0.0259  0.9741
  DIIS coefficients:  0.0000  0.0259  0.9741
 SCF Error: norm([F,P])=      0.970371105527, max([F,P])=      0.641065486122
 orbitals (Q,E):
 ---------------
 S :1...3            ( 2.00   -13.4412)  ( 2.00    -0.4401)  ( 0.00     0.6963)
 P :1...2            ( 3.00    -0.0468)  ( 0.00     0.4437)
 D :1...1            ( 0.00     1.4306)
 F :1...1            ( 0.00     4.2280)

 CYCLE    5
  SDIIS (wt  0.000): -0.0222 -0.0718  0.4807  0.6133
 A-DIIS (wt  1.000):  0.0000  0.0000  0.4633  0.5367
  DIIS coefficients:  0.0000  0.0000  0.4633  0.5367
 SCF Error: norm([F,P])=      0.831034576935, max([F,P])=      0.578511378985
 orbitals (Q,E):
 ---------------
 S :1...3            ( 2.00   -14.1857)  ( 2.00    -0.7190)  ( 0.00     0.4998)
 P :1...2            ( 3.00    -0.2946)  ( 0.00     0.2748)
 D :1...1            ( 0.00     1.2103)
 F :1...1            ( 0.00     3.9682)

 CYCLE    6
  SDIIS (wt  0.696):  0.0027 -0.0052 -0.0171  0.0723  0.9473
 A-DIIS (wt  0.304):  0.0000  0.0000  0.0000  0.0000  1.0000
  DIIS coefficients:  0.0019 -0.0036 -0.0119  0.0503  0.9634
 SCF Error: norm([F,P])=      0.059655214985, max([F,P])=      0.031138717216
 orbitals (Q,E):
 ---------------
 S :1...3            ( 2.00   -14.1243)  ( 2.00    -0.6773)  ( 0.00     0.5219)
 P :1...2            ( 3.00    -0.2558)  ( 0.00     0.2921)
 D :1...1            ( 0.00     1.2456)
 F :1...1            ( 0.00     4.0096)

 CYCLE    7
  SDIIS (wt  0.824): -0.0002  0.0014  0.0138 -0.0266 -0.0370  1.0487
 A-DIIS (wt  0.176):  0.0000  0.0000  0.0000  0.0000  0.0360  0.9640
  DIIS coefficients: -0.0002  0.0011  0.0114 -0.0220 -0.0242  1.0338
 SCF Error: norm([F,P])=      0.027721651816, max([F,P])=      0.018404675135
 orbitals (Q,E):
 ---------------
 S :1...3            ( 2.00   -14.1511)  ( 2.00    -0.6888)  ( 0.00     0.5142)
 P :1...2            ( 3.00    -0.2669)  ( 0.00     0.2857)
 D :1...1            ( 0.00     1.2367)
 F :1...1            ( 0.00     3.9991)

 CYCLE    8
  SDIIS (wt  0.979): -0.0000  0.0002  0.0011 -0.0022 -0.0006  0.2099  0.7916
 A-DIIS (wt  0.021):  0.0000  0.0000  0.0000  0.0000  0.0000  0.0000  1.0000
  DIIS coefficients: -0.0000  0.0002  0.0011 -0.0021 -0.0006  0.2055  0.7960
 SCF Error: norm([F,P])=      0.004499232480, max([F,P])=      0.003081258258
 orbitals (Q,E):
 ---------------
 S :1...3            ( 2.00   -14.1473)  ( 2.00    -0.6873)  ( 0.00     0.5152)
 P :1...2            ( 3.00    -0.2655)  ( 0.00     0.2865)
 D :1...1            ( 0.00     1.2378)
 F :1...1            ( 0.00     4.0005)

 CYCLE    9
  SDIIS (wt  1.000):  0.0000 -0.0000 -0.0001  0.0001 -0.0002 -0.0094 -0.0232  1.0327
  DIIS coefficients:  0.0000 -0.0000 -0.0001  0.0001 -0.0002 -0.0094 -0.0232  1.0327
 SCF Error: norm([F,P])=      0.000019361449, max([F,P])=      0.000012105781
 orbitals (Q,E):
 ---------------
 S :1...3            ( 2.00   -14.1473)  ( 2.00    -0.6873)  ( 0.00     0.5152)
 P :1...2            ( 3.00    -0.2655)  ( 0.00     0.2865)
 D :1...1            ( 0.00     1.2378)
 F :1...1            ( 0.00     4.0005)

 CYCLE   10
  SDIIS (wt  1.000): -0.0000 -0.0000  0.0000  0.0000 -0.0001  0.0001  0.0232  0.9769
  DIIS coefficients: -0.0000 -0.0000  0.0000  0.0000 -0.0001  0.0001  0.0232  0.9769
 SCF Error: norm([F,P])=      0.000001838439, max([F,P])=      0.000001230955
 orbitals (Q,E):
 ---------------
 S :1...3            ( 2.00   -14.1473)  ( 2.00    -0.6873)  ( 0.00     0.5152)
 P :1...2            ( 3.00    -0.2655)  ( 0.00     0.2865)
 D :1...1            ( 0.00     1.2378)
 F :1...1            ( 0.00     4.0005)

 CYCLE   11
  SDIIS (wt  1.000): -0.0000 -0.0000 -0.0000 -0.0006 -0.0321  1.0328
  DIIS coefficients: -0.0000 -0.0000 -0.0000 -0.0006 -0.0321  1.0328
 SCF Error: norm([F,P])=      0.000000052960, max([F,P])=      0.000000032927
 orbitals (Q,E):
 ---------------
 S :1...3            ( 2.00   -14.1473)  ( 2.00    -0.6873)  ( 0.00     0.5152)
 P :1...2            ( 3.00    -0.2655)  ( 0.00     0.2865)
 D :1...1            ( 0.00     1.2378)
 F :1...1            ( 0.00     4.0005)

 CYCLE   12
  SDIIS (wt  1.000): -0.0000  0.0000 -0.0002  0.0076  0.9926
  DIIS coefficients: -0.0000  0.0000 -0.0002  0.0076  0.9926
 SCF Error: norm([F,P])=      0.000000000214, max([F,P])=      0.000000000118
 orbitals (Q,E):
 ---------------
 S :1...3            ( 2.00   -14.1473)  ( 2.00    -0.6873)  ( 0.00     0.5152)
 P :1...2            ( 3.00    -0.2655)  ( 0.00     0.2865)
 D :1...1            ( 0.00     1.2378)
 F :1...1            ( 0.00     4.0005)

 SCF CONVERGED

 CYCLE   13
1
 ***************************************************************************************************



                                                *******************
                                                *  R E S U L T S  *
                                                *******************
  
 *** Setting up for NEW gradients in Focky
 *** Using FIT density in Focky

 Orbital Energies, per Irrep and Spin:
 ======================================
                        Occup              E (au)              E (eV)       Diff (eV) with prev. cycle
                        -----      --------------------        ------       --------------------------
 S
               1        2.000     -0.14147275471391E+02      -384.967               8.94E-10
               2        2.000     -0.68732764310953E+00       -18.703               5.68E-10
               3        0.000      0.51515957710219E+00        14.018
               4        0.000      0.68959769444915E+01       187.649
               5        0.000      0.63979073432212E+02      1740.959
 P
               1        3.000     -0.26548379507191E+00        -7.224               5.44E-10
               2        0.000      0.28654429146964E+00         7.797
               3        0.000      0.32908032270942E+01        89.547
 D
               1        0.000      0.12378131244837E+01        33.683
 F
               1        0.000      0.40004783530592E+01       108.859


 Partially Occupied:
               1 P                -0.26548379507191E+00
  
 HOMO :        2 S                -0.68732764310953E+00
 LUMO :        2 P                 0.28654429146964E+00
  


 Orbital Energies, all Irreps
 ========================================

 Irrep        no.  (spin)   Occup              E (au)                E (eV)
 ---------------------------------------------------------------------------
 S             1             2.00       -0.14147275471391E+02      -384.9670
 S             2             2.00       -0.68732764310953E+00       -18.7031
 P             1             3.00       -0.26548379507191E+00        -7.2242
 P             2             0.00        0.28654429146964E+00         7.7973
 S             3             0.00        0.51515957710219E+00        14.0182
 D             1             0.00        0.12378131244837E+01        33.6826
 P             3             0.00        0.32908032270942E+01        89.5473
 F             1             0.00        0.40004783530592E+01       108.8586
 S             4             0.00        0.68959769444915E+01       187.6491
 S             5             0.00        0.63979073432212E+02      1740.9592


 All Electron Calculation, thus no Orbital Energies of the Core Orbitals are calculated



 =======================================
 M U L L I K E N   P O P U L A T I O N S
 =======================================
  
 The survey below gives for each atom:
 a) the total charge (Z minus electrons)
 b) the net spin polarization (nr of electrons spin-A minus spin-B)
 c) for each spin the atomic electron valence density (integrated) per L-value.

 Atom              Charge    Spin density          S         P         D         F
 ----              ------    ------------       ------    ------    ------    ------
 1 N              -0.0000                       4.0000    3.0000    0.0000    0.0000

 Populations of individual BAS functions
 ----------------------------------------
 1 N            0.5256  1.4646 -0.0480  1.1588  0.8990  0.1407  0.1407  0.1407  0.5661  0.5661
                0.5661  0.2932  0.2932  0.2932  0.0000  0.0000  0.0000  0.0000  0.0000  0.0000
                0.0000  0.0000  0.0000  0.0000  0.0000  0.0000  0.0000  0.0000  0.0000  0.0000

 Gross Charges per Atom (Z minus electrons)
 ==========================================
            -0.0000
 Net Total: -0.00000000



 =======================================================================
 Electrostatic potential at the Nuclei due to electrons and other nuclei
 =======================================================================
  
         Atom                  Potential
         ----                  ---------
     1)   N                  18.29008691
 
 
 ========================
 No memory problems found
 ========================
 
 Maximum number of active allocate calls:         447
 
 *******************************************************************************

                             A D F   E X I T
 NORMAL TERMINATION



 =================
 Timing Statistics
 =================
  
 Total Used :                     CPU=        0.49      System=        0.03     Elapsed=        0.52

 Calls  Section                     ( Mean, Percentage )
 ---------------------------------------------------------------------------------------------------
     3  ><      ................      0.00    0.00             0.00    0.00             0.00    0.15
     1  INIT    ................      0.01    2.05             0.01   44.83             0.03    4.93
     1  GEOMET  ................      0.00    1.02             0.00   13.80             0.01    1.59
     1  INPUTA  ................      0.00    0.41             0.00    0.00             0.00    0.29
     1  MAINSY  ................      0.00    0.41             0.00   13.79             0.01    1.15
     1  SYMFIT  ................      0.00    0.20             0.00    0.00             0.00    0.15
     1  CORORT  ................      0.00    0.00             0.00    0.00             0.00    0.05
     1  SYMORB  ................      0.00    0.20             0.00    0.00             0.00    0.13
     1  CLSMAT  ................      0.00    1.02             0.00    0.00             0.01    1.00
     1  ORTHON  ................      0.00    0.20             0.00    0.00             0.00    0.28
     1  GENPT   ................      0.01    3.07             0.00    0.00             0.01    2.83
     1  PTBAS   ................      0.00    0.61             0.00    0.00             0.00    0.67
    13  FOCKY   ................      0.03   75.87             0.00   17.24             0.03   71.95
    13  FOCKTR  ................      0.00    2.05             0.00    0.00             0.00    2.08
    13  SDIIS   ................      0.00    3.89             0.00    3.45             0.00    4.01
     1  COREPS  ................      0.02    4.50             0.00    0.00             0.02    4.07
     1  POPAN   ................      0.00    1.02             0.00    0.00             0.01    1.00
     1  DEBYE   ................      0.00    0.00             0.00    0.00             0.00    0.11
     1  EXIT PROCEDURE .........      0.02    3.48             0.00    6.90             0.02    3.55


 Currently Open Files (EXIT00)
 ====================

 Unit    Access Format  Status   Type       Ident (file)
 -------------------------------------------------------
   3      SEQ    FORM   TRANSP  NORMAL      LOGFILE
                                          ( logfile )


 Buffered I/O statistics
 =======================
 Memory available:                     67108864
 Number of records fitting in memory:     16131
 Input :   0.1% of                        27821  *4k bytes
 Output:  13.6% of                         1374  *4k bytes
 Records from serial files evicted:           0
                    others evicted:           0
 Hash table lookups:      71921 with          0 conflicts (  0.00%)

 ***************************************************************************************************
 (LOGFILE)
 <Apr18-2019> <22:08:07>  ADF development version  RunTime: Apr18-2019 22:08:07  Nodes: 1  Procs: 1
 <Apr18-2019> <22:08:07>  Hydrogen (TZ2P)
 <Apr18-2019> <22:08:07>  RunType   : CREATE
 <Apr18-2019> <22:08:07>  Net Charge: 0 (Nuclei minus Electrons)
 <Apr18-2019> <22:08:07>  Symmetry  : ATOM
  Coordinates
    Atom         X           Y           Z   (Angstrom)
    1.H         0.000000    0.000000    0.000000
 <Apr18-2019> <22:08:07>  >>>> CORORT
 <Apr18-2019> <22:08:07>  >>>> CLSMAT
 <Apr18-2019> <22:08:07>  >>>> ORTHON
 <Apr18-2019> <22:08:07>  >>>> GENPT
 <Apr18-2019> <22:08:07>  Block Length=  64
 <Apr18-2019> <22:08:07>  >>>> PTBAS
 <Apr18-2019> <22:08:07>  >>>> CYCLE
 <Apr18-2019> <22:08:07>              |Error|         MaxErr       Wt(A-DIIS)
 <Apr18-2019> <22:08:07>      1      0.00000000      0.00000000
 <Apr18-2019> <22:08:07>      2      0.03052616      0.02968253
 <Apr18-2019> <22:08:07>      3      0.00718306      0.00671215    100.0
 <Apr18-2019> <22:08:07>      4      0.00117509      0.00114306      0.1
 <Apr18-2019> <22:08:07>      5      0.00002753      0.00002354      0.0
 <Apr18-2019> <22:08:07>      6      0.00000151      0.00000129      0.0
 <Apr18-2019> <22:08:07>      7      0.00000000      0.00000000      0.0
 <Apr18-2019> <22:08:07>  SCF converged
 <Apr18-2019> <22:08:07>      8      0.00000000      0.00000000      0.0
 <Apr18-2019> <22:08:07>  >>>> POPAN
 <Apr18-2019> <22:08:07>  >>>> DEBYE
 <Apr18-2019> <22:08:07>  NORMAL TERMINATION
 <Apr18-2019> <22:08:07>  END
 <Apr18-2019> <22:08:07>  ADF development version  RunTime: Apr18-2019 22:08:07  Nodes: 1  Procs: 1
 <Apr18-2019> <22:08:07>  Nitrogen (TZ2P)
 <Apr18-2019> <22:08:07>  RunType   : CREATE
 <Apr18-2019> <22:08:08>  Net Charge: 0 (Nuclei minus Electrons)
 <Apr18-2019> <22:08:08>  Symmetry  : ATOM
  Coordinates
    Atom         X           Y           Z   (Angstrom)
    1.N         0.000000    0.000000    0.000000
 <Apr18-2019> <22:08:08>  >>>> CORORT
 <Apr18-2019> <22:08:08>  >>>> CLSMAT
 <Apr18-2019> <22:08:08>  >>>> ORTHON
 <Apr18-2019> <22:08:08>  >>>> GENPT
 <Apr18-2019> <22:08:08>  Block Length=  72
 <Apr18-2019> <22:08:08>  >>>> PTBAS
 <Apr18-2019> <22:08:08>  >>>> CYCLE
 <Apr18-2019> <22:08:08>              |Error|         MaxErr       Wt(A-DIIS)
 <Apr18-2019> <22:08:08>      1      0.00000000      0.00000000
 <Apr18-2019> <22:08:08>      2      6.45136737      4.21970309    100.0
 <Apr18-2019> <22:08:08>      3      2.48151769      1.95479559    100.0
 <Apr18-2019> <22:08:08>      4      0.97037111      0.64106549    100.0
 <Apr18-2019> <22:08:08>      5      0.83103458      0.57851138    100.0
 <Apr18-2019> <22:08:08>      6      0.05965521      0.03113872     30.4
 <Apr18-2019> <22:08:08>      7      0.02772165      0.01840468     17.6
 <Apr18-2019> <22:08:08>      8      0.00449923      0.00308126      2.1
 <Apr18-2019> <22:08:08>      9      0.00001936      0.00001211      0.0
 <Apr18-2019> <22:08:08>     10      0.00000184      0.00000123      0.0
 <Apr18-2019> <22:08:08>     11      0.00000005      0.00000003      0.0
 <Apr18-2019> <22:08:08>     12      0.00000000      0.00000000      0.0
 <Apr18-2019> <22:08:08>  SCF converged
 <Apr18-2019> <22:08:08>     13      0.00000000      0.00000000      0.0
 <Apr18-2019> <22:08:08>  >>>> POPAN
 <Apr18-2019> <22:08:08>  >>>> DEBYE
 <Apr18-2019> <22:08:08>  NORMAL TERMINATION
 <Apr18-2019> <22:08:08>  END

Create C   file=TZ2P-C
XC
  GGA BP86
End
End Input

 *******************************************************************************
 *                                                                             *
 *  -------------------------------------                                      *
 *   Amsterdam Density Functional  (ADF)         development version           *
 *  -------------------------------------                                      *
 *                                               r61132 2017-09-08             *
 *                                                                             *
 *                                                                             *
 *                              =================                              *
 *                              |               |                              *
 *                              |     A D F     |                              *
 *                              |               |                              *
 *                              =================                              *
 *                                                                             *
 *                                                                             *
 *   Online information and documentation:  https://www.scm.com/support/       *
 *   E-mail:  support@scm.com   info@scm.com                                   *
 *                                                                             *
 *   Scientific publications using ADF results must be properly referenced     *
 *   See the User Manuals (or the web site) for recommended citations          *
 *   The terms and conditions of the End User License Agreement apply to       *
 *   the use of ADF, https://www.scm.com/license-terms/                        *
 *                                                                             *
 **********************  x86_64_linux_intel / intelmpi  ************************
 
 Licensed to: VU/FEW (+ SARA) / ALGEMEEN / Amsterdam / THE NETHERLANDS
 SCM User ID: u7668
  
 ADF development version  RunTime: Apr18-2019 22:08:08  Nodes: 1  Procs: 1

 Temporary files are created in /local/datastore0/tcst25/186817/kid_0.2DYNtO

 Carbon (TZ2P)



 ===========================
 A T T A C H E D   F I L E S
 ===========================
  
 CREATE - Data File:    TZ2P-C
                        Carbon (TZ2P)



 ===============================
 M O D E L   P A R A M E T E R S
 ===============================
  
 DENSITY FUNCTIONAL POTENTIAL (scf)
    LDA:                               VWN                                      
    Gradient Corrections:              Becke88 Perdew86                        == Not Default ==

 SPIN  (restricted / unrestr.)
    Molecule:                          Restricted                               

 OTHER ASPECTS
    Relativistic Corrections:          ---                                      

    Nuclear Charge Density Model:      Point Charge Nuclei                      
    Core Treatment:                    Frozen Orbital(s)                        

    Hyperfine or Zeeman Interaction:   ---                                      



 =====================================
 S Y M M E T R Y ,   E L E C T R O N S
 =====================================
  
 Symmetry: ATOM

 Irreducible Representations, including subspecies
 -------------------------------------------------
 S
 P:x  P:y  P:z
 D:z2  D:x2-y2  D:xy  D:xz  D:yz
 F:z3  F:z  F:xyz  F:z2x  F:z2y  F:x  F:y


 Configuration of Valence Electrons
 ==================================

          Occupation Numbers
          -------------------------------------------------
 S        2*2
 P        2
 D        0
 F        0
          -------------------------------------------------

 Total:   6

 Net Charge: 0 (Nuclei minus Electrons)

 Preset values for MO occupations will be applied through SCF cycle no. 1000000
 Thereafter, the program will assign electrons to MOs that are spatially
 similar to the occupied MOs in a "reference" cycle ("KeepOrbitals").
 The reference cycle is always the PREVIOUS cycle: it will evolve with
 the SCF procedure.



 ================================
 (Slater-type)  F U N C T I O N S  ***  (Basis and Fit)  ***
 ================================
  

 Atom Type    1  (C)
 ==============

 Valence Basis Sets:  10
 -----------------------
   1 S    7.680000
   1 S    5.000000
   2 S    1.280000
   2 S    2.100000
   2 S    4.600000
   2 P    0.820000
   2 P    1.480000
   2 P    2.940000
   3 D    2.200000
   4 F    3.300000


 BAS: List of all Elementary Cartesian Basis Functions
 =====================================================

 The numbering in the list below (to the right of the function characteristics) is referred
 to in print-outs of MO eigenvectors and Mulliken populations in the BAS representation
 (as contrasted to the SFO representation).

 Notes:
 1. The functions are characterized by a polynomial prefactor (powers of x,y,z and r) and
    an exponential decay factor alpha.
 2. Since the basis sets are specific for an atom TYPE, the individual functions occur on
    all atoms of that type.
 3. The word 'Core' in the left margin signals that it is a Core Function (CF) : not a
    degree of freedom in the valence set, but only used to ensure orthogonalization of
    the other valence basis functions on the frozen Core Orbitals.


 (power of) X  Y  Z  R     Alpha  on Atom
            ==========     =====     ==========

 C                                    1
                                  ---------------------------------------------------------------------------
            0  0  0  0     7.680      1
            0  0  0  0     5.000      2
            0  0  0  1     1.280      3
            0  0  0  1     2.100      4
            0  0  0  1     4.600      5
            1  0  0  0     0.820      6
            0  1  0  0     0.820      7
            0  0  1  0     0.820      8
            1  0  0  0     1.480      9
            0  1  0  0     1.480     10
            0  0  1  0     1.480     11
            1  0  0  0     2.940     12
            0  1  0  0     2.940     13
            0  0  1  0     2.940     14
            2  0  0  0     2.200     15
            1  1  0  0     2.200     16
            1  0  1  0     2.200     17
            0  2  0  0     2.200     18
            0  1  1  0     2.200     19
            0  0  2  0     2.200     20
            3  0  0  0     3.300     21
            2  1  0  0     3.300     22
            2  0  1  0     3.300     23
            1  2  0  0     3.300     24
            1  1  1  0     3.300     25
            1  0  2  0     3.300     26
            0  3  0  0     3.300     27
            0  2  1  0     3.300     28
            0  1  2  0     3.300     29
            0  0  3  0     3.300     30

 Total number of charge fitting functions (nprimf)        84
 Total number of Cartesian basis functions (naos)         30
 Total number of Cartesian core functions  (ncos)          0



 BAS: List of all Elementary Cartesian Basis Functions
 =====================================================

 The numbering in the list below (to the right of the function characteristics) is referred
 to in print-outs of MO eigenvectors and Mulliken populations in the BAS representation
 (as contrasted to the SFO representation).

 Notes:
 1. The functions are characterized by a polynomial prefactor (powers of x,y,z and r) and
    an exponential decay factor alpha.
 2. Since the basis sets are specific for an atom TYPE, the individual functions occur on
    all atoms of that type.
 3. The word 'Core' in the left margin signals that it is a Core Function (CF) : not a
    degree of freedom in the valence set, but only used to ensure orthogonalization of
    the other valence basis functions on the frozen Core Orbitals.


 (power of) X  Y  Z  R     Alpha  on Atom
            ==========     =====     ==========

 C                                    1
                                  ---------------------------------------------------------------------------
            0  0  0  0     7.680      1
            0  0  0  0     5.000      2
            0  0  0  1     1.280      3
            0  0  0  1     2.100      4
            0  0  0  1     4.600      5
            1  0  0  0     0.820      6
            0  1  0  0     0.820      7
            0  0  1  0     0.820      8
            1  0  0  0     1.480      9
            0  1  0  0     1.480     10
            0  0  1  0     1.480     11
            1  0  0  0     2.940     12
            0  1  0  0     2.940     13
            0  0  1  0     2.940     14
            2  0  0  0     2.200     15
            1  1  0  0     2.200     16
            1  0  1  0     2.200     17
            0  2  0  0     2.200     18
            0  1  1  0     2.200     19
            0  0  2  0     2.200     20
            3  0  0  0     3.300     21
            2  1  0  0     3.300     22
            2  0  1  0     3.300     23
            1  2  0  0     3.300     24
            1  1  1  0     3.300     25
            1  0  2  0     3.300     26
            0  3  0  0     3.300     27
            0  2  1  0     3.300     28
            0  1  2  0     3.300     29
            0  0  3  0     3.300     30
1
 ***************************************************************************************************



                                              ***********************
                                              *  T E C H N I C A L  *
                                              ***********************
  



 =============================================================
 P A R A L L E L I Z A T I O N  and  V E C T O R I Z A T I O N
 =============================================================
  
 Nr of parallel processes:                                1
 Maximum vector length in NumInt loops:                 128

 IO buffersize (Mb):                                     64.000000



 =====================
 S C F   U P D A T E S
 =====================
  
 Max. nr. of cycles:                               300
 Convergence criterion:                              0.0000000100
   secondary criterion:                              0.0000000100

 Mix parameter (when DIIS does not apply):           0.2000000000
 Special mix parameter for the first cycle:          1.0000000000
 Mixed ADIIS+DIIS will be used
    Max number of expansion vectors:                10
    Pure ADIIS when Max([F,P]) is above              0.1000000000
    Pure DIIS when Max([F,P]) is below               0.0010000000
 Automatic ElectronSmearing (in case of problematic SCF convergence) disabled



 =================
 P R E C I S I O N  ***  (General: NumInt, NeglectFunctionTails, ...)  ***
 =================
  

 NumInt:           Target precision:                12.0000000000
 -------           Initial precision:               10.0000000000
                   Min. precision (optimization):   10.0000000000

 Neglect Functions:          Basis functions:        0.1000000000E-13
 ------------------          Fit functions:          0.1000000000E-13



 ===========================
 L I N E A R   S C A L I N G
 ===========================
  

 Cut-off radii density fit:                        0.1000000000E-97
 Overlap cut-off criterion AO matrix elements:     0.1000000000E-97
 Cut-offs for Coulomb potential and fitted density:0.1000000000E-97
 Cut-off criterion for Coulomb multipole terms:    0.1000000000E-97
 Progressive Convergence parameter:                 0.000000000    
1
 ***************************************************************************************************



                                            ***************************
                                            *  C O M P U T A T I O N  *
                                            ***************************
  

 Number of elements of the density matrix on this node (used, total):       465       465



 ===========================================
 Numerical Integration : Fuzzy Cells (Becke)
 ===========================================
  
 Becke grid quality: VERYGOOD       
  
 Lebedev angular grid order:             min:  13 max:  41
 Nr. of radial points:                   min:  72 max:  72

 Total nr. of points:         72
 Nr. of blocks:                1
 Block length:                72
 Nr. of dummy points:          0


 Test of Precision of the Numerical Integration Grid
 ===================================================

 Integral of the Total Core Density:                   0.00000000000000



 ========================
 Density Fitting (zlmFit)
 ========================
  
 ZlmFit Fit Quality: VERYGOOD       
  
 Max L-expansion:                        min:   0 max:   0
 Nr. of radial interpolation points:     min: 160 max: 160



 =====
 S C F  ***  ScaSCF  ***
 =====
  

 CYCLE    1
 SCF Error: norm([F,P])=      0.000000000000, max([F,P])=      0.000000000000
 orbitals (Q,E):
 ---------------
 S :1...5            ( 2.00   -17.9995)  ( 2.00    -4.4761)  ( 0.00    -1.9482)  ( 0.00     0.6812)
                     ( 0.00    42.8100)
 P :1...3            ( 2.00    -4.4994)  ( 0.00    -1.9807)  ( 0.00    -1.0849)
 D :1...1            ( 0.00    -1.9800)
 F :1...1            ( 0.00     0.4950)

 CYCLE    2
  SDIIS (wt  0.000):  1.0000 -0.0000
 A-DIIS (wt  1.000):  0.0000  1.0000
  DIIS coefficients:  0.0000  1.0000
 SCF Error: norm([F,P])=      4.483247543453, max([F,P])=      3.319692437215
 orbitals (Q,E):
 ---------------
 S :1...3            ( 2.00    -7.7796)  ( 2.00    -0.0272)  ( 0.00     0.8405)
 P :1...2            ( 2.00     0.1088)  ( 0.00     0.5815)
 D :1...1            ( 0.00     1.7650)
 F :1...1            ( 0.00     4.6321)

 CYCLE    3
  SDIIS (wt  0.000):  0.2146  0.7854
 A-DIIS (wt  1.000):  0.1002  0.8998
  DIIS coefficients:  0.1002  0.8998
 SCF Error: norm([F,P])=      1.615377071090, max([F,P])=      1.304101935147
 orbitals (Q,E):
 ---------------
 S :1...3            ( 2.00   -11.0618)  ( 2.00    -0.9719)  ( 0.00     0.1026)
 P :1...2            ( 2.00    -0.6633)  ( 0.00     0.0057)
 D :1...1            ( 0.00     0.8110)
 F :1...1            ( 0.00     3.5316)

 CYCLE    4
  SDIIS (wt  0.000): -0.0646  0.2204  0.8442
 A-DIIS (wt  1.000):  0.0000  0.0669  0.9331
  DIIS coefficients:  0.0000  0.0669  0.9331
 SCF Error: norm([F,P])=      0.727062835235, max([F,P])=      0.590531306529
 orbitals (Q,E):
 ---------------
 S :1...3            ( 2.00    -9.5928)  ( 2.00    -0.3589)  ( 0.00     0.4870)
 P :1...2            ( 2.00    -0.0657)  ( 0.00     0.2593)
 D :1...1            ( 0.00     1.3775)
 F :1...1            ( 0.00     4.1761)

 CYCLE    5
  SDIIS (wt  0.000): -0.0190 -0.0582  0.3730  0.7042
 A-DIIS (wt  1.000):  0.0000  0.0000  0.2349  0.7651
  DIIS coefficients:  0.0000  0.0000  0.2349  0.7651
 SCF Error: norm([F,P])=      0.408986877990, max([F,P])=      0.332637996056
 orbitals (Q,E):
 ---------------
 S :1...3            ( 2.00   -10.2125)  ( 2.00    -0.5796)  ( 0.00     0.3271)
 P :1...2            ( 2.00    -0.2644)  ( 0.00     0.1416)
 D :1...1            ( 0.00     1.1659)
 F :1...1            ( 0.00     3.9304)

 CYCLE    6
  SDIIS (wt  0.000):  0.0033 -0.0108 -0.0812  0.2121  0.8767
 A-DIIS (wt  1.000):  0.0000  0.0000  0.0000  0.0000  1.0000
  DIIS coefficients:  0.0000  0.0000  0.0000  0.0000  1.0000
 SCF Error: norm([F,P])=      0.135489187246, max([F,P])=      0.105944162354
 orbitals (Q,E):
 ---------------
 S :1...3            ( 2.00    -9.9299)  ( 2.00    -0.4611)  ( 0.00     0.4052)
 P :1...2            ( 2.00    -0.1536)  ( 0.00     0.1986)
 D :1...1            ( 0.00     1.2786)
 F :1...1            ( 0.00     4.0598)

 CYCLE    7
  SDIIS (wt  0.092): -0.0004  0.0033  0.0106 -0.1524  0.2655  0.8734
 A-DIIS (wt  0.908):  0.0000  0.0000  0.0000  0.0000  0.3950  0.6050
  DIIS coefficients: -0.0000  0.0003  0.0010 -0.0140  0.3831  0.6297
 SCF Error: norm([F,P])=      0.114064321572, max([F,P])=      0.090880191346
 orbitals (Q,E):
 ---------------
 S :1...3            ( 2.00   -10.0707)  ( 2.00    -0.5153)  ( 0.00     0.3674)
 P :1...2            ( 2.00    -0.2035)  ( 0.00     0.1706)
 D :1...1            ( 0.00     1.2270)
 F :1...1            ( 0.00     4.0001)

 CYCLE    8
  SDIIS (wt  0.917): -0.0001  0.0008  0.0035 -0.0258 -0.0091  0.1766  0.8542
 A-DIIS (wt  0.083):  0.0000  0.0000  0.0000  0.0000  0.0000  0.0000  1.0000
  DIIS coefficients: -0.0001  0.0008  0.0032 -0.0237 -0.0084  0.1619  0.8663
 SCF Error: norm([F,P])=      0.011703250036, max([F,P])=      0.009265507995
 orbitals (Q,E):
 ---------------
 S :1...3            ( 2.00   -10.0567)  ( 2.00    -0.5096)  ( 0.00     0.3711)
 P :1...2            ( 2.00    -0.1982)  ( 0.00     0.1732)
 D :1...1            ( 0.00     1.2325)
 F :1...1            ( 0.00     4.0064)

 CYCLE    9
  SDIIS (wt  1.000): -0.0000 -0.0000  0.0001  0.0005  0.0017 -0.0121 -0.0564  1.0662
  DIIS coefficients: -0.0000 -0.0000  0.0001  0.0005  0.0017 -0.0121 -0.0564  1.0662
 SCF Error: norm([F,P])=      0.000780147844, max([F,P])=      0.000617910359
 orbitals (Q,E):
 ---------------
 S :1...3            ( 2.00   -10.0576)  ( 2.00    -0.5099)  ( 0.00     0.3708)
 P :1...2            ( 2.00    -0.1985)  ( 0.00     0.1730)
 D :1...1            ( 0.00     1.2321)
 F :1...1            ( 0.00     4.0060)

 CYCLE   10
  SDIIS (wt  1.000): -0.0000  0.0000  0.0000 -0.0001  0.0000  0.0004  0.0021  0.0101  0.9875
  DIIS coefficients: -0.0000  0.0000  0.0000 -0.0001  0.0000  0.0004  0.0021  0.0101  0.9875
 SCF Error: norm([F,P])=      0.000001779707, max([F,P])=      0.000001066207
 orbitals (Q,E):
 ---------------
 S :1...3            ( 2.00   -10.0576)  ( 2.00    -0.5099)  ( 0.00     0.3708)
 P :1...2            ( 2.00    -0.1985)  ( 0.00     0.1730)
 D :1...1            ( 0.00     1.2321)
 F :1...1            ( 0.00     4.0060)

 CYCLE   11
  SDIIS (wt  1.000): -0.0000  0.0000  0.0000 -0.0003 -0.0294  1.0296
  DIIS coefficients: -0.0000  0.0000  0.0000 -0.0003 -0.0294  1.0296
 SCF Error: norm([F,P])=      0.000000243303, max([F,P])=      0.000000187858
 orbitals (Q,E):
 ---------------
 S :1...3            ( 2.00   -10.0576)  ( 2.00    -0.5099)  ( 0.00     0.3708)
 P :1...2            ( 2.00    -0.1985)  ( 0.00     0.1730)
 D :1...1            ( 0.00     1.2321)
 F :1...1            ( 0.00     4.0060)

 CYCLE   12
  SDIIS (wt  1.000): -0.0000  0.0000 -0.0010  0.0336  0.9674
  DIIS coefficients: -0.0000  0.0000 -0.0010  0.0336  0.9674
 SCF Error: norm([F,P])=      0.000000000721, max([F,P])=      0.000000000394
 orbitals (Q,E):
 ---------------
 S :1...3            ( 2.00   -10.0576)  ( 2.00    -0.5099)  ( 0.00     0.3708)
 P :1...2            ( 2.00    -0.1985)  ( 0.00     0.1730)
 D :1...1            ( 0.00     1.2321)
 F :1...1            ( 0.00     4.0060)

 SCF CONVERGED

 CYCLE   13
1
 ***************************************************************************************************



                                                *******************
                                                *  R E S U L T S  *
                                                *******************
  
 *** Setting up for NEW gradients in Focky
 *** Using FIT density in Focky

 Orbital Energies, per Irrep and Spin:
 ======================================
                        Occup              E (au)              E (eV)       Diff (eV) with prev. cycle
                        -----      --------------------        ------       --------------------------
 S
               1        2.000     -0.10057606152104E+02      -273.681               4.15E-11
               2        2.000     -0.50994760171307E+00       -13.876               2.96E-11
               3        0.000      0.37082872313775E+00        10.091
               4        0.000      0.54281205268456E+01       147.707
               5        0.000      0.50180681036974E+02      1365.486
 P
               1        2.000     -0.19854276084075E+00        -5.403               3.88E-11
               2        0.000      0.17303455321757E+00         4.709
               3        0.000      0.20264846286165E+01        55.143
 D
               1        0.000      0.12321250634418E+01        33.528
 F
               1        0.000      0.40060208332446E+01       109.009


 Partially Occupied:
               1 P                -0.19854276084075E+00
  
 HOMO :        2 S                -0.50994760171307E+00
 LUMO :        2 P                 0.17303455321757E+00
  


 Orbital Energies, all Irreps
 ========================================

 Irrep        no.  (spin)   Occup              E (au)                E (eV)
 ---------------------------------------------------------------------------
 S             1             2.00       -0.10057606152104E+02      -273.6814
 S             2             2.00       -0.50994760171307E+00       -13.8764
 P             1             2.00       -0.19854276084075E+00        -5.4026
 P             2             0.00        0.17303455321757E+00         4.7085
 S             3             0.00        0.37082872313775E+00        10.0908
 D             1             0.00        0.12321250634418E+01        33.5278
 P             3             0.00        0.20264846286165E+01        55.1435
 F             1             0.00        0.40060208332446E+01       109.0094
 S             4             0.00        0.54281205268456E+01       147.7067
 S             5             0.00        0.50180681036974E+02      1365.4858


 All Electron Calculation, thus no Orbital Energies of the Core Orbitals are calculated



 =======================================
 M U L L I K E N   P O P U L A T I O N S
 =======================================
  
 The survey below gives for each atom:
 a) the total charge (Z minus electrons)
 b) the net spin polarization (nr of electrons spin-A minus spin-B)
 c) for each spin the atomic electron valence density (integrated) per L-value.

 Atom              Charge    Spin density          S         P         D         F
 ----              ------    ------------       ------    ------    ------    ------
 1 C              -0.0000                       4.0000    2.0000    0.0000    0.0000

 Populations of individual BAS functions
 ----------------------------------------
 1 C            0.4834  1.5186  0.9350  1.1213 -0.0582  0.1723  0.1723  0.1723  0.3913  0.3913
                0.3913  0.1031  0.1031  0.1031  0.0000  0.0000  0.0000  0.0000  0.0000  0.0000
                0.0000  0.0000  0.0000  0.0000  0.0000  0.0000  0.0000  0.0000  0.0000  0.0000

 Gross Charges per Atom (Z minus electrons)
 ==========================================
            -0.0000
 Net Total: -0.00000000



 =======================================================================
 Electrostatic potential at the Nuclei due to electrons and other nuclei
 =======================================================================
  
         Atom                  Potential
         ----                  ---------
     1)   C                  14.66972860
 
 
 ========================
 No memory problems found
 ========================
 
 Maximum number of active allocate calls:         447
 
 *******************************************************************************

                             A D F   E X I T
 NORMAL TERMINATION



 =================
 Timing Statistics
 =================
  
 Total Used :                     CPU=        0.48      System=        0.03     Elapsed=        0.52

 Calls  Section                     ( Mean, Percentage )
 ---------------------------------------------------------------------------------------------------
     3  ><      ................      0.00    0.00             0.00    3.33             0.00    0.15
     1  INIT    ................      0.01    1.24             0.02   60.00             0.03    5.03
     1  GEOMET  ................      0.00    1.03             0.00   10.00             0.01    1.61
     1  INPUTA  ................      0.00    0.41             0.00    0.00             0.00    0.29
     1  MAINSY  ................      0.00    0.83             0.00    6.67             0.01    1.17
     1  SYMFIT  ................      0.00    0.00             0.00    0.00             0.00    0.15
     1  CORORT  ................      0.00    0.21             0.00    0.00             0.00    0.05
     1  SYMORB  ................      0.00    0.00             0.00    0.00             0.00    0.13
     1  CLSMAT  ................      0.00    1.03             0.00    3.33             0.01    1.01
     1  ORTHON  ................      0.00    0.21             0.00    0.00             0.00    0.28
     1  GENPT   ................      0.01    3.10             0.00    0.00             0.01    2.85
     1  PTBAS   ................      0.00    0.41             0.00    3.33             0.00    0.67
    13  FOCKY   ................      0.03   76.45             0.00    3.33             0.03   71.63
    13  FOCKTR  ................      0.00    2.69             0.00    0.00             0.00    2.15
    13  SDIIS   ................      0.00    3.51             0.00    3.33             0.00    4.10
     1  COREPS  ................      0.02    4.34             0.00    0.00             0.02    4.03
     1  POPAN   ................      0.01    1.03             0.00    0.00             0.01    1.02
     1  DEBYE   ................      0.00    0.21             0.00    0.00             0.00    0.11
     1  EXIT PROCEDURE .........      0.02    3.31             0.00    6.67             0.02    3.57


 Currently Open Files (EXIT00)
 ====================

 Unit    Access Format  Status   Type       Ident (file)
 -------------------------------------------------------
   3      SEQ    FORM   TRANSP  NORMAL      LOGFILE
                                          ( logfile )


 Buffered I/O statistics
 =======================
 Memory available:                     67108864
 Number of records fitting in memory:     16131
 Input :   0.1% of                        27797  *4k bytes
 Output:  13.6% of                         1374  *4k bytes
 Records from serial files evicted:           0
                    others evicted:           0
 Hash table lookups:      71849 with          0 conflicts (  0.00%)

 ***************************************************************************************************
 (LOGFILE)
 <Apr18-2019> <22:08:07>  ADF development version  RunTime: Apr18-2019 22:08:07  Nodes: 1  Procs: 1
 <Apr18-2019> <22:08:07>  Hydrogen (TZ2P)
 <Apr18-2019> <22:08:07>  RunType   : CREATE
 <Apr18-2019> <22:08:07>  Net Charge: 0 (Nuclei minus Electrons)
 <Apr18-2019> <22:08:07>  Symmetry  : ATOM
  Coordinates
    Atom         X           Y           Z   (Angstrom)
    1.H         0.000000    0.000000    0.000000
 <Apr18-2019> <22:08:07>  >>>> CORORT
 <Apr18-2019> <22:08:07>  >>>> CLSMAT
 <Apr18-2019> <22:08:07>  >>>> ORTHON
 <Apr18-2019> <22:08:07>  >>>> GENPT
 <Apr18-2019> <22:08:07>  Block Length=  64
 <Apr18-2019> <22:08:07>  >>>> PTBAS
 <Apr18-2019> <22:08:07>  >>>> CYCLE
 <Apr18-2019> <22:08:07>              |Error|         MaxErr       Wt(A-DIIS)
 <Apr18-2019> <22:08:07>      1      0.00000000      0.00000000
 <Apr18-2019> <22:08:07>      2      0.03052616      0.02968253
 <Apr18-2019> <22:08:07>      3      0.00718306      0.00671215    100.0
 <Apr18-2019> <22:08:07>      4      0.00117509      0.00114306      0.1
 <Apr18-2019> <22:08:07>      5      0.00002753      0.00002354      0.0
 <Apr18-2019> <22:08:07>      6      0.00000151      0.00000129      0.0
 <Apr18-2019> <22:08:07>      7      0.00000000      0.00000000      0.0
 <Apr18-2019> <22:08:07>  SCF converged
 <Apr18-2019> <22:08:07>      8      0.00000000      0.00000000      0.0
 <Apr18-2019> <22:08:07>  >>>> POPAN
 <Apr18-2019> <22:08:07>  >>>> DEBYE
 <Apr18-2019> <22:08:07>  NORMAL TERMINATION
 <Apr18-2019> <22:08:07>  END
 <Apr18-2019> <22:08:07>  ADF development version  RunTime: Apr18-2019 22:08:07  Nodes: 1  Procs: 1
 <Apr18-2019> <22:08:07>  Nitrogen (TZ2P)
 <Apr18-2019> <22:08:07>  RunType   : CREATE
 <Apr18-2019> <22:08:08>  Net Charge: 0 (Nuclei minus Electrons)
 <Apr18-2019> <22:08:08>  Symmetry  : ATOM
  Coordinates
[...]
 <Apr18-2019> <22:08:08>  >>>> ORTHON
 <Apr18-2019> <22:08:08>  >>>> GENPT
 <Apr18-2019> <22:08:08>  Block Length=  72
 <Apr18-2019> <22:08:08>  >>>> PTBAS
 <Apr18-2019> <22:08:08>  >>>> CYCLE
 <Apr18-2019> <22:08:08>              |Error|         MaxErr       Wt(A-DIIS)
 <Apr18-2019> <22:08:08>      1      0.00000000      0.00000000
 <Apr18-2019> <22:08:08>      2      4.48324754      3.31969244    100.0
 <Apr18-2019> <22:08:08>      3      1.61537707      1.30410194    100.0
 <Apr18-2019> <22:08:08>      4      0.72706284      0.59053131    100.0
 <Apr18-2019> <22:08:08>      5      0.40898688      0.33263800    100.0
 <Apr18-2019> <22:08:08>      6      0.13548919      0.10594416    100.0
 <Apr18-2019> <22:08:08>      7      0.11406432      0.09088019     90.8
 <Apr18-2019> <22:08:08>      8      0.01170325      0.00926551      8.3
 <Apr18-2019> <22:08:08>      9      0.00078015      0.00061791      0.0
 <Apr18-2019> <22:08:08>     10      0.00000178      0.00000107      0.0
 <Apr18-2019> <22:08:08>     11      0.00000024      0.00000019      0.0
 <Apr18-2019> <22:08:08>     12      0.00000000      0.00000000      0.0
 <Apr18-2019> <22:08:09>  SCF converged
 <Apr18-2019> <22:08:09>     13      0.00000000      0.00000000      0.0
 <Apr18-2019> <22:08:09>  >>>> POPAN
 <Apr18-2019> <22:08:09>  >>>> DEBYE
 <Apr18-2019> <22:08:09>  NORMAL TERMINATION
 <Apr18-2019> <22:08:09>  END
 <Apr18-2019> <22:08:09>  ADF development version  RunTime: Apr18-2019 22:08:09  Nodes: 1  Procs: 12
 <Apr18-2019> <22:08:09>  *** (NO TITLE) ***
 <Apr18-2019> <22:08:09>  RunType   : GEOMETRY OPTIMIZATION
 <Apr18-2019> <22:08:09>  Net Charge: 0 (Nuclei minus Electrons)
 <Apr18-2019> <22:08:09>  Symmetry  : NOSYM
 <Apr18-2019> <22:08:09>  >>>> FRAGM
  Coordinates in Geometry Cycle 1
    Atom         X           Y           Z   (Angstrom)
    1.C         1.155897   -0.870781   -0.968561
    2.N         0.362853   -0.258178    0.126755
    3.H        -0.400297   -2.103105    0.809011
    4.H        -1.433863   -1.278461   -0.433373
    5.H        -1.361313   -0.669830    1.273400
    6.H        -0.783554    0.973724   -1.196048
    7.C        -0.132821    1.072237   -0.305683
    8.C        -0.789331   -1.135122    0.454960
    9.H         2.021098   -0.221489   -1.177307
   10.H         0.534871   -0.991288   -1.876736
   11.H         1.529663   -1.848603   -0.624740
   12.H         0.734900    1.711445   -0.534840
   13.H        -0.689171    1.525764    0.529882
 <Apr18-2019> <22:08:09>  >>>> CORORT
 <Apr18-2019> <22:08:09>  >>>> CLSMAT
 <Apr18-2019> <22:08:09>  >>>> ORTHON
 <Apr18-2019> <22:08:09>  >>>> GENPT
 <Apr18-2019> <22:08:09>  Block Length= 128
 <Apr18-2019> <22:08:10>  >>>> PTBAS
 <Apr18-2019> <22:08:10>  >>>> CYCLE
 <Apr18-2019> <22:08:11>              |Error|         MaxErr       Wt(A-DIIS)
 <Apr18-2019> <22:08:11>      1      5.07236703      0.76807091
 <Apr18-2019> <22:08:11>      2      0.95080923      0.10326879    100.0
 <Apr18-2019> <22:08:12>      3      0.50384251      0.05685691    100.0
 <Apr18-2019> <22:08:13>      4      0.80986756      0.09654818    100.0
 <Apr18-2019> <22:08:13>      5      0.14708317      0.01478433     13.9
 <Apr18-2019> <22:08:14>      6      0.07781796      0.01357315     12.7
 <Apr18-2019> <22:08:15>      7      0.01296218      0.00244314      1.5
 <Apr18-2019> <22:08:15>      8      0.00156824      0.00023711      0.0
 <Apr18-2019> <22:08:16>      9      0.00027713      0.00003061      0.0
 <Apr18-2019> <22:08:17>     10      0.00002441      0.00000358      0.0
 <Apr18-2019> <22:08:17>     11      0.00000656      0.00000077      0.0
 <Apr18-2019> <22:08:18>  SCF converged
 <Apr18-2019> <22:08:18>     12      0.00000344      0.00000042      0.0
 <Apr18-2019> <22:08:18>  >>>> TOTEN
 <Apr18-2019> <22:08:19>  >>>> POPAN
 <Apr18-2019> <22:08:19>  >>>> DEBYE
 <Apr18-2019> <22:08:19>  >>>> ENGRAD
 <Apr18-2019> <22:08:20>  current energy                               -2.47646259 Hartree
 <Apr18-2019> <22:08:20>  energy change                      -2.47646259     0.00010000    F
 <Apr18-2019> <22:08:20>  constrained gradient max            0.03109310     0.00010000    F
 <Apr18-2019> <22:08:20>  constrained gradient rms            0.01062548     0.00006667    F
 <Apr18-2019> <22:08:20>  gradient max                        0.03109310
 <Apr18-2019> <22:08:20>  gradient rms                        0.01062548
 <Apr18-2019> <22:08:20>  cart. step max                      0.03998133     0.01000000    F
 <Apr18-2019> <22:08:20>  cart. step rms                      0.01212798     0.00666667    F
  Coordinates in Geometry Cycle 2
    Atom         X           Y           Z   (Angstrom)
    1.C         1.155451   -0.867621   -0.958552
    2.N         0.357242   -0.259005    0.118258
    3.H        -0.405798   -2.102784    0.800668
    4.H        -1.458556   -1.295700   -0.406082
    5.H        -1.357734   -0.674268    1.272477
    6.H        -0.783848    1.013706   -1.195087
    7.C        -0.128026    1.066143   -0.300177
    8.C        -0.780356   -1.129597    0.457615
    9.H         2.017080   -0.225198   -1.181990
   10.H         0.568946   -1.010227   -1.890878
   11.H         1.529359   -1.845344   -0.628127
   12.H         0.728717    1.711808   -0.532837
   13.H        -0.693544    1.524401    0.521430
 <Apr18-2019> <22:08:20>  >>>> CORORT
 <Apr18-2019> <22:08:20>  >>>> CLSMAT
 <Apr18-2019> <22:08:20>  >>>> ORTHON
 <Apr18-2019> <22:08:20>  >>>> GENPT
 <Apr18-2019> <22:08:20>  Block Length= 128
 <Apr18-2019> <22:08:20>  >>>> PTBAS
 <Apr18-2019> <22:08:21>  >>>> CYCLE
 <Apr18-2019> <22:08:21>              |Error|         MaxErr       Wt(A-DIIS)
 <Apr18-2019> <22:08:21>      1      0.07831145      0.01739055
 <Apr18-2019> <22:08:22>      2      0.02528600      0.00503690    100.0
 <Apr18-2019> <22:08:23>      3      0.01054093      0.00199566    100.0
 <Apr18-2019> <22:08:24>      4      0.01953965      0.00373646    100.0
 <Apr18-2019> <22:08:24>      5      0.00283612      0.00041723      0.0
 <Apr18-2019> <22:08:25>      6      0.00027752      0.00004834      0.0
 <Apr18-2019> <22:08:26>      7      0.00007608      0.00001156      0.0
 <Apr18-2019> <22:08:26>      8      0.00001029      0.00000167      0.0
 <Apr18-2019> <22:08:27>      9      0.00000202      0.00000021      0.0
 <Apr18-2019> <22:08:27>  SCF converged
 <Apr18-2019> <22:08:28>     10      0.00000067      0.00000009      0.0
 <Apr18-2019> <22:08:28>  >>>> TOTEN
 <Apr18-2019> <22:08:29>  >>>> POPAN
 <Apr18-2019> <22:08:29>  >>>> DEBYE
 <Apr18-2019> <22:08:29>  >>>> ENGRAD
 <Apr18-2019> <22:08:30>  current energy                               -2.47804951 Hartree
 <Apr18-2019> <22:08:30>  energy change                      -0.00158693     0.00010000    F
 <Apr18-2019> <22:08:30>  constrained gradient max            0.01427190     0.00010000    F
 <Apr18-2019> <22:08:30>  constrained gradient rms            0.00494745     0.00006667    F
 <Apr18-2019> <22:08:30>  gradient max                        0.01427190
 <Apr18-2019> <22:08:30>  gradient rms                        0.00494745
 <Apr18-2019> <22:08:30>  cart. step max                      0.02354617     0.01000000    F
 <Apr18-2019> <22:08:30>  cart. step rms                      0.00853780     0.00666667    F
  Coordinates in Geometry Cycle 3
    Atom         X           Y           Z   (Angstrom)
    1.C         1.153556   -0.866284   -0.955025
    2.N         0.342769   -0.261571    0.097414
    3.H        -0.402377   -2.100257    0.795778
    4.H        -1.476481   -1.304118   -0.391410
    5.H        -1.348800   -0.673792    1.276585
    6.H        -0.784430    1.037252   -1.197857
    7.C        -0.126570    1.062332   -0.299365
    8.C        -0.776870   -1.126258    0.457017
    9.H         2.014250   -0.223780   -1.178396
   10.H         0.588001   -1.023208   -1.901894
   11.H         1.529554   -1.841465   -0.621624
   12.H         0.730059    1.709129   -0.526081
   13.H        -0.693731    1.518334    0.521578
 <Apr18-2019> <22:08:30>  >>>> CORORT
 <Apr18-2019> <22:08:30>  >>>> CLSMAT
 <Apr18-2019> <22:08:30>  >>>> ORTHON
 <Apr18-2019> <22:08:30>  >>>> GENPT
 <Apr18-2019> <22:08:30>  Block Length= 128
 <Apr18-2019> <22:08:30>  >>>> PTBAS
 <Apr18-2019> <22:08:30>  >>>> CYCLE
 <Apr18-2019> <22:08:31>              |Error|         MaxErr       Wt(A-DIIS)
 <Apr18-2019> <22:08:31>      1      0.07437777      0.01803027
 <Apr18-2019> <22:08:32>      2      0.01778489      0.00287258    100.0
 <Apr18-2019> <22:08:32>      3      0.00752788      0.00096246    100.0
 <Apr18-2019> <22:08:33>      4      0.01382459      0.00237052    100.0
 <Apr18-2019> <22:08:34>      5      0.00231980      0.00022526      0.0
 <Apr18-2019> <22:08:34>      6      0.00021381      0.00003560      0.0
 <Apr18-2019> <22:08:35>      7      0.00004067      0.00000501      0.0
 <Apr18-2019> <22:08:36>      8      0.00000506      0.00000076      0.0
 <Apr18-2019> <22:08:36>  SCF converged
 <Apr18-2019> <22:08:36>      9      0.00000074      0.00000010      0.0
 <Apr18-2019> <22:08:36>  >>>> TOTEN
 <Apr18-2019> <22:08:37>  >>>> POPAN
 <Apr18-2019> <22:08:37>  >>>> DEBYE
 <Apr18-2019> <22:08:37>  >>>> ENGRAD
 <Apr18-2019> <22:08:38>  current energy                               -2.47841305 Hartree
 <Apr18-2019> <22:08:38>  energy change                      -0.00036354     0.00010000    F
 <Apr18-2019> <22:08:38>  constrained gradient max            0.00416496     0.00010000    F
 <Apr18-2019> <22:08:38>  constrained gradient rms            0.00113079     0.00006667    F
 <Apr18-2019> <22:08:38>  gradient max                        0.00416496
 <Apr18-2019> <22:08:38>  gradient rms                        0.00113079
 <Apr18-2019> <22:08:38>  cart. step max                      0.00865699     0.01000000    T
 <Apr18-2019> <22:08:38>  cart. step rms                      0.00281404     0.00666667    T
  Coordinates in Geometry Cycle 4
    Atom         X           Y           Z   (Angstrom)
    1.C         1.152323   -0.866633   -0.956042
    2.N         0.336586   -0.262737    0.088757
    3.H        -0.399072   -2.099526    0.794205
    4.H        -1.480615   -1.304882   -0.389549
    5.H        -1.344633   -0.672991    1.279150
    6.H        -0.783987    1.042192   -1.199560
    7.C        -0.127160    1.062108   -0.300394
    8.C        -0.777596   -1.126213    0.455438
    9.H         2.012869   -0.221410   -1.176278
   10.H         0.590169   -1.027048   -1.903901
   11.H         1.530801   -1.839916   -0.617030
   12.H         0.732641    1.707988   -0.521868
   13.H        -0.693394    1.515380    0.523791
 <Apr18-2019> <22:08:38>  >>>> CORORT
 <Apr18-2019> <22:08:38>  >>>> CLSMAT
 <Apr18-2019> <22:08:38>  >>>> ORTHON
 <Apr18-2019> <22:08:39>  >>>> GENPT
 <Apr18-2019> <22:08:39>  Block Length= 128
 <Apr18-2019> <22:08:39>  >>>> PTBAS
 <Apr18-2019> <22:08:39>  >>>> CYCLE
 <Apr18-2019> <22:08:40>              |Error|         MaxErr       Wt(A-DIIS)
 <Apr18-2019> <22:08:40>      1      0.02391042      0.00563201
 <Apr18-2019> <22:08:40>      2      0.00403057      0.00049005    100.0
 <Apr18-2019> <22:08:41>      3      0.00223256      0.00031290    100.0
 <Apr18-2019> <22:08:42>      4      0.00262780      0.00032235      0.0
 <Apr18-2019> <22:08:42>      5      0.00028360      0.00002881      0.0
 <Apr18-2019> <22:08:43>      6      0.00003307      0.00000312      0.0
 <Apr18-2019> <22:08:44>      7      0.00001097      0.00000174      0.0
 <Apr18-2019> <22:08:45>      8      0.00000095      0.00000029      0.0
 <Apr18-2019> <22:08:45>  SCF converged
 <Apr18-2019> <22:08:45>      9      0.00000024      0.00000003      0.0
 <Apr18-2019> <22:08:45>  >>>> TOTEN
 <Apr18-2019> <22:08:46>  >>>> POPAN
 <Apr18-2019> <22:08:46>  >>>> DEBYE
 <Apr18-2019> <22:08:46>  >>>> ENGRAD
 <Apr18-2019> <22:08:47>  current energy                               -2.47843690 Hartree
 <Apr18-2019> <22:08:47>  energy change                      -0.00002385     0.00010000    T
 <Apr18-2019> <22:08:47>  constrained gradient max            0.00028848     0.00010000    F
 <Apr18-2019> <22:08:47>  constrained gradient rms            0.00011924     0.00006667    F
 <Apr18-2019> <22:08:47>  gradient max                        0.00028848
 <Apr18-2019> <22:08:47>  gradient rms                        0.00011924
 <Apr18-2019> <22:08:47>  cart. step max                      0.00199317     0.01000000    T
 <Apr18-2019> <22:08:47>  cart. step rms                      0.00069872     0.00666667    T
  Coordinates in Geometry Cycle 5
    Atom         X           Y           Z   (Angstrom)
    1.C         1.152285   -0.866745   -0.956431
    2.N         0.335637   -0.262966    0.087450
    3.H        -0.398946   -2.099417    0.794258
    4.H        -1.482195   -1.305719   -0.388520
    5.H        -1.344153   -0.673040    1.279647
    6.H        -0.783976    1.044185   -1.199879
    7.C        -0.127290    1.062227   -0.300632
    8.C        -0.778002   -1.126301    0.455288
    9.H         2.012694   -0.221069   -1.176260
   10.H         0.591537   -1.028417   -1.904870
   11.H         1.531541   -1.839429   -0.616384
   12.H         0.733026    1.707899   -0.521018
   13.H        -0.693227    1.515103    0.524070
 <Apr18-2019> <22:08:47>  >>>> CORORT
 <Apr18-2019> <22:08:47>  >>>> CLSMAT
 <Apr18-2019> <22:08:47>  >>>> ORTHON
 <Apr18-2019> <22:08:47>  >>>> GENPT
 <Apr18-2019> <22:08:47>  Block Length= 128
 <Apr18-2019> <22:08:47>  >>>> PTBAS
 <Apr18-2019> <22:08:48>  >>>> CYCLE
 <Apr18-2019> <22:08:49>              |Error|         MaxErr       Wt(A-DIIS)
 <Apr18-2019> <22:08:49>      1      0.00318145      0.00072040
 <Apr18-2019> <22:08:49>      2      0.00035277      0.00004923    100.0
 <Apr18-2019> <22:08:50>      3      0.00020956      0.00002968    100.0
 <Apr18-2019> <22:08:51>      4      0.00021069      0.00002895      0.0
 <Apr18-2019> <22:08:51>      5      0.00001686      0.00000173      0.0
 <Apr18-2019> <22:08:52>      6      0.00000671      0.00000079      0.0
 <Apr18-2019> <22:08:52>  SCF converged
 <Apr18-2019> <22:08:53>      7      0.00000141      0.00000015      0.0
 <Apr18-2019> <22:08:53>  >>>> TOTEN
 <Apr18-2019> <22:08:54>  >>>> POPAN
 <Apr18-2019> <22:08:54>  >>>> DEBYE
 <Apr18-2019> <22:08:54>  >>>> ENGRAD
 <Apr18-2019> <22:08:55>  current energy                               -2.47843663 Hartree
 <Apr18-2019> <22:08:55>  energy change                       0.00000028     0.00010000    T
 <Apr18-2019> <22:08:55>  constrained gradient max            0.00022201     0.00010000    F
 <Apr18-2019> <22:08:55>  constrained gradient rms            0.00008211     0.00006667    F
 <Apr18-2019> <22:08:55>  gradient max                        0.00022201
 <Apr18-2019> <22:08:55>  gradient rms                        0.00008211
 <Apr18-2019> <22:08:55>  cart. step max                      0.00115044     0.01000000    T
 <Apr18-2019> <22:08:55>  cart. step rms                      0.00037257     0.00666667    T
  Coordinates in Geometry Cycle 6
    Atom         X           Y           Z   (Angstrom)
    1.C         1.152291   -0.866915   -0.956694
    2.N         0.335249   -0.263048    0.086916
    3.H        -0.398931   -2.099435    0.794263
    4.H        -1.482916   -1.306178   -0.387987
    5.H        -1.343949   -0.673059    1.279828
    6.H        -0.783873    1.045335   -1.199988
    7.C        -0.127380    1.062432   -0.300772
    8.C        -0.778281   -1.126433    0.455195
    9.H         2.012462   -0.220854   -1.176447
   10.H         0.592176   -1.029351   -1.905197
   11.H         1.532071   -1.839193   -0.616021
   12.H         0.733223    1.707953   -0.520552
   13.H        -0.693210    1.515058    0.524176
 <Apr18-2019> <22:08:55>  >>>> CORORT
 <Apr18-2019> <22:08:55>  >>>> CLSMAT
 <Apr18-2019> <22:08:55>  >>>> ORTHON
 <Apr18-2019> <22:08:55>  >>>> GENPT
 <Apr18-2019> <22:08:55>  Block Length= 128
 <Apr18-2019> <22:08:55>  >>>> PTBAS
 <Apr18-2019> <22:08:55>  >>>> CYCLE
 <Apr18-2019> <22:08:56>              |Error|         MaxErr       Wt(A-DIIS)
 <Apr18-2019> <22:08:56>      1      0.00154252      0.00028867
 <Apr18-2019> <22:08:57>      2      0.00020306      0.00003694    100.0
 <Apr18-2019> <22:08:57>      3      0.00040968      0.00007818    100.0
 <Apr18-2019> <22:08:58>      4      0.00008971      0.00001553      0.0
 <Apr18-2019> <22:08:59>      5      0.00000815      0.00000098      0.0
 <Apr18-2019> <22:08:59>  SCF converged
 <Apr18-2019> <22:08:59>      6      0.00000241      0.00000038      0.0
 <Apr18-2019> <22:08:59>  >>>> TOTEN
 <Apr18-2019> <22:09:00>  >>>> POPAN
 <Apr18-2019> <22:09:00>  >>>> DEBYE
 <Apr18-2019> <22:09:00>  >>>> ENGRAD
 <Apr18-2019> <22:09:01>  current energy                               -2.47843642 Hartree
 <Apr18-2019> <22:09:01>  energy change                       0.00000020     0.00010000    T
 <Apr18-2019> <22:09:01>  constrained gradient max            0.00003583     0.00010000    T
 <Apr18-2019> <22:09:01>  constrained gradient rms            0.00001343     0.00006667    T
 <Apr18-2019> <22:09:01>  gradient max                        0.00003583
 <Apr18-2019> <22:09:01>  gradient rms                        0.00001343
 <Apr18-2019> <22:09:01>  cart. step max                      0.00012658     0.01000000    T
 <Apr18-2019> <22:09:01>  cart. step rms                      0.00005309     0.00666667    T
 <Apr18-2019> <22:09:01>  GEOMETRY CONVERGED
 <Apr18-2019> <22:09:01>  Calculating Energy Terms for Final Geometry
  Coordinates in Geometry Cycle 6
    Atom         X           Y           Z   (Angstrom)
    1.C         1.152291   -0.866915   -0.956694
    2.N         0.335249   -0.263048    0.086916
    3.H        -0.398931   -2.099435    0.794263
    4.H        -1.482916   -1.306178   -0.387987
    5.H        -1.343949   -0.673059    1.279828
    6.H        -0.783873    1.045335   -1.199988
    7.C        -0.127380    1.062432   -0.300772
    8.C        -0.778281   -1.126433    0.455195
    9.H         2.012462   -0.220854   -1.176447
   10.H         0.592176   -1.029351   -1.905197
   11.H         1.532071   -1.839193   -0.616021
   12.H         0.733223    1.707953   -0.520552
   13.H        -0.693210    1.515058    0.524176
 <Apr18-2019> <22:09:01>  >>>> CORORT
 <Apr18-2019> <22:09:01>  >>>> CLSMAT
 <Apr18-2019> <22:09:01>  >>>> ORTHON
 <Apr18-2019> <22:09:02>  >>>> GENPT
 <Apr18-2019> <22:09:02>  Block Length= 128
 <Apr18-2019> <22:09:02>  >>>> PTBAS
 <Apr18-2019> <22:09:02>  >>>> CYCLE
 <Apr18-2019> <22:09:03>              |Error|         MaxErr       Wt(A-DIIS)
 <Apr18-2019> <22:09:03>      1      0.00000059      0.00000015
 <Apr18-2019> <22:09:03>      2      0.00000086      0.00000022    100.0
 <Apr18-2019> <22:09:03>  SCF converged
 <Apr18-2019> <22:09:04>      3      0.00000042      0.00000011    100.0
 <Apr18-2019> <22:09:05>  >>>> TOTEN
 <Apr18-2019> <22:09:06>  >>>> POPAN
 <Apr18-2019> <22:09:06>  >>>> DEBYE
 <Apr18-2019> <22:09:06>  >>>> AMETS
 <Apr18-2019> <22:09:06>  >>>> POPUL
 <Apr18-2019> <22:09:06>   Bond Energy          -2.47843642 a.u.
 <Apr18-2019> <22:09:06>   Bond Energy         -67.44168658 eV
 <Apr18-2019> <22:09:06>   Bond Energy       -1555.24       kcal/mol
 <Apr18-2019> <22:09:06>  >>>> ENHESS
 <Apr18-2019> <22:09:07>  === NUCLEUS:     1
 <Apr18-2019> <22:09:22>  === NUCLEUS:     2
 <Apr18-2019> <22:09:36>  === NUCLEUS:     3
 <Apr18-2019> <22:09:51>  === NUCLEUS:     4
 <Apr18-2019> <22:10:06>  === NUCLEUS:     5
 <Apr18-2019> <22:10:20>  === NUCLEUS:     6
 <Apr18-2019> <22:10:33>  === NUCLEUS:     7
 <Apr18-2019> <22:10:47>  === NUCLEUS:     8
 <Apr18-2019> <22:11:00>  === NUCLEUS:     9
 <Apr18-2019> <22:11:13>  === NUCLEUS:    10
 <Apr18-2019> <22:11:27>  === NUCLEUS:    11
 <Apr18-2019> <22:11:40>  === NUCLEUS:    12
 <Apr18-2019> <22:11:54>  === NUCLEUS:    13
 <Apr18-2019> <22:12:07>  >>>> CALC_HESS_PMAT
 <Apr18-2019> <22:12:09>  >>>> CALC_HESS_WMAT
 <Apr18-2019> <22:12:10>  NORMAL TERMINATION
 <Apr18-2019> <22:12:10>  END
