

 Parallel Execution: Process Information
 ==============================================================================
 Rank   Node Name                              NodeID   MyNodeRank  NodeMaster
    0   BAZIS-cn023                               0          0          0
    1   BAZIS-cn023                               0          1         -1
    2   BAZIS-cn023                               0          2         -1
    3   BAZIS-cn023                               0          3         -1
    4   BAZIS-cn023                               0          4         -1
    5   BAZIS-cn023                               0          5         -1
    6   BAZIS-cn023                               0          6         -1
    7   BAZIS-cn023                               0          7         -1
    8   BAZIS-cn023                               0          8         -1
    9   BAZIS-cn023                               0          9         -1
   10   BAZIS-cn023                               0         10         -1
   11   BAZIS-cn023                               0         11         -1
 ==============================================================================


May use up to 30771MB of RAM as shared memory on node 0


XC
    GGA BP86
END

SCF
    iterations 250
END

EPRINT
    SFO Eig Ovl
END

ZLMFIT
    Quality normal
END

BECKEGRID
    Quality good
End

SYMMETRY nosym
CHARGE -1

ATOMS
1.Cl       -4.925760    3.099436   -0.044824 f=ClBr
2.Br       -3.717238    0.865333    0.205929 f=ClBr
3.Br       -6.132384    5.334149   -0.298307 f=Br
END

Fragments
ClBr /home/tcst25/advanced_comp_chemistry/exercise2/halogen/BrClBr/frag1_ClBr.t21
Br /home/tcst25/advanced_comp_chemistry/exercise2/halogen/BrClBr/frag2_Br.t21
End
end input

 *******************************************************************************
 *                                                                             *
 *  -------------------------------------                                      *
 *   Amsterdam Density Functional  (ADF)         2017                          *
 *  -------------------------------------                                      *
 *                                               r58813 2017-04-12             *
 *                                                                             *
 *                                                                             *
 *                              =================                              *
 *                              |               |                              *
 *                              |     A D F     |                              *
 *                              |               |                              *
 *                              =================                              *
 *                                                                             *
 *                                                                             *
 *   Online information and documentation:  https://www.scm.com/support/       *
 *   E-mail:  support@scm.com   info@scm.com                                   *
 *                                                                             *
 *   Scientific publications using ADF results must be properly referenced     *
 *   See the User Manuals (or the web site) for recommended citations          *
 *   The terms and conditions of the End User License Agreement apply to       *
 *   the use of ADF, https://www.scm.com/license-terms/                        *
 *                                                                             *
 **********************  x86_64_linux_intel / intelmpi  ************************
 
 Licensed to: VU/FEW (+ SARA) / ALGEMEEN / Amsterdam / THE NETHERLANDS
 SCM User ID: u7668
  
 ADF 2017  RunTime: May09-2019 17:11:56  Nodes: 1  Procs: 12

 Temporary files are created in /local/datastore0/tcst25/189768/kid_0.QvwWrA


Communication costs MPI_COMM_WORLD:      3.818 usec per message,   0.0186 usec per 8-byte item
Communication costs for intra-node:      3.841 usec per message,   0.0179 usec per 8-byte item

 *** (NO TITLE) ***



 ===========================
 A T T A C H E D   F I L E S
 ===========================
  



 ===============================
 M O D E L   P A R A M E T E R S
 ===============================
  
 DENSITY FUNCTIONAL POTENTIAL (scf)
    LDA:                               VWN                                      
    Gradient Corrections:              Becke88 Perdew86                        == Not Default ==

 SPIN  (restricted / unrestr.)
    Molecule:                          Restricted                               
    Fragments:                         Restricted                               

 OTHER ASPECTS
    Relativistic Corrections:          ---                                      

    Nuclear Charge Density Model:      Point Charge Nuclei                      
    Core Treatment:                    Frozen Orbital(s)                        

    Hyperfine or Zeeman Interaction:   ---                                      


 Fragment File(s)
 ----------------
 ClBr:
         file : /home/tcst25/advanced_comp_chemistry/exercise2/halogen/BrClBr/frag1_ClBr.t21
         jobid: ADF 2017  RunTime: May09-2019 16:32:14  Nodes: 1  Procs: 12
         title: *** (NO TITLE) ***
 Br:
         file : /home/tcst25/advanced_comp_chemistry/exercise2/halogen/BrClBr/frag2_Br.t21
         jobid: ADF 2017  RunTime: May09-2019 16:32:14  Nodes: 1  Procs: 12
         title: *** (NO TITLE) ***



                                        ************************************
                                        *  R U N   T Y P E : SINGLE POINT  *
                                        ************************************
  



 ===============
 G E O M E T R Y  ***  Planar Molecule  ***
 ===============
  

 ATOMS
 =====                            X Y Z                    CHARGE
                                (Angstrom)             Nucl     +Core       At.Mass
                       --------------------------    ----------------       -------
    1  Cl             -4.9258    3.0994   -0.0448     17.00     17.00       34.9689
    2  Br             -3.7172    0.8653    0.2059     35.00     35.00       78.9183
    3  Br             -6.1324    5.3341   -0.2983     35.00     35.00       78.9183


 FRAGMENTS
 =========                                     Atoms in this Fragment     Cart. coord.s (Angstrom)
                                               -------------------------------------------------------
    1  ClBr                                              1  Cl          -4.9258    3.0994   -0.0448
                                                         2  Br          -3.7172    0.8653    0.2059
    2  Br                                                3  Br          -6.1324    5.3341   -0.2983


 Interatomic Distance Matrix (Angstrom)
 --------------------------------------

   1)     0.000
   2)     2.552   0.000
   3)     2.552   5.105   0.000

 Min. Distance =    2.5523
 Max. Distance =    5.1047



 =====================================
 S Y M M E T R Y ,   E L E C T R O N S
 =====================================
  
 Symmetry: NOSYM

 Irreducible Representations, including subspecies
 -------------------------------------------------
 A


 Configuration of Valence Electrons
 ==================================
 ( determined in the SCF procedure )

 Total:   88

 Net Charge: -1 (Nuclei minus Electrons)

 Aufbau principle for MO occupations will be applied through SCF cycle no.     125
 Thereafter, the program will assign electrons to MOs that are spatially
 similar to the occupied MOs in a "reference" cycle ("KeepOrbitals").
 The reference cycle is always the PREVIOUS cycle: it will evolve with
 the SCF procedure.
1
 ***************************************************************************************************



                                      ****************************************
                                      *  B U I L D : (Fragments, Functions)  *
                                      ****************************************
  

 The individual fragments are copies of the corresponding 'Master' fragments defined on the fragment files.
 However, they may have been rotated (and translated) with respect to the Master. The local coordinate axes
 of each fragment (which define for instance the spatial orientation in the current molecule of a fragment
 P:x orbital) are not necessarily those of the molecule.
 The local frame (if different from the molecular one) is printed to enable an interpretation of the expan-
 sion of an MO in Fragment Orbitals.



                                             **************************
                                             *  Fragment Type : ClBr  *
                                             **************************
  

 Fragment no.    1   (in the list of all fragments)
 -----------------
 The local coordinate frame is identical to the molecular frame.

 Check Atomic Coordinates:

                  Master (on file)          After Computed Tranformation               As specified on Input
           ----------------------------     ----------------------------     ---------------------------------
     1)    -4.92576   3.09944  -0.04482     -4.92576   3.09944  -0.04482       1  -4.92576   3.09944  -0.04482
     2)    -3.71724   0.86533   0.20593     -3.71724   0.86533   0.20593       2  -3.71724   0.86533   0.20593



                                              ************************
                                              *  Fragment Type : Br  *
                                              ************************
  

 Fragment no.    2   (in the list of all fragments)
 -----------------
 The local coordinate frame is identical to the molecular frame.

 Check Atomic Coordinates:

                  Master (on file)          After Computed Tranformation               As specified on Input
           ----------------------------     ----------------------------     ---------------------------------
     1)    -6.13238   5.33415  -0.29831     -6.13238   5.33415  -0.29831       3  -6.13238   5.33415  -0.29831



 =======
 S F O s  ***  (Symmetrized Fragment Orbitals)  ***
 =======
  
 SFOs are linear combinations of (valence) Fragment Orbitals (FOs), such that the SFOs transform as the
 irreducible representations of the (molecular) symmetry group. Each SFO is therefore characterized by
 an irrep of the molecule and by a few (or only one) generating FOs.
 The SFOs constitute a symmetry-adapted basis for the Fock matrix. The MO eigenvector coefficients in
 this basis provide a direct interpretation of the MOs in terms of Frontier Orbital Theory.

 The SFOs are combined with auxiliary Core Functions (CFs) to ensure orthogonalization on the (frozen)
 Core Orbitals (COs). The Core-orthogonalized SFOs (CSFOs) constitute the true Fock basis.

 The FOs, and hence also the (C)SFOs are combinations of the elementary basis functions (BAS). The basis
 functions that participate in the description of the SFOs depend on the irrep. The indices of the
 involved functions are printed below for each irrep.
 (The complete list of primitive basis functions is printed in another section)

 Total nr. of (C)SFOs (summation over all irreps) :   146

 NOTE: a (C)SFO that is defined as a combination of more than one FO is usually NOT normalized.



                                       === A ===
 Nr. of SFOs :  146
 Cartesian basis functions that participate in this irrep (total number =   164) :
      1     2     3     4    11    12    13     5     8    14
     17    20     6     9    15    18    21     7    10    16
     19    22    23    24    25    26    27    28    29    30
     31    32    33    34    35    36    37    38    39    40
     41    48    49    74    75    76    42    45    50    53
     77    80    83    43    46    51    54    78    81    84
     44    47    52    55    79    82    85    56    62    68
     86    57    63    69    87    58    64    70    88    59
     65    71    89    60    66    72    90    61    67    73
     91    92    93    94    95    96    97    98    99   100
    101   102   103   104   111   112   137   138   139   105
    108   113   116   140   143   146   106   109   114   117
    141   144   147   107   110   115   118   142   145   148
    119   125   131   149   120   126   132   150   121   127
    133   151   122   128   134   152   123   129   135   153
    124   130   136   154   155   156   157   158   159   160
    161   162   163   164

    SFO  (index         Fragment          Generating    Expansion in Fragment Orbitals
  indx  incl.CFs)   Occup   Orb.Energy   FragmentType  Coeff.   Orbital     on Fragment
 --------------------------------------------------------------------------------------
     1       1      2.000    -481.052 au  ClBr          1.00      1 A               1
                        (  -13090.099 eV)
     2       2      2.000    -100.766 au  ClBr          1.00      2 A               1
                        (   -2741.971 eV)
     3       3      2.000     -61.807 au  ClBr          1.00      3 A               1
                        (   -1681.862 eV)
     4       4      2.000     -55.742 au  ClBr          1.00      4 A               1
                        (   -1516.819 eV)
     5       5      2.000     -55.735 au  ClBr          1.00      5 A               1
                        (   -1516.618 eV)
     6       6      2.000     -55.735 au  ClBr          1.00      6 A               1
                        (   -1516.618 eV)
     7       7      2.000      -9.216 au  ClBr          1.00      7 A               1
                        (    -250.777 eV)
     8       8      2.000      -8.427 au  ClBr          1.00      8 A               1
                        (    -229.311 eV)
     9       9      2.000      -7.049 au  ClBr          1.00      9 A               1
                        (    -191.812 eV)
    10      10      2.000      -7.033 au  ClBr          1.00     10 A               1
                        (    -191.367 eV)
    11      11      2.000      -7.033 au  ClBr          1.00     11 A               1
                        (    -191.367 eV)
    12      12      2.000      -6.341 au  ClBr          1.00     12 A               1
                        (    -172.537 eV)
    13      13      2.000      -6.320 au  ClBr          1.00     13 A               1
                        (    -171.965 eV)
    14      14      2.000      -6.320 au  ClBr          1.00     14 A               1
                        (    -171.965 eV)
    15      15      2.000      -2.544 au  ClBr          1.00     15 A               1
                        (     -69.236 eV)
    16      16      2.000      -2.539 au  ClBr          1.00     16 A               1
                        (     -69.098 eV)
    17      17      2.000      -2.539 au  ClBr          1.00     17 A               1
                        (     -69.098 eV)
    18      18      2.000      -2.524 au  ClBr          1.00     18 A               1
                        (     -68.682 eV)
    19      19      2.000      -2.524 au  ClBr          1.00     19 A               1
                        (     -68.682 eV)
    20      20      2.000      -0.767 au  ClBr          1.00     20 A               1
                        (     -20.873 eV)
    21      21      2.000      -0.710 au  ClBr          1.00     21 A               1
                        (     -19.323 eV)
    22      22      2.000      -0.383 au  ClBr          1.00     22 A               1
                        (     -10.428 eV)
    23      23      2.000      -0.316 au  ClBr          1.00     23 A               1
                        (      -8.606 eV)
    24      24      2.000      -0.316 au  ClBr          1.00     24 A               1
                        (      -8.606 eV)
    25      25      2.000      -0.276 au  ClBr          1.00     25 A               1
                        (      -7.508 eV)
    26      26      2.000      -0.276 au  ClBr          1.00     26 A               1
                        (      -7.508 eV)
    27      27       --        -0.239 au  ClBr          1.00     27 A               1
                        (      -6.494 eV)
    28      28       --         0.109 au  ClBr          1.00     28 A               1
                        (       2.958 eV)
    29      29       --         0.136 au  ClBr          1.00     29 A               1
                        (       3.706 eV)
    30      30       --         0.136 au  ClBr          1.00     30 A               1
                        (       3.706 eV)
    31      31       --         0.181 au  ClBr          1.00     31 A               1
                        (       4.930 eV)
    32      32       --         0.196 au  ClBr          1.00     32 A               1
                        (       5.336 eV)
    33      33       --         0.207 au  ClBr          1.00     33 A               1
                        (       5.627 eV)
    34      34       --         0.207 au  ClBr          1.00     34 A               1
                        (       5.627 eV)
    35      35       --         0.257 au  ClBr          1.00     35 A               1
                        (       7.001 eV)
    36      36       --         0.257 au  ClBr          1.00     36 A               1
                        (       7.001 eV)
    37      37       --         0.268 au  ClBr          1.00     37 A               1
                        (       7.292 eV)
    38      38       --         0.268 au  ClBr          1.00     38 A               1
                        (       7.292 eV)
    39      39       --         0.325 au  ClBr          1.00     39 A               1
                        (       8.843 eV)
    40      40       --         0.363 au  ClBr          1.00     40 A               1
                        (       9.889 eV)
    41      41       --         0.403 au  ClBr          1.00     41 A               1
                        (      10.954 eV)
    42      42       --         0.403 au  ClBr          1.00     42 A               1
                        (      10.954 eV)
    43      43       --         0.454 au  ClBr          1.00     43 A               1
                        (      12.354 eV)
    44      44       --         0.454 au  ClBr          1.00     44 A               1
                        (      12.354 eV)
    45      45       --         0.706 au  ClBr          1.00     45 A               1
                        (      19.198 eV)
    46      46       --         0.823 au  ClBr          1.00     46 A               1
                        (      22.382 eV)
    47      47       --         0.823 au  ClBr          1.00     47 A               1
                        (      22.382 eV)
    48      48       --         0.850 au  ClBr          1.00     48 A               1
                        (      23.117 eV)
    49      49       --         0.850 au  ClBr          1.00     49 A               1
                        (      23.117 eV)
    50      50       --         0.881 au  ClBr          1.00     50 A               1
                        (      23.965 eV)
    51      51       --         0.881 au  ClBr          1.00     51 A               1
                        (      23.965 eV)
    52      52       --         0.934 au  ClBr          1.00     52 A               1
                        (      25.426 eV)
    53      53       --         1.183 au  ClBr          1.00     53 A               1
                        (      32.197 eV)
    54      54       --         1.183 au  ClBr          1.00     54 A               1
                        (      32.197 eV)
    55      55       --         1.209 au  ClBr          1.00     55 A               1
                        (      32.896 eV)
    56      56       --         1.209 au  ClBr          1.00     56 A               1
                        (      32.896 eV)
    57      57       --         1.244 au  ClBr          1.00     57 A               1
                        (      33.849 eV)
    58      58       --         1.259 au  ClBr          1.00     58 A               1
                        (      34.272 eV)
    59      59       --         1.259 au  ClBr          1.00     59 A               1
                        (      34.272 eV)
    60      60       --         1.386 au  ClBr          1.00     60 A               1
                        (      37.712 eV)
    61      61       --         1.395 au  ClBr          1.00     61 A               1
                        (      37.946 eV)
    62      62       --         1.395 au  ClBr          1.00     62 A               1
                        (      37.946 eV)
    63      63       --         2.097 au  ClBr          1.00     63 A               1
                        (      57.068 eV)
    64      64       --         2.158 au  ClBr          1.00     64 A               1
                        (      58.729 eV)
    65      65       --         2.158 au  ClBr          1.00     65 A               1
                        (      58.729 eV)
    66      66       --         2.262 au  ClBr          1.00     66 A               1
                        (      61.559 eV)
    67      67       --         2.680 au  ClBr          1.00     67 A               1
                        (      72.937 eV)
    68      68       --         2.680 au  ClBr          1.00     68 A               1
                        (      72.937 eV)
    69      69       --         2.697 au  ClBr          1.00     69 A               1
                        (      73.402 eV)
    70      70       --         2.749 au  ClBr          1.00     70 A               1
                        (      74.811 eV)
    71      71       --         2.749 au  ClBr          1.00     71 A               1
                        (      74.812 eV)
    72      72       --         3.130 au  ClBr          1.00     72 A               1
                        (      85.169 eV)
    73      73       --         8.851 au  ClBr          1.00     73 A               1
                        (     240.853 eV)
    74      74       --         8.851 au  ClBr          1.00     74 A               1
                        (     240.855 eV)
    75      75       --         8.965 au  ClBr          1.00     75 A               1
                        (     243.940 eV)
    76      76       --        13.027 au  ClBr          1.00     76 A               1
                        (     354.479 eV)
    77      77       --        14.692 au  ClBr          1.00     77 A               1
                        (     399.796 eV)
    78      78       --        18.921 au  ClBr          1.00     78 A               1
                        (     514.877 eV)
    79      79       --        18.921 au  ClBr          1.00     79 A               1
                        (     514.878 eV)
    80      80       --        19.227 au  ClBr          1.00     80 A               1
                        (     523.200 eV)
    81      81       --        20.599 au  ClBr          1.00     81 A               1
                        (     560.521 eV)
    82      82       --        20.599 au  ClBr          1.00     82 A               1
                        (     560.521 eV)
    83      83       --        20.693 au  ClBr          1.00     83 A               1
                        (     563.073 eV)
    84      84       --        20.693 au  ClBr          1.00     84 A               1
                        (     563.073 eV)
    85      85       --        21.089 au  ClBr          1.00     85 A               1
                        (     573.874 eV)
    86      86       --       100.916 au  ClBr          1.00     86 A               1
                        (    2746.072 eV)
    87      87       --       100.916 au  ClBr          1.00     87 A               1
                        (    2746.072 eV)
    88      88       --       101.210 au  ClBr          1.00     88 A               1
                        (    2754.054 eV)
    89      89       --       216.019 au  ClBr          1.00     89 A               1
                        (    5878.183 eV)
    90      90       --       748.066 au  ClBr          1.00     90 A               1
                        (   20355.923 eV)
    91      91      2.000    -480.688 au  Br            1.00      1 A               2
                        (  -13080.195 eV)
    92      92      2.000     -61.445 au  Br            1.00      2 A               2
                        (   -1672.008 eV)
    93      93      2.000     -55.375 au  Br            1.00      3 A               2
                        (   -1506.824 eV)
    94      94      2.000     -55.375 au  Br            1.00      4 A               2
                        (   -1506.824 eV)
    95      95      2.000     -55.375 au  Br            1.00      5 A               2
                        (   -1506.824 eV)
    96      96      2.000      -8.066 au  Br            1.00      6 A               2
                        (    -219.480 eV)
    97      97      2.000      -5.966 au  Br            1.00      7 A               2
                        (    -162.330 eV)
    98      98      2.000      -5.966 au  Br            1.00      8 A               2
                        (    -162.330 eV)
    99      99      2.000      -5.966 au  Br            1.00      9 A               2
                        (    -162.330 eV)
   100     100      2.000      -2.173 au  Br            1.00     10 A               2
                        (     -59.143 eV)
   101     101      2.000      -2.173 au  Br            1.00     11 A               2
                        (     -59.143 eV)
   102     102      2.000      -2.173 au  Br            1.00     12 A               2
                        (     -59.143 eV)
   103     103      2.000      -2.173 au  Br            1.00     13 A               2
                        (     -59.143 eV)
   104     104      2.000      -2.173 au  Br            1.00     14 A               2
                        (     -59.143 eV)
   105     105      2.000      -0.386 au  Br            1.00     15 A               2
                        (     -10.500 eV)
   106     106      2.000       0.016 au  Br            1.00     16 A               2
                        (       0.447 eV)
   107     107      2.000       0.016 au  Br            1.00     17 A               2
                        (       0.447 eV)
   108     108      2.000       0.016 au  Br            1.00     18 A               2
                        (       0.447 eV)
   109     109       --         0.352 au  Br            1.00     19 A               2
                        (       9.589 eV)
   110     110       --         0.352 au  Br            1.00     20 A               2
                        (       9.589 eV)
   111     111       --         0.352 au  Br            1.00     21 A               2
                        (       9.589 eV)
   112     112       --         0.501 au  Br            1.00     22 A               2
                        (      13.634 eV)
   113     113       --         0.551 au  Br            1.00     23 A               2
                        (      15.005 eV)
   114     114       --         0.551 au  Br            1.00     24 A               2
                        (      15.005 eV)
   115     115       --         0.551 au  Br            1.00     25 A               2
                        (      15.005 eV)
   116     116       --         0.551 au  Br            1.00     26 A               2
                        (      15.005 eV)
   117     117       --         0.551 au  Br            1.00     27 A               2
                        (      15.005 eV)
   118     118       --         1.141 au  Br            1.00     28 A               2
                        (      31.038 eV)
   119     119       --         1.141 au  Br            1.00     29 A               2
                        (      31.038 eV)
   120     120       --         1.141 au  Br            1.00     30 A               2
                        (      31.038 eV)
   121     121       --         1.141 au  Br            1.00     31 A               2
                        (      31.038 eV)
   122     122       --         1.141 au  Br            1.00     32 A               2
                        (      31.038 eV)
   123     123       --         1.141 au  Br            1.00     33 A               2
                        (      31.038 eV)
   124     124       --         1.141 au  Br            1.00     34 A               2
                        (      31.038 eV)
   125     125       --         1.505 au  Br            1.00     35 A               2
                        (      40.949 eV)
   126     126       --         1.505 au  Br            1.00     36 A               2
                        (      40.949 eV)
   127     127       --         1.505 au  Br            1.00     37 A               2
                        (      40.949 eV)
   128     128       --         2.776 au  Br            1.00     38 A               2
                        (      75.551 eV)
   129     129       --         3.002 au  Br            1.00     39 A               2
                        (      81.690 eV)
   130     130       --         3.002 au  Br            1.00     40 A               2
                        (      81.690 eV)
   131     131       --         3.002 au  Br            1.00     41 A               2
                        (      81.690 eV)
   132     132       --         3.002 au  Br            1.00     42 A               2
                        (      81.690 eV)
   133     133       --         3.002 au  Br            1.00     43 A               2
                        (      81.690 eV)
   134     134       --         9.163 au  Br            1.00     44 A               2
                        (     249.341 eV)
   135     135       --         9.163 au  Br            1.00     45 A               2
                        (     249.341 eV)
   136     136       --         9.163 au  Br            1.00     46 A               2
                        (     249.341 eV)
   137     137       --        14.623 au  Br            1.00     47 A               2
                        (     397.911 eV)
   138     138       --        20.941 au  Br            1.00     48 A               2
                        (     569.821 eV)
   139     139       --        20.941 au  Br            1.00     49 A               2
                        (     569.821 eV)
   140     140       --        20.941 au  Br            1.00     50 A               2
                        (     569.821 eV)
   141     141       --        20.941 au  Br            1.00     51 A               2
                        (     569.821 eV)
   142     142       --        20.941 au  Br            1.00     52 A               2
                        (     569.821 eV)
   143     143       --       101.209 au  Br            1.00     53 A               2
                        (    2754.029 eV)
   144     144       --       101.209 au  Br            1.00     54 A               2
                        (    2754.029 eV)
   145     145       --       101.209 au  Br            1.00     55 A               2
                        (    2754.029 eV)
   146     146       --       746.807 au  Br            1.00     56 A               2
                        (   20321.657 eV)



 ================================
 (Slater-type)  F U N C T I O N S  ***  (Basis and Fit)  ***
 ================================
  

 Atom Type    1  (Cl)
 ==============

 Valence Basis Sets:  14
 -----------------------
   1 S   20.300000
   1 S   15.250000
   2 S    6.250000
   2 S    4.450000
   2 P    8.850000
   2 P    5.050000
   3 S    3.450000
   3 S    2.300000
   3 S    1.600000
   3 P    3.350000
   3 P    2.050000
   3 P    1.200000
   3 D    2.000000
   4 F    2.000000

 Atom Type    2  (Br)
 ==============

 Valence Basis Sets:  20
 -----------------------
   1 S   41.300000
   1 S   32.800000
   2 S   13.900000
   2 P   19.450000
   2 P   13.100000
   3 S    7.200000
   3 S    4.950000
   3 P    7.900000
   3 P    5.050000
   3 D   10.900000
   3 D    6.050000
   3 D    3.500000
   4 S    4.500000
   4 S    2.800000
   4 S    1.800000
   4 P    3.250000
   4 P    1.950000
   4 P    1.200000
   4 D    1.800000
   4 F    1.800000

 Atom Type    3  (Br)
 ==============

 Valence Basis Sets:  20
 -----------------------
   1 S   41.300000
   1 S   32.800000
   2 S   13.900000
   2 P   19.450000
   2 P   13.100000
   3 S    7.200000
   3 S    4.950000
   3 P    7.900000
   3 P    5.050000
   3 D   10.900000
   3 D    6.050000
   3 D    3.500000
   4 S    4.500000
   4 S    2.800000
   4 S    1.800000
   4 P    3.250000
   4 P    1.950000
   4 P    1.200000
   4 D    1.800000
   4 F    1.800000


 BAS: List of all Elementary Cartesian Basis Functions
 =====================================================

 The numbering in the list below (to the right of the function characteristics) is referred
 to in print-outs of MO eigenvectors and Mulliken populations in the BAS representation
 (as contrasted to the SFO representation).

 Notes:
 1. The functions are characterized by a polynomial prefactor (powers of x,y,z and r) and
    an exponential decay factor alpha.
 2. Since the basis sets are specific for an atom TYPE, the individual functions occur on
    all atoms of that type.
 3. The word 'Core' in the left margin signals that it is a Core Function (CF) : not a
    degree of freedom in the valence set, but only used to ensure orthogonalization of
    the other valence basis functions on the frozen Core Orbitals.


 (power of) X  Y  Z  R     Alpha  on Atom
            ==========     =====     ==========

 Cl                                   1
                                  ---------------------------------------------------------------------------
            0  0  0  0    20.300      1
            0  0  0  0    15.250      2
            0  0  0  1     6.250      3
            0  0  0  1     4.450      4
            1  0  0  0     8.850      5
            0  1  0  0     8.850      6
            0  0  1  0     8.850      7
            1  0  0  0     5.050      8
            0  1  0  0     5.050      9
            0  0  1  0     5.050     10
            0  0  0  2     3.450     11
            0  0  0  2     2.300     12
            0  0  0  2     1.600     13
            1  0  0  1     3.350     14
            0  1  0  1     3.350     15
            0  0  1  1     3.350     16
            1  0  0  1     2.050     17
            0  1  0  1     2.050     18
            0  0  1  1     2.050     19
            1  0  0  1     1.200     20
            0  1  0  1     1.200     21
            0  0  1  1     1.200     22
            2  0  0  0     2.000     23
            1  1  0  0     2.000     24
            1  0  1  0     2.000     25
            0  2  0  0     2.000     26
            0  1  1  0     2.000     27
            0  0  2  0     2.000     28
            3  0  0  0     2.000     29
            2  1  0  0     2.000     30
            2  0  1  0     2.000     31
            1  2  0  0     2.000     32
            1  1  1  0     2.000     33
            1  0  2  0     2.000     34
            0  3  0  0     2.000     35
            0  2  1  0     2.000     36
            0  1  2  0     2.000     37
            0  0  3  0     2.000     38

 Br                                   2
                                  ---------------------------------------------------------------------------
            0  0  0  0    41.300     39
            0  0  0  0    32.800     40
            0  0  0  1    13.900     41
            1  0  0  0    19.450     42
            0  1  0  0    19.450     43
            0  0  1  0    19.450     44
            1  0  0  0    13.100     45
            0  1  0  0    13.100     46
            0  0  1  0    13.100     47
            0  0  0  2     7.200     48
            0  0  0  2     4.950     49
            1  0  0  1     7.900     50
            0  1  0  1     7.900     51
            0  0  1  1     7.900     52
            1  0  0  1     5.050     53
            0  1  0  1     5.050     54
            0  0  1  1     5.050     55
            2  0  0  0    10.900     56
            1  1  0  0    10.900     57
            1  0  1  0    10.900     58
            0  2  0  0    10.900     59
            0  1  1  0    10.900     60
            0  0  2  0    10.900     61
            2  0  0  0     6.050     62
            1  1  0  0     6.050     63
            1  0  1  0     6.050     64
            0  2  0  0     6.050     65
            0  1  1  0     6.050     66
            0  0  2  0     6.050     67
            2  0  0  0     3.500     68
            1  1  0  0     3.500     69
            1  0  1  0     3.500     70
            0  2  0  0     3.500     71
            0  1  1  0     3.500     72
            0  0  2  0     3.500     73
            0  0  0  3     4.500     74
            0  0  0  3     2.800     75
            0  0  0  3     1.800     76
            1  0  0  2     3.250     77
            0  1  0  2     3.250     78
            0  0  1  2     3.250     79
            1  0  0  2     1.950     80
            0  1  0  2     1.950     81
            0  0  1  2     1.950     82
            1  0  0  2     1.200     83
            0  1  0  2     1.200     84
            0  0  1  2     1.200     85
            2  0  0  1     1.800     86
            1  1  0  1     1.800     87
            1  0  1  1     1.800     88
            0  2  0  1     1.800     89
            0  1  1  1     1.800     90
            0  0  2  1     1.800     91
            3  0  0  0     1.800     92
            2  1  0  0     1.800     93
            2  0  1  0     1.800     94
            1  2  0  0     1.800     95
            1  1  1  0     1.800     96
            1  0  2  0     1.800     97
            0  3  0  0     1.800     98
            0  2  1  0     1.800     99
            0  1  2  0     1.800    100
            0  0  3  0     1.800    101

 Br                                   3
                                  ---------------------------------------------------------------------------
            0  0  0  0    41.300    102
            0  0  0  0    32.800    103
            0  0  0  1    13.900    104
            1  0  0  0    19.450    105
            0  1  0  0    19.450    106
            0  0  1  0    19.450    107
            1  0  0  0    13.100    108
            0  1  0  0    13.100    109
            0  0  1  0    13.100    110
            0  0  0  2     7.200    111
            0  0  0  2     4.950    112
            1  0  0  1     7.900    113
            0  1  0  1     7.900    114
            0  0  1  1     7.900    115
            1  0  0  1     5.050    116
            0  1  0  1     5.050    117
            0  0  1  1     5.050    118
            2  0  0  0    10.900    119
            1  1  0  0    10.900    120
            1  0  1  0    10.900    121
            0  2  0  0    10.900    122
            0  1  1  0    10.900    123
            0  0  2  0    10.900    124
            2  0  0  0     6.050    125
            1  1  0  0     6.050    126
            1  0  1  0     6.050    127
            0  2  0  0     6.050    128
            0  1  1  0     6.050    129
            0  0  2  0     6.050    130
            2  0  0  0     3.500    131
            1  1  0  0     3.500    132
            1  0  1  0     3.500    133
            0  2  0  0     3.500    134
            0  1  1  0     3.500    135
            0  0  2  0     3.500    136
            0  0  0  3     4.500    137
            0  0  0  3     2.800    138
            0  0  0  3     1.800    139
            1  0  0  2     3.250    140
            0  1  0  2     3.250    141
            0  0  1  2     3.250    142
            1  0  0  2     1.950    143
            0  1  0  2     1.950    144
            0  0  1  2     1.950    145
            1  0  0  2     1.200    146
            0  1  0  2     1.200    147
            0  0  1  2     1.200    148
            2  0  0  1     1.800    149
            1  1  0  1     1.800    150
            1  0  1  1     1.800    151
            0  2  0  1     1.800    152
            0  1  1  1     1.800    153
            0  0  2  1     1.800    154
            3  0  0  0     1.800    155
            2  1  0  0     1.800    156
            2  0  1  0     1.800    157
            1  2  0  0     1.800    158
            1  1  1  0     1.800    159
            1  0  2  0     1.800    160
            0  3  0  0     1.800    161
            0  2  1  0     1.800    162
            0  1  2  0     1.800    163
            0  0  3  0     1.800    164

 Total number of charge fitting functions (nprimf)       446
 Total number of Cartesian basis functions (naos)        164
 Total number of Cartesian core functions  (ncos)          0

1
 ***************************************************************************************************



                                              ***********************
                                              *  T E C H N I C A L  *
                                              ***********************
  



 =============================================================
 P A R A L L E L I Z A T I O N  and  V E C T O R I Z A T I O N
 =============================================================
  
 Nr of parallel processes:                               12
 Maximum vector length in NumInt loops:                 128

 IO buffersize (Mb):                                     64.000000



 =====================
 S C F   U P D A T E S
 =====================
  
 Max. nr. of cycles:                               250
 Convergence criterion:                              0.0000010000
   secondary criterion:                              0.0010000000

 Mix parameter (when DIIS does not apply):           0.2000000000
 Mixed ADIIS+DIIS will be used
    Max number of expansion vectors:                10
    Pure ADIIS when Max([F,P]) is above              0.1000000000
    Pure DIIS when Max([F,P]) is below               0.0010000000
 Automatic ElectronSmearing (in case of problematic SCF convergence) disabled



 =================
 P R E C I S I O N  ***  (General: NumInt, NeglectFunctionTails, ...)  ***
 =================
  

 NumInt:           Target precision:                 6.0000000000
 -------           Initial precision:                6.0000000000
                   Min. precision (optimization):    6.0000000000

 Neglect Functions:          Basis functions:        0.1000000000E-07
 ------------------          Fit functions:          0.1000000000E-07



 ===========================
 L I N E A R   S C A L I N G
 ===========================
  

 Cut-off radii density fit:                        0.1000000000E-09
 Overlap cut-off criterion AO matrix elements:     0.1000000000E-07
 Cut-offs for Coulomb potential and fitted density:0.1000000000E-09
 Cut-off criterion for Coulomb multipole terms:    0.1000000000E-09
 Progressive Convergence parameter:                 0.000000000    
1
 ***************************************************************************************************



                                            ***************************
                                            *  C O M P U T A T I O N  *
                                            ***************************
  

 Number of elements of the density matrix on this node (used, total):      2016     13530



 ===========================================
 Numerical Integration : Fuzzy Cells (Becke)
 ===========================================
  
 Becke grid quality: GOOD           
  
 Lebedev angular grid order:             min:  11 max:  31
 Nr. of radial points:                   min:  80 max:  90

 Total nr. of points:      56054
 Nr. of blocks:              438
 Block length:               128
 Nr. of dummy points:         10


 Test of Precision of the Numerical Integration Grid
 ===================================================

 Integral of the Total Core Density:                   0.00000000000000



 ========================
 Density Fitting (zlmFit)
 ========================
  
 ZlmFit Fit Quality: NORMAL         
  
 Max L-expansion:                        min:   7 max:   7
 Nr. of radial interpolation points:     min:  60 max:  72



 =====
 S C F  ***  ScaSCF  ***
 =====
  
 Initial density matrix is calculated as sum of fragments

 CYCLE    1
 SCF Error: norm([F,P])=      1.273559155787, max([F,P])=      0.801487885287
 orbitals (Q,E):
 ---------------
 A :35...54          ( 2.00    -0.5663)  ( 2.00    -0.4143)  ( 2.00    -0.2561)  ( 2.00    -0.2074)
                     ( 2.00    -0.2074)  ( 2.00    -0.1218)  ( 2.00    -0.1218)  ( 2.00    -0.1138)
                     ( 2.00    -0.0032)  ( 2.00    -0.0032)  ( 0.00     0.0397)  ( 0.00     0.1976)
                     ( 0.00     0.2367)  ( 0.00     0.2367)  ( 0.00     0.2817)  ( 0.00     0.3127)
                     ( 0.00     0.3127)  ( 0.00     0.3431)  ( 0.00     0.3449)  ( 0.00     0.3449)

 CYCLE    2
  SDIIS (wt  0.000):  0.3352  0.6648
 A-DIIS (wt  1.000):  0.8955  0.1045
  DIIS coefficients:  0.8955  0.1045
 SCF Error: norm([F,P])=      0.890778706532, max([F,P])=      0.401738187244
 orbitals (Q,E):
 ---------------
 A :35...45          ( 2.00    -0.5490)  ( 2.00    -0.4566)  ( 2.00    -0.2272)  ( 2.00    -0.1692)
                     ( 2.00    -0.1692)  ( 2.00    -0.1108)  ( 2.00    -0.1108)  ( 2.00    -0.1069)
                     ( 2.00    -0.0398)  ( 2.00    -0.0397)  ( 0.00     0.0162)

 CYCLE    3
  SDIIS (wt  0.000):  0.0836 -1.0116  1.9280
 A-DIIS (wt  1.000):  0.8391  0.0000  0.1609
  DIIS coefficients:  0.8391  0.0000  0.1609
 SCF Error: norm([F,P])=      0.560894722886, max([F,P])=      0.294956290577
 orbitals (Q,E):
 ---------------
 A :35...45          ( 2.00    -0.5502)  ( 2.00    -0.4613)  ( 2.00    -0.2253)  ( 2.00    -0.1631)
                     ( 2.00    -0.1631)  ( 2.00    -0.1144)  ( 2.00    -0.1144)  ( 2.00    -0.1069)
                     ( 2.00    -0.0443)  ( 2.00    -0.0443)  ( 0.00     0.0117)

 CYCLE    4
  SDIIS (wt  0.000): -1.0205 -0.9795  3.0000
 A-DIIS (wt  1.000):  0.0000  0.0000  1.0000
  DIIS coefficients:  0.0000  0.0000  1.0000
 SCF Error: norm([F,P])=      0.532940971547, max([F,P])=      0.292413264621
 orbitals (Q,E):
 ---------------
 A :35...45          ( 2.00    -0.5435)  ( 2.00    -0.3221)  ( 2.00    -0.2909)  ( 2.00    -0.2783)
                     ( 2.00    -0.2783)  ( 2.00    -0.0954)  ( 2.00    -0.0954)  ( 2.00    -0.0843)
                     ( 2.00     0.0807)  ( 2.00     0.0807)  ( 0.00     0.1177)

 CYCLE    5
  SDIIS (wt  0.000): -0.6123 -1.5069  3.0000  0.1192
 A-DIIS (wt  1.000):  0.0000  0.0000  0.7719  0.2281
  DIIS coefficients:  0.0000  0.0000  0.7719  0.2281
 SCF Error: norm([F,P])=      1.481911454125, max([F,P])=      0.433282560182
 orbitals (Q,E):
 ---------------
 A :35...45          ( 2.00    -0.5169)  ( 2.00    -0.4587)  ( 2.00    -0.2010)  ( 2.00    -0.1500)
                     ( 2.00    -0.1500)  ( 2.00    -0.0932)  ( 2.00    -0.0842)  ( 2.00    -0.0842)
                     ( 2.00    -0.0425)  ( 2.00    -0.0425)  ( 0.00     0.0299)

 CYCLE    6
  SDIIS (wt  0.000): -0.1324 -2.0000  2.6763 -0.0036  0.4597
 A-DIIS (wt  1.000):  0.0000  0.0000  0.4371  0.0000  0.5629
  DIIS coefficients:  0.0000  0.0000  0.4371  0.0000  0.5629
 SCF Error: norm([F,P])=      0.469562691600, max([F,P])=      0.178282341863
 orbitals (Q,E):
 ---------------
 A :35...45          ( 2.00    -0.5096)  ( 2.00    -0.4882)  ( 2.00    -0.2242)  ( 2.00    -0.1619)
                     ( 2.00    -0.1619)  ( 2.00    -0.0905)  ( 2.00    -0.0890)  ( 2.00    -0.0890)
                     ( 2.00    -0.0731)  ( 2.00    -0.0731)  ( 0.00    -0.0059)

 CYCLE    7
  SDIIS (wt  0.000): -0.2595  0.4977  0.0379 -0.0584  0.3077  0.4746
 A-DIIS (wt  1.000):  0.0000  0.0000  0.1628  0.0000  0.1892  0.6479
  DIIS coefficients:  0.0000  0.0000  0.1628  0.0000  0.1892  0.6479
 SCF Error: norm([F,P])=      0.279066027117, max([F,P])=      0.115563632393
 orbitals (Q,E):
 ---------------
 A :35...45          ( 2.00    -0.5233)  ( 2.00    -0.4850)  ( 2.00    -0.1929)  ( 2.00    -0.1226)
                     ( 2.00    -0.1226)  ( 2.00    -0.0995)  ( 2.00    -0.0987)  ( 2.00    -0.0987)
                     ( 2.00    -0.0610)  ( 2.00    -0.0610)  ( 0.00     0.0164)

 CYCLE    8
  SDIIS (wt  0.000): -0.0695 -0.1112  0.2714 -0.0083  0.0929  0.4994  0.3253
 A-DIIS (wt  1.000):  0.0000  0.0000  0.0000  0.0000  0.0000  0.5930  0.4070
  DIIS coefficients:  0.0000  0.0000  0.0000  0.0000  0.0000  0.5930  0.4070
 SCF Error: norm([F,P])=      0.355032989689, max([F,P])=      0.141248251733
 orbitals (Q,E):
 ---------------
 A :35...45          ( 2.00    -0.5177)  ( 2.00    -0.4934)  ( 2.00    -0.2074)  ( 2.00    -0.1353)
                     ( 2.00    -0.1353)  ( 2.00    -0.0966)  ( 2.00    -0.0958)  ( 2.00    -0.0958)
                     ( 2.00    -0.0742)  ( 2.00    -0.0742)  ( 0.00     0.0021)

 CYCLE    9
  SDIIS (wt  0.847): -0.0046 -0.3274  0.3835 -0.0074  0.0310  0.2327  0.1090  0.5832
 A-DIIS (wt  0.153):  0.0000  0.0000  0.0000  0.0000  0.0000  0.0000  0.0000  1.0000
  DIIS coefficients: -0.0039 -0.2774  0.3249 -0.0063  0.0263  0.1972  0.0924  0.6468
 SCF Error: norm([F,P])=      0.056361253197, max([F,P])=      0.016118286430
 orbitals (Q,E):
 ---------------
 A :35...45          ( 2.00    -0.5151)  ( 2.00    -0.4924)  ( 2.00    -0.2106)  ( 2.00    -0.1401)
                     ( 2.00    -0.1401)  ( 2.00    -0.0948)  ( 2.00    -0.0937)  ( 2.00    -0.0937)
                     ( 2.00    -0.0745)  ( 2.00    -0.0745)  ( 0.00     0.0002)

 CYCLE   10
  SDIIS (wt  0.933): -0.0004 -0.0297  0.0345 -0.0009  0.0012  0.0227  0.0178  0.3110  0.6438
 A-DIIS (wt  0.067):  0.0000  0.0000  0.0000  0.0000  0.0000  0.0000  0.0000  0.2429  0.7571
  DIIS coefficients: -0.0004 -0.0277  0.0322 -0.0008  0.0011  0.0212  0.0166  0.3065  0.6513
 SCF Error: norm([F,P])=      0.024832308273, max([F,P])=      0.007584100527
 orbitals (Q,E):
 ---------------
 A :35...45          ( 2.00    -0.5160)  ( 2.00    -0.4928)  ( 2.00    -0.2093)  ( 2.00    -0.1382)
                     ( 2.00    -0.1382)  ( 2.00    -0.0954)  ( 2.00    -0.0944)  ( 2.00    -0.0944)
                     ( 2.00    -0.0745)  ( 2.00    -0.0745)  ( 0.00     0.0009)

 CYCLE   11
  SDIIS (wt  0.996): -0.0007 -0.0045  0.0071  0.0001 -0.0018  0.0011  0.0022  0.0762  0.2147  0.7057
 A-DIIS (wt  0.004):  0.0000  0.0000  0.0000  0.0000  0.0000  0.0000  0.0000  0.0000  0.0000  1.0000
  DIIS coefficients: -0.0007 -0.0045  0.0070  0.0001 -0.0018  0.0011  0.0021  0.0759  0.2139  0.7068
 SCF Error: norm([F,P])=      0.002623914992, max([F,P])=      0.001364988979
 orbitals (Q,E):
 ---------------
 A :35...45          ( 2.00    -0.5159)  ( 2.00    -0.4927)  ( 2.00    -0.2094)  ( 2.00    -0.1383)
                     ( 2.00    -0.1383)  ( 2.00    -0.0953)  ( 2.00    -0.0943)  ( 2.00    -0.0943)
                     ( 2.00    -0.0744)  ( 2.00    -0.0744)  ( 0.00     0.0008)

 CYCLE   12
  SDIIS (wt  1.000): -0.0040  0.0050  0.0001 -0.0010  0.0000  0.0001  0.0301  0.0806  0.3653  0.5238
  DIIS coefficients: -0.0040  0.0050  0.0001 -0.0010  0.0000  0.0001  0.0301  0.0806  0.3653  0.5238
 SCF Error: norm([F,P])=      0.000474114289, max([F,P])=      0.000111258470
 orbitals (Q,E):
 ---------------
 A :35...45          ( 2.00    -0.5159)  ( 2.00    -0.4928)  ( 2.00    -0.2094)  ( 2.00    -0.1384)
                     ( 2.00    -0.1384)  ( 2.00    -0.0954)  ( 2.00    -0.0943)  ( 2.00    -0.0943)
                     ( 2.00    -0.0745)  ( 2.00    -0.0744)  ( 0.00     0.0008)

 CYCLE   13
  SDIIS (wt  1.000):  0.0002  0.0000 -0.0003 -0.0006 -0.0002  0.0005  0.0060  0.0350  0.0733  0.8860
  DIIS coefficients:  0.0002  0.0000 -0.0003 -0.0006 -0.0002  0.0005  0.0060  0.0350  0.0733  0.8860
 SCF Error: norm([F,P])=      0.000154862418, max([F,P])=      0.000081122254
 orbitals (Q,E):
 ---------------
 A :35...45          ( 2.00    -0.5159)  ( 2.00    -0.4928)  ( 2.00    -0.2094)  ( 2.00    -0.1384)
                     ( 2.00    -0.1384)  ( 2.00    -0.0954)  ( 2.00    -0.0944)  ( 2.00    -0.0944)
                     ( 2.00    -0.0745)  ( 2.00    -0.0745)  ( 0.00     0.0008)

 CYCLE   14
  SDIIS (wt  1.000):  0.0000 -0.0000 -0.0001  0.0000 -0.0013 -0.0022 -0.0168 -0.0059  0.2850  0.7413
  DIIS coefficients:  0.0000 -0.0000 -0.0001  0.0000 -0.0013 -0.0022 -0.0168 -0.0059  0.2850  0.7413
 SCF Error: norm([F,P])=      0.000029965618, max([F,P])=      0.000010113203
 orbitals (Q,E):
 ---------------
 A :35...45          ( 2.00    -0.5159)  ( 2.00    -0.4928)  ( 2.00    -0.2094)  ( 2.00    -0.1384)
                     ( 2.00    -0.1384)  ( 2.00    -0.0954)  ( 2.00    -0.0944)  ( 2.00    -0.0944)
                     ( 2.00    -0.0745)  ( 2.00    -0.0745)  ( 0.00     0.0008)

 CYCLE   15
  SDIIS (wt  1.000): -0.0000 -0.0000  0.0000 -0.0002 -0.0002 -0.0036  0.0013  0.0595  0.2505  0.6927
  DIIS coefficients: -0.0000 -0.0000  0.0000 -0.0002 -0.0002 -0.0036  0.0013  0.0595  0.2505  0.6927
 SCF Error: norm([F,P])=      0.000004253233, max([F,P])=      0.000001249169
 orbitals (Q,E):
 ---------------
 A :35...45          ( 2.00    -0.5159)  ( 2.00    -0.4928)  ( 2.00    -0.2094)  ( 2.00    -0.1384)
                     ( 2.00    -0.1384)  ( 2.00    -0.0954)  ( 2.00    -0.0944)  ( 2.00    -0.0943)
                     ( 2.00    -0.0745)  ( 2.00    -0.0745)  ( 0.00     0.0008)

 CYCLE   16
  SDIIS (wt  1.000): -0.0000  0.0000 -0.0001 -0.0001 -0.0013  0.0006  0.0200  0.0909  0.3466  0.5433
  DIIS coefficients: -0.0000  0.0000 -0.0001 -0.0001 -0.0013  0.0006  0.0200  0.0909  0.3466  0.5433
 SCF Error: norm([F,P])=      0.000001202539, max([F,P])=      0.000000298988
 orbitals (Q,E):
 ---------------
 A :35...45          ( 2.00    -0.5159)  ( 2.00    -0.4928)  ( 2.00    -0.2094)  ( 2.00    -0.1384)
                     ( 2.00    -0.1384)  ( 2.00    -0.0954)  ( 2.00    -0.0944)  ( 2.00    -0.0943)
                     ( 2.00    -0.0745)  ( 2.00    -0.0745)  ( 0.00     0.0008)

 SCF CONVERGED

 CYCLE   17
1
 ***************************************************************************************************



                                                *******************
                                                *  R E S U L T S  *
                                                *******************
  
 *** Setting up for NEW gradients in Focky
 *** Using FIT density in Focky

 Orbital Energies, per Irrep and Spin:
 ======================================
                        Occup              E (au)              E (eV)       Diff (eV) with prev. cycle
                        -----      --------------------        ------       --------------------------
 A
              35        2.000     -0.51592073548280E+00       -14.039               4.00E-08
              36        2.000     -0.49276896379214E+00       -13.409               7.68E-08
              37        2.000     -0.20944594912882E+00        -5.699               2.31E-07
              38        2.000     -0.13836178540793E+00        -3.765               3.02E-07
              39        2.000     -0.13836093306962E+00        -3.765               3.02E-07
              40        2.000     -0.95368404865891E-01        -2.595               3.37E-08
              41        2.000     -0.94351665314877E-01        -2.567               2.68E-08
              42        2.000     -0.94349928666183E-01        -2.567               2.69E-08
              43        2.000     -0.74452890458260E-01        -2.026               1.11E-07
              44        2.000     -0.74451640306122E-01        -2.026               1.11E-07
              45        0.000      0.80240007782833E-03         0.022
              46        0.000      0.26215273474474E+00         7.134
              47        0.000      0.26291933404157E+00         7.154
              48        0.000      0.28954032458749E+00         7.879
              49        0.000      0.28954277065287E+00         7.879
              50        0.000      0.30274881457470E+00         8.238
              51        0.000      0.30275214565377E+00         8.238
              52        0.000      0.36424248700347E+00         9.912
              53        0.000      0.38121487793578E+00        10.373
              54        0.000      0.38121723614772E+00        10.373
  
 HOMO :       44 A                -0.74451640306122E-01
 LUMO :       45 A                 0.80240007782833E-03
  


 All Electron Calculation, thus no Orbital Energies of the Core Orbitals are calculated


 Fit test: (difference of exact and fit density, squared integrated, result summed over spins)
         Sum-of-Fragments:                             0.00161408108546
         Orthogonalized Fragments:                     0.00161841498711
         SCF:                                          0.00162006326139



 ==========================
 Electron Density at Nuclei
 ==========================
  
 The electron density is calculated at points on a small sphere around the center of a nucleus.
 The printed electron density is the average electron density on these points.
 The radius of the sphere is the printed approximate finite nuclear radius.

         Atom        Nuclear Radius (Angstrom)             Electron Density (a.u.)
         ----        -------------------------             -----------------------
     1)   Cl                0.0000426624                             3211.67630
     2)   Br                0.0000536685                            29313.37234
     3)   Br                0.0000536685                            29313.37242



 =======================================
 M U L L I K E N   P O P U L A T I O N S
 =======================================
  
 The survey below gives for each atom:
 a) the total charge (Z minus electrons)
 b) the net spin polarization (nr of electrons spin-A minus spin-B)
 c) for each spin the atomic electron valence density (integrated) per L-value.

 Atom              Charge    Spin density          S         P         D         F
 ----              ------    ------------       ------    ------    ------    ------
 1 Cl             -0.0606                       5.9539   11.0392    0.0594    0.0081
 2 Br             -0.4697                       7.9969   17.4286   10.0357    0.0084
 3 Br             -0.4697                       7.9969   17.4286   10.0357    0.0084

 Populations of individual BAS functions
 ----------------------------------------
 1 Cl           0.5054  1.4529  1.7141  0.2475  0.7274  0.7200  0.7303  1.2715  1.2813  1.2677
                0.6344  1.0832  0.3164  0.2722  0.1838  0.3071  1.0765  0.8812  1.1535  0.4290
                0.2303  0.5075  0.0002  0.0236  0.0024  0.0299  0.0081 -0.0048 -0.0028 -0.0029
                0.0003  0.0095  0.0010 -0.0040  0.0129  0.0096 -0.0068 -0.0086
 2 Br           0.3611  1.5681  2.0732  0.7131  0.7127  0.7132  1.2648  1.2655  1.2646  1.4377
                0.5945  1.1376  1.1311  1.1402  0.8912  0.8973  0.8887  0.2677  0.4014  0.4016
                0.2677  0.4015  0.2677  0.7771  1.1647  1.1656  0.7753  1.1650  0.7778  0.2882
                0.4339  0.4327  0.2917  0.4335  0.2869  0.2722  1.2120  0.4780  0.5896  0.4913
                0.6285  0.9680  0.8446  1.0169  0.3060  0.2259  0.3377  0.0005  0.0116  0.0023
                0.0203  0.0073 -0.0062 -0.0039 -0.0024  0.0003  0.0111  0.0010 -0.0044  0.0143
                0.0093 -0.0087 -0.0083
 3 Br           0.3611  1.5681  2.0732  0.7131  0.7127  0.7132  1.2648  1.2655  1.2646  1.4377
                0.5945  1.1376  1.1311  1.1402  0.8912  0.8973  0.8887  0.2677  0.4014  0.4016
                0.2677  0.4015  0.2677  0.7771  1.1647  1.1656  0.7753  1.1650  0.7778  0.2882
                0.4339  0.4327  0.2917  0.4335  0.2869  0.2722  1.2121  0.4780  0.5898  0.4912
                0.6285  0.9682  0.8444  1.0168  0.3061  0.2258  0.3377  0.0004  0.0116  0.0023
                0.0203  0.0073 -0.0062 -0.0039 -0.0024  0.0003  0.0111  0.0010 -0.0044  0.0143
                0.0093 -0.0087 -0.0083

 Gross Charges per Atom (Z minus electrons)
 ==========================================
            -0.0606   -0.4697   -0.4697
 Net Total: -1.00000000


 Atom-Atom Population Matrix (off-diagonal elements not doubled)
 ===============================================================

     1 :    17.0795
     2 :    -0.0094   35.4612
     3 :    -0.0094    0.0179   35.4612


 Frag-Frag Population Matrix (off-diagonal elements not doubled)
 ===============================================================

     1 :    52.5218
     2 :     0.0085   35.4612



 =================================================
 H I R S H F E L D   C H A R G E   A N A L Y S I S
 =================================================
  
 For each fragment: the (numerical) integral of rho(scf) * rho(fragment)/rho(sum-of-fragments)
 (nuclear charges are included, electrons are counted negative)

 The fragments and their ordering are defined in the early G E O M E T R Y output section.
 If you use single-atom fragments, this usually implies that all atoms of the same
 chemical type are grouped together. This may not be the order in which you listed them
 in the input file!

    1  ClBr                     -0.4510
    2  Br                       -0.5490

 Sum of these charges (accuracy NumInt/Tails) =          -1.00000619



 =============================
 V O R O N O I   C H A R G E S
 =============================
  
 For each atom: the (numerical) integral of the total electronic charge density in its Voronoi cell,
 i.e. the region of space that is closer to that atom than to any other atom.
 (cf. Wigner-Seitz cells in crystals)

 Within the Voronoi cell the subintegrals over the atomic sphere and the remaining part are evaluated
 separately to give the numbers of electrons (negative charge) in these regions.
 The net total charge in the cell (including the nuclear charge) is also given.

 Values are provided for
    a) the Initial (sum-of-fragments) density
    b) the Orthogonalized-Fragments density
    c) the SCF density
    d) the Voronoi Deformation Density (VDD): the difference SCF-Initial for the complete atomic cell
 ---------------------------------------------------------------------------------------------------
 Total NetCharge:              -1.000                     -1.000                     -1.000    0.000
 (accuracy NumInt/Tails)

 Remark: the 'NetTotal' Voronoi charges often do not match the Mulliken and/or Hirshfeld charges very
 well. This is caused by the fact that chemically different atoms are not treated in accordance with
 their relative sizes. (Voronoi cells are defined by boundary planes halfway between the atoms.)
 However, the CHANGES in charge, comparing 'Initial' to 'SCF' for instance, do give a fair indication
 of the flow of charge caused by the relaxation from sum-of-fragments to self-consistency.

 Warning: the absolute accuracy of the VDD charges obtained using the Fuzzy Cells (Becke) integration
 scheme is much poorer than the one obtained with an 'equivalent' Voronoi integration grid. 



 =================================================================
 M U L T I P O L E   D E R I V E D   C H A R G E   A N A L Y S I S
 =================================================================

 This charge analysis uses the atomic multipoles (obtained from the fitted density) up to some level X,
 and reconstructs these multipoles exactly (up to level X) by distributing charges over all atoms.
 This is achieved by using Lagrange multipliers and a weight function to keep the multipoles local.

 Dummy atoms can be included (by setting INCDUM in MDC-block to 1) to obtain a fractional charge.
 This is generally useful and necessary only for small symmetrical molecules, when there are not
 enough degrees of freedom to reconstruct the multipoles.

 Since the atomic multipoles are reconstructed up to level X,
 the molecular multipoles are represented also up to level X.
 The recommended level is to reconstruct up to quadrupole : -> MDC-q charges.

 See: M. Swart, P.Th. van Duijnen, J.G. Snijders, J.Comput.Chem., (2001), p. 79-88.

 ------------------------------------------------------------- 
 Atomic electronic multipole moments from SCF equations (a.u.)
 ------------------------------------------------------------- 

   atom        charge        dip-x     dip-y     dip-z      quad-xx   quad-xy   quad-xz   quad-yy   quad-yz   quad-zz
 --------------------------------------------------------------------------------------------------------------------
    1 Cl    -0.338158     0.000009  0.000011 -0.000019    -0.189868 -0.479019  0.054202  0.751246 -0.100370 -0.561377
    2 Br    -0.330949    -0.209785  0.388006 -0.043754    -0.324547 -0.821967  0.092257  1.287392 -0.170579 -0.962846
    3 Br    -0.330894     0.209627 -0.388099  0.044013    -0.326923 -0.820840  0.093261  1.289080 -0.172801 -0.962157

 --------------------------------------- 
 Multipole derived atomic charges (a.u.)
 --------------------------------------- 

 The MDC-m charges are just the Monopole terms in the multipole expansion, while for the MDC-d charges
 also the Dipoles are reconstructed. The usually preferred charges are the MDC-q charges.
 These reconstruct the Monopoles, Dipoles and Quadrupoles (both atomic AND molecular).

        Atom    Level:     MDC-m        MDC-d        MDC-q
 ---------------------------------------------------------
     1     Cl          -0.338158    -0.246220    -0.087417
     2     Br          -0.330949    -0.376914    -0.455615
     3     Br          -0.330894    -0.376866    -0.456968

 ------------------------------------------------ 
 Average absolute deviations in atomic multipoles
 ------------------------------------------------ 

 Stated here are the average differences between the atomic multipoles
 and the reconstructed atomic multipoles (from the distributed charges).
 If these values are not zero, this means there are not enough degrees of freedom,
 to be able to reconstruct the atomic multipoles. (This usually happens only
 for small and/or highly symmetric molecules). If this is the case, one could add
 dummy atoms as extra point charges (and setting INCDUM in MDC-block to 1).

 Level:                                 MDC-d        MDC-q
 ---------------------------------------------------------
 Charge   (a.u.)                       0.0000       0.0000
 Dipole   (Debye)                      0.0000       0.0038
 Quad.    (a.u.)                       0.4717       0.2196

 --------------------------------------- 
 Represented molecular multipole moments
 --------------------------------------- 

 Given here are the Molecular multipole moments from the atomic charges, and from the Fit Density.
 Note that the atomic charges represent the latter, NOT the ones from the Exact density.

            Q (a.u.)             Dipole moment (Debye)                                          Quadrupole moment (a.u.)
                                 x         y         z              xx        xy        xz        yy        yz        zz
------------------------------------------------------------------------------------------------------------------------
MDC-m        -1.0000       23.6561  -14.8876    0.2196        -66.9348   91.3359   -2.2853   -0.9946    2.7561   67.9294
MDC-d        -1.0000       23.6557  -14.8878    0.2202        -66.5803   92.6645   -2.4386   -2.3862    3.0357   68.9666
MDC-q        -1.0000       23.6631  -14.9031    0.2229        -65.9925   95.0692   -2.7130   -4.8292    3.5251   70.8218
 
Fit.Dens.    -1.0000       23.6557  -14.8878    0.2202        -66.3682   94.5269   -2.6491   -3.2244    3.4250   69.5926



 =============
 Dipole Moment  ***  (Debye)  ***
 =============
  
 Vector   :        23.65571398    -14.88780791      0.22018617
 Magnitude:        27.95153145

 This molecular dipole moment is calculated with analytic integration
 ************************************************************************************
 Since the molecule is NOT NEUTRAL, the dipole moment depends on the choice of origin
 ************************************************************************************



 =========================================
 Quadrupole Moment (Buckingham convention)  ***  (a.u.)  ***
 =========================================
  
      quad-xx        quad-xy        quad-xz        quad-yy        quad-yz        quad-zz
    -66.36584083    93.47539167    -2.53053246    -3.23414860     3.20560027    69.59998943

 This molecular quadrupole moment is calculated with analytic integration
1



                                             *************************
                                             *  SFO MO coefficients  *
                                             *************************
  


                                       === A ===
 MOs expanded in CFs+SFOs
 ========================

 The SFOs have been characterized in an earlier part of output.
 To deduce the bonding / antibonding nature of SFO combinations in an MO, consider the products
 of the coefficients AND THE OVERLAP between the SFOs (may be NEGATIVE). The SFO overlap matrix
 is printed later, in the SFO Populations section.

 (The CF coefficients are not printed)

 MOs :      1        2        3        4        5        6        7        8        9       10
 occup:   2.00     2.00     2.00     2.00     2.00     2.00     2.00     2.00     2.00     2.00
 CF+SFO
     1   0.0024   1.0000   0.0000   0.0000   0.0000  -0.0000  -0.0000  -0.0000  -0.0000  -0.0000
     2  -0.0000  -0.0000   1.0000  -0.0000  -0.0000  -0.0000   0.0000  -0.0000  -0.0000   0.0000
     3  -0.0000  -0.0000   0.0000   0.0008   1.0000   0.0000  -0.0003  -0.0000  -0.0000  -0.0000
     4  -0.0000  -0.0000   0.0000  -0.0000  -0.0003   0.0001  -1.0000   0.0000   0.0000  -0.0001
     5   0.0000   0.0000  -0.0000   0.0000   0.0000   0.0000  -0.0001  -0.0000  -0.0000   0.9985
     6   0.0000   0.0000  -0.0000   0.0000   0.0000   0.0000  -0.0002   0.0000  -0.0000  -0.0544
     7  -0.0000  -0.0000  -0.0001  -0.0000  -0.0000  -0.0000   0.0000  -0.0000  -0.0000   0.0000
     8  -0.0000   0.0000   0.0000  -0.0000  -0.0001  -0.0000   0.0000  -0.0000  -0.0000   0.0000
     9  -0.0000  -0.0000   0.0000  -0.0000   0.0000   0.0000   0.0000  -0.0000  -0.0000   0.0000
    10   0.0000   0.0000   0.0000   0.0000  -0.0000  -0.0000  -0.0000  -0.0000  -0.0000  -0.0000
    11  -0.0000  -0.0000  -0.0000  -0.0000   0.0000   0.0000   0.0000  -0.0000   0.0000  -0.0000
    12   0.0000  -0.0000  -0.0000   0.0000   0.0000   0.0000   0.0000   0.0000   0.0000  -0.0000
    13   0.0000  -0.0000  -0.0000   0.0000   0.0000   0.0000  -0.0000   0.0000   0.0000   0.0000
    14  -0.0000   0.0000   0.0000  -0.0000  -0.0000  -0.0000   0.0000   0.0000  -0.0000   0.0000
    15  -0.0000  -0.0000   0.0000  -0.0000  -0.0000  -0.0000   0.0000  -0.0000  -0.0000  -0.0000
    16  -0.0000  -0.0000   0.0000  -0.0000  -0.0000  -0.0000   0.0000  -0.0000  -0.0000   0.0000
    17   0.0000   0.0000  -0.0000   0.0000   0.0000   0.0000  -0.0000  -0.0000   0.0000   0.0000
    18   0.0000  -0.0000  -0.0000  -0.0000   0.0000   0.0000   0.0000   0.0000   0.0000  -0.0000
    19   0.0000  -0.0000  -0.0000  -0.0000  -0.0000   0.0000   0.0000   0.0000  -0.0000  -0.0000
    20  -0.0000  -0.0000   0.0000  -0.0000   0.0000  -0.0000   0.0000  -0.0000  -0.0000   0.0000
    21  -0.0000  -0.0000   0.0000  -0.0000  -0.0000  -0.0000   0.0000  -0.0000  -0.0000   0.0000
    22   0.0000   0.0000  -0.0000   0.0000  -0.0000   0.0000  -0.0000   0.0000   0.0000  -0.0000
    23  -0.0000  -0.0000   0.0000  -0.0000   0.0000  -0.0000   0.0000   0.0000   0.0000   0.0000
    24   0.0000   0.0000  -0.0000   0.0000  -0.0000   0.0000  -0.0000   0.0000  -0.0000   0.0000
    25   0.0000   0.0000  -0.0000   0.0000   0.0000   0.0000  -0.0000  -0.0000   0.0000   0.0000
    26   0.0000   0.0000  -0.0000   0.0000   0.0000   0.0000  -0.0000  -0.0000  -0.0000   0.0000
    27  -0.0000  -0.0000   0.0000  -0.0000   0.0000  -0.0000   0.0000  -0.0000  -0.0000   0.0000
    28  -0.0000  -0.0000   0.0000  -0.0000   0.0000  -0.0000   0.0000  -0.0000  -0.0000   0.0000
    29  -0.0000  -0.0000   0.0000  -0.0000  -0.0000   0.0000   0.0000  -0.0000  -0.0000  -0.0000
    30   0.0000  -0.0000  -0.0000   0.0000   0.0000  -0.0000  -0.0000  -0.0000   0.0000  -0.0000
    31   0.0000   0.0000  -0.0000   0.0000  -0.0000   0.0000  -0.0000   0.0000   0.0000  -0.0000
    32  -0.0000  -0.0000   0.0000  -0.0000  -0.0000  -0.0000   0.0000  -0.0000  -0.0000   0.0000
    33  -0.0000  -0.0000   0.0000  -0.0000   0.0000   0.0000  -0.0000   0.0000  -0.0000   0.0000
    34   0.0000   0.0000  -0.0000   0.0000   0.0000   0.0000   0.0000   0.0000   0.0000   0.0000
    35  -0.0000  -0.0000   0.0000  -0.0000  -0.0000  -0.0000   0.0000   0.0000  -0.0000  -0.0000
    36  -0.0000  -0.0000  -0.0000  -0.0000  -0.0000   0.0000   0.0000   0.0000   0.0000  -0.0000
    37  -0.0000  -0.0000   0.0000  -0.0000  -0.0000  -0.0000   0.0000   0.0000   0.0000   0.0000
    38  -0.0000  -0.0000   0.0000  -0.0000  -0.0000  -0.0000   0.0000   0.0000  -0.0000   0.0000
    39   0.0000   0.0000  -0.0000  -0.0000   0.0000   0.0000  -0.0000   0.0000   0.0000  -0.0000
    40   0.0000   0.0000  -0.0000   0.0000  -0.0000  -0.0000  -0.0000  -0.0000  -0.0000   0.0000
    41  -0.0000  -0.0000   0.0000  -0.0000   0.0000  -0.0000   0.0000   0.0000   0.0000   0.0000
    42   0.0000   0.0000   0.0000   0.0000  -0.0000   0.0000  -0.0000   0.0000  -0.0000   0.0000
    43  -0.0000  -0.0000  -0.0000   0.0000   0.0000  -0.0000   0.0000   0.0000   0.0000  -0.0000
    44   0.0000   0.0000   0.0000  -0.0000  -0.0000   0.0000  -0.0000   0.0000  -0.0000  -0.0000
    45   0.0000  -0.0000  -0.0000   0.0000   0.0000  -0.0000   0.0000  -0.0000  -0.0000  -0.0000
    46  -0.0000  -0.0000   0.0000   0.0000  -0.0000   0.0000  -0.0000   0.0000  -0.0000  -0.0000
    47  -0.0000  -0.0000  -0.0000   0.0000   0.0000  -0.0000   0.0000   0.0000   0.0000  -0.0000
    48  -0.0000  -0.0000   0.0000   0.0000  -0.0000  -0.0000   0.0000   0.0000  -0.0000   0.0000
    49  -0.0000  -0.0000   0.0000   0.0000   0.0000  -0.0000   0.0000   0.0000   0.0000   0.0000
    50   0.0000  -0.0000  -0.0000   0.0000   0.0000  -0.0000   0.0000   0.0000   0.0000  -0.0000
    51  -0.0000   0.0000   0.0000  -0.0000  -0.0000   0.0000  -0.0000   0.0000  -0.0000  -0.0000
    52   0.0000   0.0000  -0.0000  -0.0000  -0.0000   0.0000  -0.0000   0.0000   0.0000   0.0000
    53   0.0000   0.0000  -0.0000  -0.0000   0.0000   0.0000  -0.0000   0.0000  -0.0000  -0.0000
    54  -0.0000  -0.0000   0.0000   0.0000  -0.0000  -0.0000   0.0000   0.0000   0.0000  -0.0000
    55  -0.0000  -0.0000  -0.0000   0.0000   0.0000  -0.0000   0.0000   0.0000   0.0000   0.0000
    56   0.0000   0.0000  -0.0000  -0.0000  -0.0000   0.0000  -0.0000  -0.0000  -0.0000   0.0000
    57   0.0000   0.0000  -0.0000  -0.0000  -0.0000   0.0000  -0.0000   0.0000   0.0000   0.0000
    58   0.0000   0.0000  -0.0000  -0.0000   0.0000  -0.0000   0.0000   0.0000  -0.0000  -0.0000
    59  -0.0000  -0.0000   0.0000   0.0000  -0.0000   0.0000  -0.0000  -0.0000   0.0000  -0.0000
    60   0.0000   0.0000   0.0000  -0.0000  -0.0000   0.0000   0.0000   0.0000   0.0000  -0.0000
    61  -0.0000  -0.0000   0.0000   0.0000   0.0000  -0.0000   0.0000  -0.0000   0.0000   0.0000
    62  -0.0000  -0.0000   0.0000   0.0000   0.0000  -0.0000   0.0000  -0.0000  -0.0000   0.0000
    63  -0.0000  -0.0000   0.0000  -0.0000   0.0000   0.0000   0.0000   0.0000   0.0000  -0.0000
    64   0.0000   0.0000   0.0000  -0.0000  -0.0000   0.0000  -0.0000  -0.0000  -0.0000  -0.0000
    65  -0.0000  -0.0000  -0.0000   0.0000   0.0000  -0.0000   0.0000  -0.0000   0.0000  -0.0000
    66  -0.0000  -0.0000   0.0000   0.0000   0.0000  -0.0000  -0.0000  -0.0000  -0.0000   0.0000
    67  -0.0000  -0.0000  -0.0000  -0.0000   0.0000   0.0000  -0.0000   0.0000  -0.0000  -0.0000
    68   0.0000   0.0000   0.0000   0.0000  -0.0000  -0.0000   0.0000   0.0000   0.0000  -0.0000
    69   0.0000   0.0000   0.0000   0.0000  -0.0000  -0.0000   0.0000  -0.0000   0.0000   0.0000
    70  -0.0000  -0.0000   0.0000   0.0000   0.0000  -0.0000  -0.0000  -0.0000   0.0000  -0.0000
    71   0.0000   0.0000  -0.0000  -0.0000  -0.0000   0.0000   0.0000   0.0000   0.0000  -0.0000
    72   0.0000   0.0000  -0.0000  -0.0000   0.0000   0.0000  -0.0000   0.0000   0.0000   0.0000
    73  -0.0000  -0.0000   0.0000  -0.0000   0.0000   0.0000   0.0000   0.0000   0.0000   0.0000
    74   0.0000   0.0000  -0.0000   0.0000  -0.0000  -0.0000   0.0000  -0.0000   0.0000   0.0000
    75  -0.0000  -0.0000   0.0000   0.0000   0.0000  -0.0000  -0.0000  -0.0000  -0.0000  -0.0000
    76   0.0000  -0.0000   0.0001   0.0000   0.0000  -0.0000   0.0000  -0.0000  -0.0000  -0.0000
    77  -0.0000   0.0000   0.0000   0.0000  -0.0001  -0.0000   0.0000  -0.0000  -0.0000   0.0000
    78   0.0000   0.0000   0.0000   0.0000   0.0000  -0.0000   0.0000   0.0000  -0.0000   0.0000
    79   0.0000   0.0000   0.0000   0.0000   0.0000  -0.0000   0.0000   0.0000   0.0000   0.0000
    80   0.0000  -0.0000  -0.0000   0.0000   0.0000  -0.0000   0.0000  -0.0000  -0.0000  -0.0000
    81  -0.0000  -0.0000   0.0000  -0.0000  -0.0000   0.0000   0.0000   0.0000   0.0000   0.0000
    82   0.0000   0.0000   0.0000  -0.0000  -0.0000  -0.0000   0.0000   0.0000  -0.0000   0.0000
    83   0.0000   0.0000  -0.0000  -0.0000   0.0000   0.0000  -0.0000   0.0000  -0.0000   0.0000
    84  -0.0000  -0.0000   0.0000   0.0000  -0.0000  -0.0000   0.0000   0.0000   0.0000   0.0000
    85  -0.0000   0.0000  -0.0000   0.0000   0.0000  -0.0000  -0.0000  -0.0000  -0.0000   0.0000
    86   0.0000  -0.0000  -0.0000   0.0000   0.0000  -0.0000  -0.0000  -0.0000  -0.0000   0.0000
    87  -0.0000   0.0000   0.0000  -0.0000  -0.0000   0.0000   0.0000   0.0000  -0.0000  -0.0001
    88   0.0000  -0.0000   0.0000  -0.0000   0.0000   0.0000   0.0001   0.0000   0.0000   0.0000
    89  -0.0000  -0.0000   0.0001  -0.0000   0.0000   0.0000  -0.0000   0.0000   0.0000  -0.0000
    90   0.0000   0.0001   0.0000   0.0000  -0.0000   0.0000  -0.0000   0.0000   0.0000  -0.0000
    91   1.0000  -0.0024   0.0000   0.0000  -0.0000  -0.0000   0.0000   0.0000  -0.0000   0.0000
    92   0.0000   0.0000  -0.0000  -1.0000   0.0008   0.0004  -0.0000  -0.0000   0.0000  -0.0000
    93  -0.0000   0.0000  -0.0000  -0.0000   0.0000  -0.0854  -0.0000   0.0126   0.9963  -0.0000
    94  -0.0000   0.0000  -0.0000  -0.0003   0.0000  -0.9449  -0.0001  -0.3180  -0.0770  -0.0000
    95   0.0000  -0.0000   0.0000   0.0001  -0.0000   0.3159   0.0000  -0.9480   0.0391  -0.0000
    96  -0.0000   0.0000  -0.0000   0.0001   0.0000  -0.0000  -0.0000   0.0000  -0.0000  -0.0000
    97  -0.0000  -0.0000   0.0000   0.0000   0.0000   0.0000   0.0000  -0.0000   0.0000   0.0000
    98   0.0000   0.0000  -0.0000  -0.0000  -0.0000  -0.0000  -0.0000   0.0000   0.0000  -0.0000
    99   0.0000   0.0000  -0.0000  -0.0000  -0.0000  -0.0000  -0.0000  -0.0000  -0.0000   0.0000
   100  -0.0000  -0.0000   0.0000   0.0000   0.0000   0.0000   0.0000   0.0000  -0.0000  -0.0000
   101  -0.0000  -0.0000   0.0000   0.0000   0.0000   0.0000   0.0000   0.0000  -0.0000  -0.0000
   102   0.0000   0.0000  -0.0000  -0.0000  -0.0000  -0.0000  -0.0000   0.0000  -0.0000  -0.0000
   103  -0.0000  -0.0000   0.0000   0.0000   0.0000   0.0000   0.0000   0.0000   0.0000  -0.0000
[...]
  140   -7.98028388795217E-16  7.17975407520609E-16  1.39617075970637E-16 -3.36336050899810E-16
  141   -1.68243692623619E-16 -1.34052021861573E-15 -4.49380783490238E-16 -2.50747851589960E-16
  142   -1.04150292728578E-16 -4.83293875042099E-16  5.81529702313831E-16 -5.15667070622020E-16
  143    2.75930052189915E-16  4.31223916754612E-16  1.31161100563263E-16 -2.88679029629170E-16
  144   -2.72330538944853E-16  3.51527522288728E-16  3.35481427743255E-16  3.07378257599341E-16
  145    9.82090894856120E-17 -4.86981332061936E-16  2.20403002133693E-17 -6.44044181509992E-17
  146   -3.20056481317721E-16 -1.96527906795585E-15  2.88397777881144E-16 -8.39714582590023E-17

 column         133                   134                   135                   136
 row
  133    1.00000000000000E+00
  134   -2.06325963538141E-16  1.00000000000000E+00
  135   -2.72209751136676E-16  2.50666149048003E-16  1.00000000000000E+00
  136   -2.98554859110424E-16 -4.29076058076792E-16 -5.68189282464795E-16  1.00000000000000E+00
  137   -2.72741088535198E-16  2.50830638514001E-16  1.64106148434518E-17 -5.79372521155412E-18
  138    6.16574348819525E-16 -1.72504215615544E-16  6.02372741308592E-17  2.98264085479572E-16
  139   -3.81416393602204E-17 -2.92307700086095E-16  1.13274101378406E-15 -6.34826843424226E-16
  140    6.88726174915691E-16  2.84347341574960E-16  2.19315809703293E-16  9.95101912360084E-17
  141   -8.70607684047568E-16  2.27772706383074E-16 -2.15087248349852E-16 -2.10552366299150E-16
  142   -8.36922900652023E-16 -3.12022800056599E-16 -1.22259338912221E-16  2.87553575339151E-16
  143   -5.52118335613859E-16 -1.98731616299621E-15  4.97285438544641E-16 -4.35842275339492E-16
  144    2.79274581634483E-17  2.85082816524559E-16 -1.39261918984961E-15 -2.96077315946564E-15
  145    4.02886569090948E-16 -5.18545572002472E-16  5.03754308055173E-15 -1.13998229224628E-15
  146   -1.40370300018983E-17 -9.30664745301454E-17  5.58906219916278E-17 -2.97295011959103E-16

 column         137                   138                   139                   140
 row
  137    1.00000000000002E+00
  138    5.65977092141279E-16  1.00000000000000E+00
  139    2.78413208270539E-16  8.02452628821545E-16  9.99999999999997E-01
  140    1.76978164026807E-16 -1.07917176788885E-15 -1.18335965638986E-16  1.00000000000000E+00
  141    1.06080378729011E-15  4.52064263276478E-17 -1.27852890799595E-15  3.44852573446480E-16
  142   -2.02124788829387E-16 -1.09925830389132E-15  2.21685604299883E-16 -1.73594151183650E-16
  143   -3.13748077711591E-16 -4.72304297530855E-17  8.56389860022617E-17  2.48858442754497E-16
  144   -3.16701929752851E-16  2.94003706623869E-16  2.95059005451391E-18 -1.63767706659712E-16
  145    4.79409782301407E-16 -3.17055308755159E-16  4.10484061717028E-16 -3.43269151230707E-16
  146   -8.20545888180479E-15 -5.24482800939863E-17  4.95168684701286E-16 -5.72404536963722E-16

 column         141                   142                   143                   144
 row
  141    1.00000000000000E+00
  142   -6.50653768194597E-16  1.00000000000000E+00
  143   -3.22355729919166E-17 -1.20373597433702E-16  1.00000000000001E+00
  144    3.78569467683211E-16  4.02761910904685E-16  1.90532203062240E-16  1.00000000000001E+00
  145    8.87213622703423E-16  4.20625382053712E-16  2.70420460882134E-16  7.59956522016268E-16
  146   -4.74121610027911E-16 -5.44005216308180E-16  2.47852851794923E-16  3.18030378507889E-16

 column         145                   146
 row
  145    1.00000000000001E+00
  146   -2.93202148757971E-16  1.00000000000000E+00


 SFO contributions (%) per orbital
 (multiplication by the orbital occupation yields the SFO Gross Populations)

 Orb.:       35     36     37     38     39     40     41     42     43     44     45     46     47     48
 occup:     2.00   2.00   2.00   2.00   2.00   2.00   2.00   2.00   2.00   2.00   0.00   0.00   0.00   0.00
 CF+SFO     ----   ----   ----   ----   ----   ----   ----   ----   ----   ----   ----   ----   ----   ----
 ------
     20:   15.41  -0.02   0.31  -0.00  -0.00   0.24   0.00   0.00   0.00   0.00   0.14  -0.07  -0.05  -0.00
     21:   34.96  58.47   0.32   0.00   0.00   0.28   0.00   0.00   0.00   0.00   0.03  -0.02  -0.22   0.00
     22:    0.54   0.24  72.86   0.00   0.00  23.89   0.00   0.00   0.00   0.00   1.44  -0.16   0.08  -0.00
     23:    0.00   0.00   0.00   6.79  73.73   0.00  16.37   2.80   0.05   0.00   0.00  -0.00  -0.00   0.14
     24:    0.00   0.00   0.00  73.73   6.79   0.00   2.80  16.37   0.00   0.05   0.00  -0.00  -0.00   0.04
     25:    0.00   0.00   0.00   1.23   4.72   0.00  29.46   1.41  62.51   0.28   0.00  -0.00  -0.00  -0.10
     26:    0.00   0.00   0.00   4.72   1.23   0.00   1.41  29.46   0.28  62.51   0.00  -0.00  -0.00  -0.01
     27:    0.36   0.12   2.68   0.00   0.00  27.26   0.00   0.00   0.00   0.00  68.61  -0.09  -1.14  -0.00
     28:   -0.03  -0.06   0.08   0.00   0.00   0.02  -0.00   0.00   0.00   0.00  -0.12  45.31  55.58   0.00
     29:   -0.00  -0.00   0.00   0.00   0.03   0.00   0.04   0.06   0.04   0.03   0.00   0.00   0.00  16.93
     30:    0.00   0.00   0.00   0.03   0.00   0.00   0.06   0.04   0.03   0.04   0.00   0.00   0.00  33.96
     31:    0.16  -0.14  -0.02  -0.00  -0.00  -0.16  -0.00   0.00  -0.00  -0.00  -0.17   4.68   7.22  -0.00
     32:   -0.27   0.03  -0.10  -0.00  -0.00  -0.64  -0.00   0.00  -0.00  -0.00  -0.69  -1.28  -5.53  -0.00
    105:   48.90  41.04   1.08   0.00   0.00  -0.01  -0.00  -0.00   0.00   0.00   0.54   0.06  -0.25   0.00
    106:    0.00   0.00   0.02   1.85  11.45   0.06  45.04   4.45  35.66   0.88   0.03   0.00   0.00   0.20
    107:    0.00   0.00   0.26  11.35   1.79   0.59   4.51  44.45   0.91  35.21   0.35   0.02   0.00   0.04
    108:    0.06   0.25  21.68   0.11   0.07  47.48   0.00   0.64   0.01   0.49  28.91   1.48   0.33   0.00
    109:    0.00  -0.05   0.06  -0.00  -0.07   0.54   0.04   0.01   0.09   0.01  -0.22  35.18  35.54   7.85
    110:    0.00  -0.01   0.02  -0.05  -0.20   0.16   0.16   0.01   0.34   0.00  -0.06  10.01  10.14  34.49
    111:    0.00  -0.00   0.00  -0.27  -0.05   0.01   0.01   0.19   0.01   0.43  -0.00   0.65   0.67   5.90
    112:   -0.00   0.05  -0.02  -0.00  -0.00   0.03   0.00   0.00   0.00   0.00  -0.16   0.52  -2.41   0.00
    114:    0.03  -0.01   0.43   0.06   0.01  -0.00   0.00   0.00   0.03   0.01   1.05   2.23  -0.66   0.08


 Summation over all MOs, multiplied by occupation: Total SFO Gross Populations in this Irrep
 ===========================================================================================

     2.00    2.00    2.00    2.00    2.00    2.00    2.00    2.00    2.00    2.00    2.00    2.00
     2.00    2.00    2.00    2.00    2.00    2.00    2.00    2.00    2.00    1.96    1.99    1.99
     1.99    1.99    0.61    0.00    0.00    0.00   -0.00   -0.02   -0.00   -0.00    0.00    0.00
     0.00    0.00   -0.00    0.01    0.00    0.00    0.00    0.00   -0.00    0.00    0.00    0.00
     0.00    0.00    0.00    0.00    0.00    0.00    0.00    0.00    0.00    0.00    0.00    0.00
     0.00    0.00    0.00    0.00    0.00   -0.00    0.00    0.00    0.00   -0.00   -0.00   -0.00
     0.00    0.00   -0.00    0.00   -0.00   -0.00   -0.00   -0.00    0.00    0.00    0.00    0.00
    -0.00    0.00    0.00    0.00    0.00    0.00    2.00    2.00    2.00    2.00    2.00    2.00
     2.00    2.00    2.00    2.00    2.00    2.00    2.00    2.00    2.00    1.99    1.98    1.44
     0.01    0.01    0.01    0.00    0.00    0.02    0.01    0.01    0.00    0.00    0.00    0.00
     0.00    0.00    0.00    0.00    0.00   -0.00    0.00   -0.00   -0.00   -0.00   -0.00   -0.00
    -0.00   -0.00   -0.00   -0.00    0.00   -0.00   -0.00   -0.00   -0.00   -0.00    0.00    0.00
     0.00   -0.00



 List of all MOs, ordered by energy, with the most significant SFO gross populations
 ===================================================================================

 Each percentage contribution in the table below corresponds to the indicated SFO.
 In general, a SFO may be a linear combination of several Fragment Orbitals on the same,
 or on symmetry-related Fragments. Only the first 'member' of such a combination is
 specified here. A full definition of all SFOs is given in an earlier part of the output.
 The numbering of the SFOs in this table does NOT include the Core Orbitals, and starts
 from one for each symmetry representation, as in the SFO definition list earlier.

       E(eV)  Occ       MO           %     SFO (first member)   E(eV)  Occ   Fragment
 -------------------------------------------------------------------------------------

     -15.912  2.00    34 A         83.90%    20 A             -20.873  2.00     1 ClBr
                                    8.93%    15 A             -10.500  2.00     2 Br
                                    5.79%    21 A             -19.323  2.00     1 ClBr
                                    1.05%    18 A               0.447  2.00     2 Br
     -14.039  2.00    35 A         48.90%    15 A             -10.500  2.00     2 Br
                                   34.96%    21 A             -19.323  2.00     1 ClBr
                                   15.41%    20 A             -20.873  2.00     1 ClBr
     -13.409  2.00    36 A         58.47%    21 A             -19.323  2.00     1 ClBr
                                   41.04%    15 A             -10.500  2.00     2 Br
      -5.699  2.00    37 A         72.86%    22 A             -10.428  2.00     1 ClBr
                                   21.68%    18 A               0.447  2.00     2 Br
                                    2.68%    27 A              -6.494  0.00     1 ClBr
                                    1.08%    15 A             -10.500  2.00     2 Br
      -3.765  2.00    38 A         73.73%    24 A              -8.606  2.00     1 ClBr
                                   11.35%    17 A               0.447  2.00     2 Br
                                    6.79%    23 A              -8.606  2.00     1 ClBr
                                    4.72%    26 A              -7.508  2.00     1 ClBr
                                    1.85%    16 A               0.447  2.00     2 Br
                                    1.23%    25 A              -7.508  2.00     1 ClBr
      -3.765  2.00    39 A         73.73%    23 A              -8.606  2.00     1 ClBr
                                   11.45%    16 A               0.447  2.00     2 Br
                                    6.79%    24 A              -8.606  2.00     1 ClBr
                                    4.72%    25 A              -7.508  2.00     1 ClBr
                                    1.79%    17 A               0.447  2.00     2 Br
                                    1.23%    26 A              -7.508  2.00     1 ClBr
      -2.595  2.00    40 A         47.48%    18 A               0.447  2.00     2 Br
                                   27.26%    27 A              -6.494  0.00     1 ClBr
                                   23.89%    22 A             -10.428  2.00     1 ClBr
      -2.567  2.00    41 A         45.04%    16 A               0.447  2.00     2 Br
                                   29.46%    25 A              -7.508  2.00     1 ClBr
                                   16.37%    23 A              -8.606  2.00     1 ClBr
                                    4.51%    17 A               0.447  2.00     2 Br
                                    2.80%    24 A              -8.606  2.00     1 ClBr
                                    1.41%    26 A              -7.508  2.00     1 ClBr
      -2.567  2.00    42 A         44.45%    17 A               0.447  2.00     2 Br
                                   29.46%    26 A              -7.508  2.00     1 ClBr
                                   16.37%    24 A              -8.606  2.00     1 ClBr
                                    4.45%    16 A               0.447  2.00     2 Br
                                    2.80%    23 A              -8.606  2.00     1 ClBr
                                    1.41%    25 A              -7.508  2.00     1 ClBr
      -2.026  2.00    43 A         62.51%    25 A              -7.508  2.00     1 ClBr
                                   35.66%    16 A               0.447  2.00     2 Br
      -2.026  2.00    44 A         62.51%    26 A              -7.508  2.00     1 ClBr
                                   35.21%    17 A               0.447  2.00     2 Br
       0.022  0.00    45 A         68.61%    27 A              -6.494  0.00     1 ClBr
                                   28.91%    18 A               0.447  2.00     2 Br
                                    1.44%    22 A             -10.428  2.00     1 ClBr
                                    1.05%    24 A              15.005  0.00     2 Br



 =======================================================================
 Electrostatic potential at the Nuclei due to electrons and other nuclei
 =======================================================================
  
         Atom                  Potential
         ----                  ---------
     1)   Cl                 64.57802026
     2)   Br                176.13465246
     3)   Br                176.13464145
 
 
 ========================
 No memory problems found
 ========================
 
 Maximum number of active allocate calls:         696
 
 *******************************************************************************

                             A D F   E X I T
 NORMAL TERMINATION



 =================
 Timing Statistics
 =================
  
 Total Used :                     CPU=        6.83      System=        0.21     Elapsed=        7.14

 Calls  Section                     ( Mean, Percentage )
 ---------------------------------------------------------------------------------------------------
     3  ><      ................      0.00    0.01             0.00    0.00             0.00    0.02
     1  INIT    ................      0.45    6.57             0.02   10.85             0.48    6.67
     1  GEOMET  ................      0.03    0.42             0.01    4.72             0.06    0.80
     1  FRAGM   ................      0.01    0.19             0.01    2.83             0.03    0.39
     1  INPUTA  ................      0.00    0.00             0.00    0.00             0.00    0.01
     1  ATDEN   ................      0.01    0.07             0.00    0.00             0.01    0.07
     1  MAINSY  ................      0.01    0.09             0.00    1.89             0.01    0.17
     1  SYMFIT  ................      0.00    0.04             0.00    0.00             0.00    0.03
     1  CORORT  ................      0.00    0.00             0.00    0.00             0.00    0.01
     1  SYMORB  ................      0.00    0.04             0.00    0.47             0.00    0.05
     1  CLSMAT  ................      0.01    0.13             0.00    0.00             0.01    0.12
     1  ORTHON  ................      0.01    0.20             0.00    0.00             0.01    0.20
     1  GENPT   ................      0.14    2.03             0.00    1.41             0.14    2.00
     1  PTBAS   ................      0.04    0.66             0.00    1.89             0.05    0.69
    17  FOCKY   ................      0.14   33.95             0.00    9.43             0.14   32.84
    17  FOCKTR  ................      0.00    0.54             0.00    0.47             0.00    0.58
    17  SDIIS   ................      0.00    0.94             0.00    1.41             0.00    0.97
     1  COREPS  ................      0.11    1.67             0.00    0.47             0.12    1.62
     1  TOTEN   ................      0.37    5.49             0.00    2.36             0.38    5.34
     1  POPAN   ................      0.00    0.06             0.00    0.47             0.01    0.13
     1  DEBYE   ................      0.01    0.16             0.00    0.00             0.01    0.15
     1  INPUTE  ................      0.00    0.00             0.00    0.00             0.00    0.02
     1  SYMORE  ................      0.00    0.01             0.00    0.00             0.00    0.02
     1  METS    ................      0.00    0.00             0.00    0.47             0.00    0.01
     1  CETS    ................      0.02    0.25             0.00    2.36             0.04    0.54
     1  POPUL   ................      3.15   46.05             0.12   56.60             3.29   46.11
     1  EXIT PROCEDURE .........      0.03    0.40             0.00    1.89             0.03    0.45


 Currently Open Files (EXIT00)
 ====================

 Unit    Access Format  Status   Type       Ident (file)
 -------------------------------------------------------
   3      SEQ    FORM   TRANSP  NORMAL      LOGFILE
                                          ( logfile )


 Buffered I/O statistics
 =======================
 Memory available:                     67108864
 Number of records fitting in memory:     16131
 Input :   1.1% of                        60265  *4k bytes
 Output:  14.6% of                         4834  *4k bytes
 Records from serial files evicted:           0
                    others evicted:           0
 Hash table lookups:     172711 with          0 conflicts (  0.00%)

 ***************************************************************************************************
 (LOGFILE)
 <May09-2019> <17:11:56>  ADF 2017  RunTime: May09-2019 17:11:56  Nodes: 1  Procs: 12
 <May09-2019> <17:11:57>  *** (NO TITLE) ***
 <May09-2019> <17:11:57>  RunType   : SINGLE POINT
 <May09-2019> <17:11:57>  Net Charge: -1 (Nuclei minus Electrons)
 <May09-2019> <17:11:57>  Symmetry  : NOSYM
 <May09-2019> <17:11:57>  >>>> FRAGM
  Coordinates
    Atom         X           Y           Z   (Angstrom)
    1.Cl       -4.925760    3.099436   -0.044824
    2.Br       -3.717238    0.865333    0.205929
    3.Br       -6.132384    5.334149   -0.298307
 <May09-2019> <17:11:57>  >>>> CORORT
 <May09-2019> <17:11:57>  >>>> CLSMAT
 <May09-2019> <17:11:57>  >>>> ORTHON
 <May09-2019> <17:11:57>  >>>> GENPT
 <May09-2019> <17:11:57>  Block Length= 128
 <May09-2019> <17:11:57>  >>>> PTBAS
 <May09-2019> <17:11:57>  >>>> CYCLE
 <May09-2019> <17:11:57>              |Error|         MaxErr       Wt(A-DIIS)
 <May09-2019> <17:11:57>      1      1.27355916      0.80148789
 <May09-2019> <17:11:58>      2      0.89077871      0.40173819    100.0
 <May09-2019> <17:11:58>      3      0.56089472      0.29495629    100.0
 <May09-2019> <17:11:58>      4      0.53294097      0.29241326    100.0
 <May09-2019> <17:11:58>      5      1.48191145      0.43328256    100.0
 <May09-2019> <17:11:58>      6      0.46956269      0.17828234    100.0
 <May09-2019> <17:11:58>      7      0.27906603      0.11556363    100.0
 <May09-2019> <17:11:58>      8      0.35503299      0.14124825    100.0
 <May09-2019> <17:11:59>      9      0.05636125      0.01611829     15.3
 <May09-2019> <17:11:59>     10      0.02483231      0.00758410      6.7
 <May09-2019> <17:11:59>     11      0.00262391      0.00136499      0.4
 <May09-2019> <17:11:59>     12      0.00047411      0.00011126      0.0
 <May09-2019> <17:11:59>     13      0.00015486      0.00008112      0.0
 <May09-2019> <17:11:59>     14      0.00002997      0.00001011      0.0
 <May09-2019> <17:11:59>     15      0.00000425      0.00000125      0.0
 <May09-2019> <17:12:00>     16      0.00000120      0.00000030      0.0
 <May09-2019> <17:12:00>  SCF converged
 <May09-2019> <17:12:00>     17      0.00000019      0.00000005      0.0
 <May09-2019> <17:12:00>  >>>> TOTEN
 <May09-2019> <17:12:00>  >>>> POPAN
 <May09-2019> <17:12:00>  >>>> DEBYE
 <May09-2019> <17:12:00>  >>>> AMETS
 <May09-2019> <17:12:03>   Bond Energy          -0.07815364 a.u.
 <May09-2019> <17:12:03>   Bond Energy          -2.12666862 eV
 <May09-2019> <17:12:03>   Bond Energy         -49.04       kcal/mol
 <May09-2019> <17:12:03>  >>>> POPUL
 <May09-2019> <17:12:04>  NORMAL TERMINATION
 <May09-2019> <17:12:04>  END
