

 Parallel Execution: Process Information
 ==============================================================================
 Rank   Node Name                              NodeID   MyNodeRank  NodeMaster
    0   BAZIS-cn025                               0          0          0
    1   BAZIS-cn025                               0          1         -1
    2   BAZIS-cn025                               0          2         -1
    3   BAZIS-cn025                               0          3         -1
    4   BAZIS-cn025                               0          4         -1
    5   BAZIS-cn025                               0          5         -1
    6   BAZIS-cn025                               0          6         -1
    7   BAZIS-cn025                               0          7         -1
    8   BAZIS-cn025                               0          8         -1
    9   BAZIS-cn025                               0          9         -1
   10   BAZIS-cn025                               0         10         -1
   11   BAZIS-cn025                               0         11         -1
 ==============================================================================


May use up to 30771MB of RAM as shared memory on node 0


XC
    GGA BP86
END

SCF
    iterations 250
END

EPRINT
    SFO Eig Ovl
END

ZLMFIT
    Quality normal
END

BECKEGRID
    Quality good
End

SYMMETRY nosym
CHARGE -1

ATOMS
1.Br       -4.815332    2.930569   -0.047034 f=BrF
2.F        -3.700436    1.213781   -0.060239 f=BrF
3.Br       -6.259613    5.154569   -0.029928 f=Br
END

Fragments
BrF /home/tcst25/advanced_comp_chemistry/exercise2/halogen/FBrBr/frag1_BrF.t21
Br /home/tcst25/advanced_comp_chemistry/exercise2/halogen/FBrBr/frag2_Br.t21
End
end input

 *******************************************************************************
 *                                                                             *
 *  -------------------------------------                                      *
 *   Amsterdam Density Functional  (ADF)         2017                          *
 *  -------------------------------------                                      *
 *                                               r58813 2017-04-12             *
 *                                                                             *
 *                                                                             *
 *                              =================                              *
 *                              |               |                              *
 *                              |     A D F     |                              *
 *                              |               |                              *
 *                              =================                              *
 *                                                                             *
 *                                                                             *
 *   Online information and documentation:  https://www.scm.com/support/       *
 *   E-mail:  support@scm.com   info@scm.com                                   *
 *                                                                             *
 *   Scientific publications using ADF results must be properly referenced     *
 *   See the User Manuals (or the web site) for recommended citations          *
 *   The terms and conditions of the End User License Agreement apply to       *
 *   the use of ADF, https://www.scm.com/license-terms/                        *
 *                                                                             *
 **********************  x86_64_linux_intel / intelmpi  ************************
 
 Licensed to: VU/FEW (+ SARA) / ALGEMEEN / Amsterdam / THE NETHERLANDS
 SCM User ID: u7668
  
 ADF 2017  RunTime: May09-2019 17:12:12  Nodes: 1  Procs: 12

 Temporary files are created in /local/datastore0/tcst25/189783/kid_0.7wRhVh


Communication costs MPI_COMM_WORLD:      3.882 usec per message,   0.0182 usec per 8-byte item
Communication costs for intra-node:      3.854 usec per message,   0.0179 usec per 8-byte item

 *** (NO TITLE) ***



 ===========================
 A T T A C H E D   F I L E S
 ===========================
  



 ===============================
 M O D E L   P A R A M E T E R S
 ===============================
  
 DENSITY FUNCTIONAL POTENTIAL (scf)
    LDA:                               VWN                                      
    Gradient Corrections:              Becke88 Perdew86                        == Not Default ==

 SPIN  (restricted / unrestr.)
    Molecule:                          Restricted                               
    Fragments:                         Restricted                               

 OTHER ASPECTS
    Relativistic Corrections:          ---                                      

    Nuclear Charge Density Model:      Point Charge Nuclei                      
    Core Treatment:                    Frozen Orbital(s)                        

    Hyperfine or Zeeman Interaction:   ---                                      


 Fragment File(s)
 ----------------
 BrF:
         file : /home/tcst25/advanced_comp_chemistry/exercise2/halogen/FBrBr/frag1_BrF.t21
         jobid: ADF 2017  RunTime: May09-2019 16:32:28  Nodes: 1  Procs: 12
         title: *** (NO TITLE) ***
 Br:
         file : /home/tcst25/advanced_comp_chemistry/exercise2/halogen/FBrBr/frag2_Br.t21
         jobid: ADF 2017  RunTime: May09-2019 16:32:28  Nodes: 1  Procs: 12
         title: *** (NO TITLE) ***



                                        ************************************
                                        *  R U N   T Y P E : SINGLE POINT  *
                                        ************************************
  



 ===============
 G E O M E T R Y  ***  Linear Molecule  ***
 ===============
  

 ATOMS
 =====                            X Y Z                    CHARGE
                                (Angstrom)             Nucl     +Core       At.Mass
                       --------------------------    ----------------       -------
    1  Br             -4.8153    2.9306   -0.0470     35.00     35.00       78.9183
    2  F              -3.7004    1.2138   -0.0602      9.00      9.00       18.9984
    3  Br             -6.2596    5.1546   -0.0299     35.00     35.00       78.9183


 FRAGMENTS
 =========                                     Atoms in this Fragment     Cart. coord.s (Angstrom)
                                               -------------------------------------------------------
    1  BrF                                               1  Br          -4.8153    2.9306   -0.0470
                                                         2  F           -3.7004    1.2138   -0.0602
    2  Br                                                3  Br          -6.2596    5.1546   -0.0299


 Interatomic Distance Matrix (Angstrom)
 --------------------------------------

   1)     0.000
   2)     2.047   0.000
   3)     2.652   4.699   0.000

 Min. Distance =    2.0471
 Max. Distance =    4.6989



 =====================================
 S Y M M E T R Y ,   E L E C T R O N S
 =====================================
  
 Symmetry: NOSYM

 Irreducible Representations, including subspecies
 -------------------------------------------------
 A


 Configuration of Valence Electrons
 ==================================
 ( determined in the SCF procedure )

 Total:   80

 Net Charge: -1 (Nuclei minus Electrons)

 Aufbau principle for MO occupations will be applied through SCF cycle no.     125
 Thereafter, the program will assign electrons to MOs that are spatially
 similar to the occupied MOs in a "reference" cycle ("KeepOrbitals").
 The reference cycle is always the PREVIOUS cycle: it will evolve with
 the SCF procedure.
1
 ***************************************************************************************************



                                      ****************************************
                                      *  B U I L D : (Fragments, Functions)  *
                                      ****************************************
  

 The individual fragments are copies of the corresponding 'Master' fragments defined on the fragment files.
 However, they may have been rotated (and translated) with respect to the Master. The local coordinate axes
 of each fragment (which define for instance the spatial orientation in the current molecule of a fragment
 P:x orbital) are not necessarily those of the molecule.
 The local frame (if different from the molecular one) is printed to enable an interpretation of the expan-
 sion of an MO in Fragment Orbitals.



                                             *************************
                                             *  Fragment Type : BrF  *
                                             *************************
  

 Fragment no.    1   (in the list of all fragments)
 -----------------
 The local coordinate frame is identical to the molecular frame.

 Check Atomic Coordinates:

                  Master (on file)          After Computed Tranformation               As specified on Input
           ----------------------------     ----------------------------     ---------------------------------
     1)    -4.81533   2.93057  -0.04703     -4.81533   2.93057  -0.04703       1  -4.81533   2.93057  -0.04703
     2)    -3.70044   1.21378  -0.06024     -3.70044   1.21378  -0.06024       2  -3.70044   1.21378  -0.06024



                                              ************************
                                              *  Fragment Type : Br  *
                                              ************************
  

 Fragment no.    2   (in the list of all fragments)
 -----------------
 The local coordinate frame is identical to the molecular frame.

 Check Atomic Coordinates:

                  Master (on file)          After Computed Tranformation               As specified on Input
           ----------------------------     ----------------------------     ---------------------------------
     1)    -6.25961   5.15457  -0.02993     -6.25961   5.15457  -0.02993       3  -6.25961   5.15457  -0.02993



 =======
 S F O s  ***  (Symmetrized Fragment Orbitals)  ***
 =======
  
 SFOs are linear combinations of (valence) Fragment Orbitals (FOs), such that the SFOs transform as the
 irreducible representations of the (molecular) symmetry group. Each SFO is therefore characterized by
 an irrep of the molecule and by a few (or only one) generating FOs.
 The SFOs constitute a symmetry-adapted basis for the Fock matrix. The MO eigenvector coefficients in
 this basis provide a direct interpretation of the MOs in terms of Frontier Orbital Theory.

 The SFOs are combined with auxiliary Core Functions (CFs) to ensure orthogonalization on the (frozen)
 Core Orbitals (COs). The Core-orthogonalized SFOs (CSFOs) constitute the true Fock basis.

 The FOs, and hence also the (C)SFOs are combinations of the elementary basis functions (BAS). The basis
 functions that participate in the description of the SFOs depend on the irrep. The indices of the
 involved functions are printed below for each irrep.
 (The complete list of primitive basis functions is printed in another section)

 Total nr. of (C)SFOs (summation over all irreps) :   138

 NOTE: a (C)SFO that is defined as a combination of more than one FO is usually NOT normalized.



                                       === A ===
 Nr. of SFOs :  138
 Cartesian basis functions that participate in this irrep (total number =   156) :
      1     2     3    10    11    36    37    38     4     7
     12    15    39    42    45     5     8    13    16    40
     43    46     6     9    14    17    41    44    47    18
     24    30    48    19    25    31    49    20    26    32
     50    21    27    33    51    22    28    34    52    23
     29    35    53    54    55    56    57    58    59    60
     61    62    63    64    65    66    67    68    69    72
     75    70    73    76    71    74    77    78    79    80
     81    82    83    84    85    86    87    88    89    90
     91    92    93    94    95    96   103   104   129   130
    131    97   100   105   108   132   135   138    98   101
    106   109   133   136   139    99   102   107   110   134
    137   140   111   117   123   141   112   118   124   142
    113   119   125   143   114   120   126   144   115   121
    127   145   116   122   128   146   147   148   149   150
    151   152   153   154   155   156

    SFO  (index         Fragment          Generating    Expansion in Fragment Orbitals
  indx  incl.CFs)   Occup   Orb.Energy   FragmentType  Coeff.   Orbital     on Fragment
 --------------------------------------------------------------------------------------
     1       1      2.000    -481.078 au  BrF           1.00      1 A               1
                        (  -13090.810 eV)
     2       2      2.000     -61.833 au  BrF           1.00      2 A               1
                        (   -1682.552 eV)
     3       3      2.000     -55.768 au  BrF           1.00      3 A               1
                        (   -1517.538 eV)
     4       4      2.000     -55.760 au  BrF           1.00      4 A               1
                        (   -1517.298 eV)
     5       5      2.000     -55.760 au  BrF           1.00      5 A               1
                        (   -1517.297 eV)
     6       6      2.000     -24.311 au  BrF           1.00      6 A               1
                        (    -661.524 eV)
     7       7      2.000      -8.452 au  BrF           1.00      7 A               1
                        (    -229.992 eV)
     8       8      2.000      -6.368 au  BrF           1.00      8 A               1
                        (    -173.295 eV)
     9       9      2.000      -6.343 au  BrF           1.00      9 A               1
                        (    -172.606 eV)
    10      10      2.000      -6.343 au  BrF           1.00     10 A               1
                        (    -172.605 eV)
    11      11      2.000      -2.571 au  BrF           1.00     11 A               1
                        (     -69.968 eV)
    12      12      2.000      -2.565 au  BrF           1.00     12 A               1
                        (     -69.803 eV)
    13      13      2.000      -2.565 au  BrF           1.00     13 A               1
                        (     -69.803 eV)
    14      14      2.000      -2.547 au  BrF           1.00     14 A               1
                        (     -69.302 eV)
    15      15      2.000      -2.547 au  BrF           1.00     15 A               1
                        (     -69.302 eV)
    16      16      2.000      -1.054 au  BrF           1.00     16 A               1
                        (     -28.691 eV)
    17      17      2.000      -0.740 au  BrF           1.00     17 A               1
                        (     -20.145 eV)
    18      18      2.000      -0.435 au  BrF           1.00     18 A               1
                        (     -11.826 eV)
    19      19      2.000      -0.366 au  BrF           1.00     19 A               1
                        (      -9.966 eV)
    20      20      2.000      -0.366 au  BrF           1.00     20 A               1
                        (      -9.966 eV)
    21      21      2.000      -0.291 au  BrF           1.00     21 A               1
                        (      -7.926 eV)
    22      22      2.000      -0.291 au  BrF           1.00     22 A               1
                        (      -7.926 eV)
    23      23       --        -0.240 au  BrF           1.00     23 A               1
                        (      -6.521 eV)
    24      24       --         0.030 au  BrF           1.00     24 A               1
                        (       0.824 eV)
    25      25       --         0.122 au  BrF           1.00     25 A               1
                        (       3.323 eV)
    26      26       --         0.129 au  BrF           1.00     26 A               1
                        (       3.518 eV)
    27      27       --         0.129 au  BrF           1.00     27 A               1
                        (       3.518 eV)
    28      28       --         0.241 au  BrF           1.00     28 A               1
                        (       6.571 eV)
    29      29       --         0.241 au  BrF           1.00     29 A               1
                        (       6.571 eV)
    30      30       --         0.248 au  BrF           1.00     30 A               1
                        (       6.754 eV)
    31      31       --         0.248 au  BrF           1.00     31 A               1
                        (       6.754 eV)
    32      32       --         0.256 au  BrF           1.00     32 A               1
                        (       6.978 eV)
    33      33       --         0.433 au  BrF           1.00     33 A               1
                        (      11.773 eV)
    34      34       --         0.565 au  BrF           1.00     34 A               1
                        (      15.372 eV)
    35      35       --         0.565 au  BrF           1.00     35 A               1
                        (      15.372 eV)
    36      36       --         0.684 au  BrF           1.00     36 A               1
                        (      18.603 eV)
    37      37       --         0.793 au  BrF           1.00     37 A               1
                        (      21.588 eV)
    38      38       --         0.793 au  BrF           1.00     38 A               1
                        (      21.588 eV)
    39      39       --         0.834 au  BrF           1.00     39 A               1
                        (      22.692 eV)
    40      40       --         0.834 au  BrF           1.00     40 A               1
                        (      22.692 eV)
    41      41       --         0.839 au  BrF           1.00     41 A               1
                        (      22.837 eV)
    42      42       --         0.839 au  BrF           1.00     42 A               1
                        (      22.837 eV)
    43      43       --         0.968 au  BrF           1.00     43 A               1
                        (      26.352 eV)
    44      44       --         1.179 au  BrF           1.00     44 A               1
                        (      32.070 eV)
    45      45       --         1.179 au  BrF           1.00     45 A               1
                        (      32.070 eV)
    46      46       --         1.245 au  BrF           1.00     46 A               1
                        (      33.865 eV)
    47      47       --         1.245 au  BrF           1.00     47 A               1
                        (      33.865 eV)
    48      48       --         1.251 au  BrF           1.00     48 A               1
                        (      34.039 eV)
    49      49       --         1.381 au  BrF           1.00     49 A               1
                        (      37.576 eV)
    50      50       --         1.568 au  BrF           1.00     50 A               1
                        (      42.667 eV)
    51      51       --         1.568 au  BrF           1.00     51 A               1
                        (      42.667 eV)
    52      52       --         2.362 au  BrF           1.00     52 A               1
                        (      64.263 eV)
    53      53       --         2.621 au  BrF           1.00     53 A               1
                        (      71.318 eV)
    54      54       --         2.657 au  BrF           1.00     54 A               1
                        (      72.290 eV)
    55      55       --         2.657 au  BrF           1.00     55 A               1
                        (      72.293 eV)
    56      56       --         2.810 au  BrF           1.00     56 A               1
                        (      76.451 eV)
    57      57       --         2.810 au  BrF           1.00     57 A               1
                        (      76.451 eV)
    58      58       --         3.403 au  BrF           1.00     58 A               1
                        (      92.598 eV)
    59      59       --         3.471 au  BrF           1.00     59 A               1
                        (      94.442 eV)
    60      60       --         3.471 au  BrF           1.00     60 A               1
                        (      94.442 eV)
    61      61       --         3.519 au  BrF           1.00     61 A               1
                        (      95.748 eV)
    62      62       --         3.519 au  BrF           1.00     62 A               1
                        (      95.748 eV)
    63      63       --         3.673 au  BrF           1.00     63 A               1
                        (      99.957 eV)
    64      64       --         3.673 au  BrF           1.00     64 A               1
                        (      99.958 eV)
    65      65       --         3.704 au  BrF           1.00     65 A               1
                        (     100.796 eV)
    66      66       --         4.790 au  BrF           1.00     66 A               1
                        (     130.346 eV)
    67      67       --         4.790 au  BrF           1.00     67 A               1
                        (     130.347 eV)
    68      68       --         5.168 au  BrF           1.00     68 A               1
                        (     140.638 eV)
    69      69       --         8.820 au  BrF           1.00     69 A               1
                        (     239.992 eV)
    70      70       --         8.820 au  BrF           1.00     70 A               1
                        (     240.001 eV)
    71      71       --         9.091 au  BrF           1.00     71 A               1
                        (     247.370 eV)
    72      72       --        14.702 au  BrF           1.00     72 A               1
                        (     400.050 eV)
    73      73       --        20.577 au  BrF           1.00     73 A               1
                        (     559.937 eV)
    74      74       --        20.577 au  BrF           1.00     74 A               1
                        (     559.939 eV)
    75      75       --        20.759 au  BrF           1.00     75 A               1
                        (     564.874 eV)
    76      76       --        20.759 au  BrF           1.00     76 A               1
                        (     564.879 eV)
    77      77       --        21.067 au  BrF           1.00     77 A               1
                        (     573.272 eV)
    78      78       --        50.757 au  BrF           1.00     78 A               1
                        (    1381.178 eV)
    79      79       --       100.864 au  BrF           1.00     79 A               1
                        (    2744.639 eV)
    80      80       --       100.864 au  BrF           1.00     80 A               1
                        (    2744.641 eV)
    81      81       --       101.495 au  BrF           1.00     81 A               1
                        (    2761.816 eV)
    82      82       --       748.399 au  BrF           1.00     82 A               1
                        (   20364.981 eV)
    83      83      2.000    -480.688 au  Br            1.00      1 A               2
                        (  -13080.195 eV)
    84      84      2.000     -61.445 au  Br            1.00      2 A               2
                        (   -1672.008 eV)
    85      85      2.000     -55.375 au  Br            1.00      3 A               2
                        (   -1506.824 eV)
    86      86      2.000     -55.375 au  Br            1.00      4 A               2
                        (   -1506.824 eV)
    87      87      2.000     -55.375 au  Br            1.00      5 A               2
                        (   -1506.824 eV)
    88      88      2.000      -8.066 au  Br            1.00      6 A               2
                        (    -219.480 eV)
    89      89      2.000      -5.966 au  Br            1.00      7 A               2
                        (    -162.330 eV)
    90      90      2.000      -5.966 au  Br            1.00      8 A               2
                        (    -162.330 eV)
    91      91      2.000      -5.966 au  Br            1.00      9 A               2
                        (    -162.330 eV)
    92      92      2.000      -2.173 au  Br            1.00     10 A               2
                        (     -59.143 eV)
    93      93      2.000      -2.173 au  Br            1.00     11 A               2
                        (     -59.143 eV)
    94      94      2.000      -2.173 au  Br            1.00     12 A               2
                        (     -59.143 eV)
    95      95      2.000      -2.173 au  Br            1.00     13 A               2
                        (     -59.143 eV)
    96      96      2.000      -2.173 au  Br            1.00     14 A               2
                        (     -59.143 eV)
    97      97      2.000      -0.386 au  Br            1.00     15 A               2
                        (     -10.500 eV)
    98      98      2.000       0.016 au  Br            1.00     16 A               2
                        (       0.447 eV)
    99      99      2.000       0.016 au  Br            1.00     17 A               2
                        (       0.447 eV)
   100     100      2.000       0.016 au  Br            1.00     18 A               2
                        (       0.447 eV)
   101     101       --         0.352 au  Br            1.00     19 A               2
                        (       9.589 eV)
   102     102       --         0.352 au  Br            1.00     20 A               2
                        (       9.589 eV)
   103     103       --         0.352 au  Br            1.00     21 A               2
                        (       9.589 eV)
   104     104       --         0.501 au  Br            1.00     22 A               2
                        (      13.634 eV)
   105     105       --         0.551 au  Br            1.00     23 A               2
                        (      15.005 eV)
   106     106       --         0.551 au  Br            1.00     24 A               2
                        (      15.005 eV)
   107     107       --         0.551 au  Br            1.00     25 A               2
                        (      15.005 eV)
   108     108       --         0.551 au  Br            1.00     26 A               2
                        (      15.005 eV)
   109     109       --         0.551 au  Br            1.00     27 A               2
                        (      15.005 eV)
   110     110       --         1.141 au  Br            1.00     28 A               2
                        (      31.038 eV)
   111     111       --         1.141 au  Br            1.00     29 A               2
                        (      31.038 eV)
   112     112       --         1.141 au  Br            1.00     30 A               2
                        (      31.038 eV)
   113     113       --         1.141 au  Br            1.00     31 A               2
                        (      31.038 eV)
   114     114       --         1.141 au  Br            1.00     32 A               2
                        (      31.038 eV)
   115     115       --         1.141 au  Br            1.00     33 A               2
                        (      31.038 eV)
   116     116       --         1.141 au  Br            1.00     34 A               2
                        (      31.038 eV)
   117     117       --         1.505 au  Br            1.00     35 A               2
                        (      40.949 eV)
   118     118       --         1.505 au  Br            1.00     36 A               2
                        (      40.949 eV)
   119     119       --         1.505 au  Br            1.00     37 A               2
                        (      40.949 eV)
   120     120       --         2.776 au  Br            1.00     38 A               2
                        (      75.551 eV)
   121     121       --         3.002 au  Br            1.00     39 A               2
                        (      81.690 eV)
   122     122       --         3.002 au  Br            1.00     40 A               2
                        (      81.690 eV)
   123     123       --         3.002 au  Br            1.00     41 A               2
                        (      81.690 eV)
   124     124       --         3.002 au  Br            1.00     42 A               2
                        (      81.690 eV)
   125     125       --         3.002 au  Br            1.00     43 A               2
                        (      81.690 eV)
   126     126       --         9.163 au  Br            1.00     44 A               2
                        (     249.341 eV)
   127     127       --         9.163 au  Br            1.00     45 A               2
                        (     249.341 eV)
   128     128       --         9.163 au  Br            1.00     46 A               2
                        (     249.341 eV)
   129     129       --        14.623 au  Br            1.00     47 A               2
                        (     397.911 eV)
   130     130       --        20.941 au  Br            1.00     48 A               2
                        (     569.821 eV)
   131     131       --        20.941 au  Br            1.00     49 A               2
                        (     569.821 eV)
   132     132       --        20.941 au  Br            1.00     50 A               2
                        (     569.821 eV)
   133     133       --        20.941 au  Br            1.00     51 A               2
                        (     569.821 eV)
   134     134       --        20.941 au  Br            1.00     52 A               2
                        (     569.821 eV)
   135     135       --       101.209 au  Br            1.00     53 A               2
                        (    2754.029 eV)
   136     136       --       101.209 au  Br            1.00     54 A               2
                        (    2754.029 eV)
   137     137       --       101.209 au  Br            1.00     55 A               2
                        (    2754.029 eV)
   138     138       --       746.807 au  Br            1.00     56 A               2
                        (   20321.657 eV)



 ================================
 (Slater-type)  F U N C T I O N S  ***  (Basis and Fit)  ***
 ================================
  

 Atom Type    1  (Br)
 ==============

 Valence Basis Sets:  20
 -----------------------
   1 S   41.300000
   1 S   32.800000
   2 S   13.900000
   2 P   19.450000
   2 P   13.100000
   3 S    7.200000
   3 S    4.950000
   3 P    7.900000
   3 P    5.050000
   3 D   10.900000
   3 D    6.050000
   3 D    3.500000
   4 S    4.500000
   4 S    2.800000
   4 S    1.800000
   4 P    3.250000
   4 P    1.950000
   4 P    1.200000
   4 D    1.800000
   4 F    1.800000

 Atom Type    2  (F)
 ==============

 Valence Basis Sets:  10
 -----------------------
   1 S   10.880000
   1 S    7.700000
   2 S    3.240000
   2 S    1.940000
   2 S    0.740000
   2 P    4.540000
   2 P    2.300000
   2 P    1.240000
   3 D    2.000000
   4 F    3.000000

 Atom Type    3  (Br)
 ==============

 Valence Basis Sets:  20
 -----------------------
   1 S   41.300000
   1 S   32.800000
   2 S   13.900000
   2 P   19.450000
   2 P   13.100000
   3 S    7.200000
   3 S    4.950000
   3 P    7.900000
   3 P    5.050000
   3 D   10.900000
   3 D    6.050000
   3 D    3.500000
   4 S    4.500000
   4 S    2.800000
   4 S    1.800000
   4 P    3.250000
   4 P    1.950000
   4 P    1.200000
   4 D    1.800000
   4 F    1.800000


 BAS: List of all Elementary Cartesian Basis Functions
 =====================================================

 The numbering in the list below (to the right of the function characteristics) is referred
 to in print-outs of MO eigenvectors and Mulliken populations in the BAS representation
 (as contrasted to the SFO representation).

 Notes:
 1. The functions are characterized by a polynomial prefactor (powers of x,y,z and r) and
    an exponential decay factor alpha.
 2. Since the basis sets are specific for an atom TYPE, the individual functions occur on
    all atoms of that type.
 3. The word 'Core' in the left margin signals that it is a Core Function (CF) : not a
    degree of freedom in the valence set, but only used to ensure orthogonalization of
    the other valence basis functions on the frozen Core Orbitals.


 (power of) X  Y  Z  R     Alpha  on Atom
            ==========     =====     ==========

 Br                                   1
                                  ---------------------------------------------------------------------------
            0  0  0  0    41.300      1
            0  0  0  0    32.800      2
            0  0  0  1    13.900      3
            1  0  0  0    19.450      4
            0  1  0  0    19.450      5
            0  0  1  0    19.450      6
            1  0  0  0    13.100      7
            0  1  0  0    13.100      8
            0  0  1  0    13.100      9
            0  0  0  2     7.200     10
            0  0  0  2     4.950     11
            1  0  0  1     7.900     12
            0  1  0  1     7.900     13
            0  0  1  1     7.900     14
            1  0  0  1     5.050     15
            0  1  0  1     5.050     16
            0  0  1  1     5.050     17
            2  0  0  0    10.900     18
            1  1  0  0    10.900     19
            1  0  1  0    10.900     20
            0  2  0  0    10.900     21
            0  1  1  0    10.900     22
            0  0  2  0    10.900     23
            2  0  0  0     6.050     24
            1  1  0  0     6.050     25
            1  0  1  0     6.050     26
            0  2  0  0     6.050     27
            0  1  1  0     6.050     28
            0  0  2  0     6.050     29
            2  0  0  0     3.500     30
            1  1  0  0     3.500     31
            1  0  1  0     3.500     32
            0  2  0  0     3.500     33
            0  1  1  0     3.500     34
            0  0  2  0     3.500     35
            0  0  0  3     4.500     36
            0  0  0  3     2.800     37
            0  0  0  3     1.800     38
            1  0  0  2     3.250     39
            0  1  0  2     3.250     40
            0  0  1  2     3.250     41
            1  0  0  2     1.950     42
            0  1  0  2     1.950     43
            0  0  1  2     1.950     44
            1  0  0  2     1.200     45
            0  1  0  2     1.200     46
            0  0  1  2     1.200     47
            2  0  0  1     1.800     48
            1  1  0  1     1.800     49
            1  0  1  1     1.800     50
            0  2  0  1     1.800     51
            0  1  1  1     1.800     52
            0  0  2  1     1.800     53
            3  0  0  0     1.800     54
            2  1  0  0     1.800     55
            2  0  1  0     1.800     56
            1  2  0  0     1.800     57
            1  1  1  0     1.800     58
            1  0  2  0     1.800     59
            0  3  0  0     1.800     60
            0  2  1  0     1.800     61
            0  1  2  0     1.800     62
            0  0  3  0     1.800     63

 F                                    2
                                  ---------------------------------------------------------------------------
            0  0  0  0    10.880     64
            0  0  0  0     7.700     65
            0  0  0  1     3.240     66
            0  0  0  1     1.940     67
            0  0  0  1     0.740     68
            1  0  0  0     4.540     69
            0  1  0  0     4.540     70
            0  0  1  0     4.540     71
            1  0  0  0     2.300     72
            0  1  0  0     2.300     73
            0  0  1  0     2.300     74
            1  0  0  0     1.240     75
            0  1  0  0     1.240     76
            0  0  1  0     1.240     77
            2  0  0  0     2.000     78
            1  1  0  0     2.000     79
            1  0  1  0     2.000     80
            0  2  0  0     2.000     81
            0  1  1  0     2.000     82
            0  0  2  0     2.000     83
            3  0  0  0     3.000     84
            2  1  0  0     3.000     85
            2  0  1  0     3.000     86
            1  2  0  0     3.000     87
            1  1  1  0     3.000     88
            1  0  2  0     3.000     89
            0  3  0  0     3.000     90
            0  2  1  0     3.000     91
            0  1  2  0     3.000     92
            0  0  3  0     3.000     93

 Br                                   3
                                  ---------------------------------------------------------------------------
            0  0  0  0    41.300     94
            0  0  0  0    32.800     95
            0  0  0  1    13.900     96
            1  0  0  0    19.450     97
            0  1  0  0    19.450     98
            0  0  1  0    19.450     99
            1  0  0  0    13.100    100
            0  1  0  0    13.100    101
            0  0  1  0    13.100    102
            0  0  0  2     7.200    103
            0  0  0  2     4.950    104
            1  0  0  1     7.900    105
            0  1  0  1     7.900    106
            0  0  1  1     7.900    107
            1  0  0  1     5.050    108
            0  1  0  1     5.050    109
            0  0  1  1     5.050    110
            2  0  0  0    10.900    111
            1  1  0  0    10.900    112
            1  0  1  0    10.900    113
            0  2  0  0    10.900    114
            0  1  1  0    10.900    115
            0  0  2  0    10.900    116
            2  0  0  0     6.050    117
            1  1  0  0     6.050    118
            1  0  1  0     6.050    119
            0  2  0  0     6.050    120
            0  1  1  0     6.050    121
            0  0  2  0     6.050    122
            2  0  0  0     3.500    123
            1  1  0  0     3.500    124
            1  0  1  0     3.500    125
            0  2  0  0     3.500    126
            0  1  1  0     3.500    127
            0  0  2  0     3.500    128
            0  0  0  3     4.500    129
            0  0  0  3     2.800    130
            0  0  0  3     1.800    131
            1  0  0  2     3.250    132
            0  1  0  2     3.250    133
            0  0  1  2     3.250    134
            1  0  0  2     1.950    135
            0  1  0  2     1.950    136
            0  0  1  2     1.950    137
            1  0  0  2     1.200    138
            0  1  0  2     1.200    139
            0  0  1  2     1.200    140
            2  0  0  1     1.800    141
            1  1  0  1     1.800    142
            1  0  1  1     1.800    143
            0  2  0  1     1.800    144
            0  1  1  1     1.800    145
            0  0  2  1     1.800    146
            3  0  0  0     1.800    147
            2  1  0  0     1.800    148
            2  0  1  0     1.800    149
            1  2  0  0     1.800    150
            1  1  1  0     1.800    151
            1  0  2  0     1.800    152
            0  3  0  0     1.800    153
            0  2  1  0     1.800    154
            0  1  2  0     1.800    155
            0  0  3  0     1.800    156

 Total number of charge fitting functions (nprimf)       425
 Total number of Cartesian basis functions (naos)        156
 Total number of Cartesian core functions  (ncos)          0

1
 ***************************************************************************************************



                                              ***********************
                                              *  T E C H N I C A L  *
                                              ***********************
  



 =============================================================
 P A R A L L E L I Z A T I O N  and  V E C T O R I Z A T I O N
 =============================================================
  
 Nr of parallel processes:                               12
 Maximum vector length in NumInt loops:                 128

 IO buffersize (Mb):                                     64.000000



 =====================
 S C F   U P D A T E S
 =====================
  
 Max. nr. of cycles:                               250
 Convergence criterion:                              0.0000010000
   secondary criterion:                              0.0010000000

 Mix parameter (when DIIS does not apply):           0.2000000000
 Mixed ADIIS+DIIS will be used
    Max number of expansion vectors:                10
    Pure ADIIS when Max([F,P]) is above              0.1000000000
    Pure DIIS when Max([F,P]) is below               0.0010000000
 Automatic ElectronSmearing (in case of problematic SCF convergence) disabled



 =================
 P R E C I S I O N  ***  (General: NumInt, NeglectFunctionTails, ...)  ***
 =================
  

 NumInt:           Target precision:                 6.0000000000
 -------           Initial precision:                6.0000000000
                   Min. precision (optimization):    6.0000000000

 Neglect Functions:          Basis functions:        0.1000000000E-07
 ------------------          Fit functions:          0.1000000000E-07



 ===========================
 L I N E A R   S C A L I N G
 ===========================
  

 Cut-off radii density fit:                        0.1000000000E-09
 Overlap cut-off criterion AO matrix elements:     0.1000000000E-07
 Cut-offs for Coulomb potential and fitted density:0.1000000000E-09
 Cut-off criterion for Coulomb multipole terms:    0.1000000000E-09
 Progressive Convergence parameter:                 0.000000000    
1
 ***************************************************************************************************



                                            ***************************
                                            *  C O M P U T A T I O N  *
                                            ***************************
  

 Number of elements of the density matrix on this node (used, total):      2016     12246



 ===========================================
 Numerical Integration : Fuzzy Cells (Becke)
 ===========================================
  
 Becke grid quality: GOOD           
  
 Lebedev angular grid order:             min:  11 max:  31
 Nr. of radial points:                   min:  65 max:  90

 Total nr. of points:      52930
 Nr. of blocks:              414
 Block length:               128
 Nr. of dummy points:         62


 Test of Precision of the Numerical Integration Grid
 ===================================================

 Integral of the Total Core Density:                   0.00000000000000



 ========================
 Density Fitting (zlmFit)
 ========================
  
 ZlmFit Fit Quality: NORMAL         
  
 Max L-expansion:                        min:   7 max:   7
 Nr. of radial interpolation points:     min:  51 max:  72



 =====
 S C F  ***  ScaSCF  ***
 =====
  
 Initial density matrix is calculated as sum of fragments

 CYCLE    1
 SCF Error: norm([F,P])=      1.730781799318, max([F,P])=      1.072896578504
 orbitals (Q,E):
 ---------------
 A :31...50          ( 2.00    -0.5753)  ( 2.00    -0.4407)  ( 2.00    -0.3072)  ( 2.00    -0.2558)
                     ( 2.00    -0.2558)  ( 2.00    -0.1308)  ( 2.00    -0.1308)  ( 2.00    -0.1149)
                     ( 2.00    -0.0256)  ( 2.00    -0.0256)  ( 0.00     0.0310)  ( 0.00     0.1532)
                     ( 0.00     0.2886)  ( 0.00     0.2886)  ( 0.00     0.2912)  ( 0.00     0.3294)
                     ( 0.00     0.3464)  ( 0.00     0.3464)  ( 0.00     0.3795)  ( 0.00     0.3795)

 CYCLE    2
  SDIIS (wt  0.000):  0.2501  0.7499
 A-DIIS (wt  1.000):  0.9435  0.0565
  DIIS coefficients:  0.9435  0.0565
 SCF Error: norm([F,P])=      0.980827688407, max([F,P])=      0.456849082350
 orbitals (Q,E):
 ---------------
 A :31...41          ( 2.00    -0.5628)  ( 2.00    -0.4563)  ( 2.00    -0.2829)  ( 2.00    -0.2266)
                     ( 2.00    -0.2266)  ( 2.00    -0.1203)  ( 2.00    -0.1203)  ( 2.00    -0.1105)
                     ( 2.00    -0.0393)  ( 2.00    -0.0393)  ( 0.00     0.0270)

 CYCLE    3
  SDIIS (wt  0.000):  0.0594 -2.0000  2.9406
 A-DIIS (wt  1.000):  0.9225  0.0000  0.0775
  DIIS coefficients:  0.9225  0.0000  0.0775
 SCF Error: norm([F,P])=      0.737399060844, max([F,P])=      0.357483343757
 orbitals (Q,E):
 ---------------
 A :31...41          ( 2.00    -0.5623)  ( 2.00    -0.4576)  ( 2.00    -0.2798)  ( 2.00    -0.2228)
                     ( 2.00    -0.2228)  ( 2.00    -0.1197)  ( 2.00    -0.1197)  ( 2.00    -0.1102)
                     ( 2.00    -0.0406)  ( 2.00    -0.0406)  ( 0.00     0.0267)

 CYCLE    4
  SDIIS (wt  0.000): -2.0000  0.0000  3.0000
 A-DIIS (wt  1.000):  0.0000  0.0000  1.0000
  DIIS coefficients:  0.0000  0.0000  1.0000
 SCF Error: norm([F,P])=      0.712612559065, max([F,P])=      0.347441646157
 orbitals (Q,E):
 ---------------
 A :31...41          ( 2.00    -0.5018)  ( 2.00    -0.4246)  ( 2.00    -0.2624)  ( 2.00    -0.2477)
                     ( 2.00    -0.2477)  ( 2.00    -0.0157)  ( 2.00    -0.0157)  ( 2.00     0.0019)
                     ( 2.00     0.1608)  ( 2.00     0.1740)  ( 0.00     0.1740)

 CYCLE    5
  SDIIS (wt  0.000): -1.9528 -0.0850  3.0000  0.0378
 A-DIIS (wt  1.000):  0.0000  0.0000  0.9386  0.0614
  DIIS coefficients:  0.0000  0.0000  0.9386  0.0614
 SCF Error: norm([F,P])=      3.781410728985, max([F,P])=      1.413271829442
 orbitals (Q,E):
 ---------------
 A :31...41          ( 2.00    -0.6383)  ( 2.00    -0.4414)  ( 2.00    -0.2252)  ( 2.00    -0.1985)
                     ( 2.00    -0.1985)  ( 2.00    -0.0558)  ( 2.00    -0.0386)  ( 2.00    -0.0380)
                     ( 2.00     0.0383)  ( 2.00     0.0398)  ( 0.00     0.1178)

 CYCLE    6
  SDIIS (wt  0.000): -1.2124 -0.9618  3.0000 -0.0092  0.1834
 A-DIIS (wt  1.000):  0.0000  0.0000  0.6734  0.0000  0.3266
  DIIS coefficients:  0.0000  0.0000  0.6734  0.0000  0.3266
 SCF Error: norm([F,P])=      1.453472628866, max([F,P])=      0.549748336155
 orbitals (Q,E):
 ---------------
 A :31...41          ( 2.00    -0.5388)  ( 2.00    -0.4695)  ( 2.00    -0.1941)  ( 2.00    -0.1221)
                     ( 2.00    -0.1220)  ( 2.00    -0.1084)  ( 2.00    -0.1080)  ( 2.00    -0.1080)
                     ( 2.00    -0.0395)  ( 2.00    -0.0395)  ( 0.00     0.0597)

 CYCLE    7
  SDIIS (wt  0.000): -0.4232 -2.0000  2.9300  0.0004  0.0957  0.3970
 A-DIIS (wt  1.000):  0.0000  0.0000  0.2267  0.0000  0.0000  0.7733
  DIIS coefficients:  0.0000  0.0000  0.2267  0.0000  0.0000  0.7733
 SCF Error: norm([F,P])=      0.299689221084, max([F,P])=      0.118315818598
 orbitals (Q,E):
 ---------------
 A :31...41          ( 2.00    -0.5722)  ( 2.00    -0.4791)  ( 2.00    -0.2169)  ( 2.00    -0.1530)
                     ( 2.00    -0.1530)  ( 2.00    -0.0840)  ( 2.00    -0.0818)  ( 2.00    -0.0818)
                     ( 2.00    -0.0580)  ( 2.00    -0.0580)  ( 0.00     0.0321)

 CYCLE    8
  SDIIS (wt  0.000): -0.4733  2.6947 -2.0000  0.0001 -0.0304  0.5112  0.2977
 A-DIIS (wt  1.000):  0.0000  0.0000  0.1403  0.0000  0.0000  0.5739  0.2858
  DIIS coefficients:  0.0000  0.0000  0.1403  0.0000  0.0000  0.5739  0.2858
 SCF Error: norm([F,P])=      0.549819751531, max([F,P])=      0.207890223660
 orbitals (Q,E):
 ---------------
 A :31...41          ( 2.00    -0.5425)  ( 2.00    -0.4778)  ( 2.00    -0.2266)  ( 2.00    -0.1588)
                     ( 2.00    -0.1588)  ( 2.00    -0.1016)  ( 2.00    -0.1002)  ( 2.00    -0.1002)
                     ( 2.00    -0.0591)  ( 2.00    -0.0591)  ( 0.00     0.0329)

 CYCLE    9
  SDIIS (wt  0.101): -0.2666  2.2435 -2.0000 -0.0007 -0.0009  0.2960  0.2120  0.5166
 A-DIIS (wt  0.899):  0.0000  0.0000  0.0000  0.0000  0.0000  0.2851  0.1142  0.6007
  DIIS coefficients: -0.0269  0.2264 -0.2018 -0.0001 -0.0001  0.2862  0.1241  0.5922
 SCF Error: norm([F,P])=      0.229600057919, max([F,P])=      0.090009475141
 orbitals (Q,E):
 ---------------
 A :31...41          ( 2.00    -0.5417)  ( 2.00    -0.4906)  ( 2.00    -0.2045)  ( 2.00    -0.1303)
                     ( 2.00    -0.1303)  ( 2.00    -0.0968)  ( 2.00    -0.0941)  ( 2.00    -0.0941)
                     ( 2.00    -0.0577)  ( 2.00    -0.0577)  ( 0.00     0.0421)

 CYCLE   10
  SDIIS (wt  0.000):  0.0621 -1.9185  1.9020 -0.0000 -0.0186  0.1319 -0.0218  0.4266  0.4362
 A-DIIS (wt  1.000):  0.0000  0.0000  0.0000  0.0000  0.0000  0.0000  0.0000  0.5172  0.4828
  DIIS coefficients:  0.0000  0.0000  0.0000  0.0000  0.0000  0.0000  0.0000  0.5172  0.4828
 SCF Error: norm([F,P])=      0.277869551806, max([F,P])=      0.103775015942
 orbitals (Q,E):
 ---------------
 A :31...41          ( 2.00    -0.5327)  ( 2.00    -0.4841)  ( 2.00    -0.2116)  ( 2.00    -0.1407)
                     ( 2.00    -0.1407)  ( 2.00    -0.1037)  ( 2.00    -0.0981)  ( 2.00    -0.0981)
                     ( 2.00    -0.0576)  ( 2.00    -0.0576)  ( 0.00     0.0417)

 CYCLE   11
  SDIIS (wt  0.660):  0.0820 -1.9476  1.9193  0.0000 -0.0098 -0.0046  0.0270  0.2057  0.2806  0.4473
 A-DIIS (wt  0.340):  0.0000  0.0000  0.0000  0.0000  0.0000  0.0000  0.0000  0.2451  0.2365  0.5184
  DIIS coefficients:  0.0541 -1.2854  1.2667  0.0000 -0.0065 -0.0031  0.0178  0.2191  0.2656  0.4715
 SCF Error: norm([F,P])=      0.111875761735, max([F,P])=      0.034662334300
 orbitals (Q,E):
 ---------------
 A :31...41          ( 2.00    -0.5399)  ( 2.00    -0.4842)  ( 2.00    -0.2133)  ( 2.00    -0.1412)
                     ( 2.00    -0.1412)  ( 2.00    -0.0991)  ( 2.00    -0.0959)  ( 2.00    -0.0959)
                     ( 2.00    -0.0605)  ( 2.00    -0.0605)  ( 0.00     0.0375)

 CYCLE   12
  SDIIS (wt  0.913): -0.1883  0.1885 -0.0001 -0.0035 -0.0048 -0.0141  0.1354  0.1386  0.2069  0.5414
 A-DIIS (wt  0.087):  0.0000  0.0000  0.0000  0.0000  0.0000  0.0000  0.0000  0.0000  0.0724  0.9276
  DIIS coefficients: -0.1718  0.1720 -0.0001 -0.0032 -0.0044 -0.0128  0.1235  0.1264  0.1951  0.5751
 SCF Error: norm([F,P])=      0.032481346452, max([F,P])=      0.009657620473
 orbitals (Q,E):
 ---------------
 A :31...41          ( 2.00    -0.5383)  ( 2.00    -0.4848)  ( 2.00    -0.2134)  ( 2.00    -0.1414)
                     ( 2.00    -0.1414)  ( 2.00    -0.1004)  ( 2.00    -0.0966)  ( 2.00    -0.0966)
                     ( 2.00    -0.0604)  ( 2.00    -0.0604)  ( 0.00     0.0379)

 CYCLE   13
  SDIIS (wt  0.997): -0.0018 -0.0000 -0.0007 -0.0042 -0.0082  0.0255  0.0328  0.0570  0.2787  0.6210
 A-DIIS (wt  0.003):  0.0000  0.0000  0.0000  0.0000  0.0000  0.0000  0.0000  0.0000  0.0000  1.0000
  DIIS coefficients: -0.0018 -0.0000 -0.0007 -0.0042 -0.0081  0.0254  0.0327  0.0568  0.2780  0.6220
 SCF Error: norm([F,P])=      0.004199707582, max([F,P])=      0.001262237872
 orbitals (Q,E):
 ---------------
 A :31...41          ( 2.00    -0.5384)  ( 2.00    -0.4847)  ( 2.00    -0.2133)  ( 2.00    -0.1413)
                     ( 2.00    -0.1413)  ( 2.00    -0.1002)  ( 2.00    -0.0964)  ( 2.00    -0.0964)
                     ( 2.00    -0.0604)  ( 2.00    -0.0604)  ( 0.00     0.0380)

 CYCLE   14
  SDIIS (wt  1.000):  0.0000 -0.0001  0.0002 -0.0008  0.0009  0.0024  0.0064  0.0560  0.2776  0.6572
  DIIS coefficients:  0.0000 -0.0001  0.0002 -0.0008  0.0009  0.0024  0.0064  0.0560  0.2776  0.6572
 SCF Error: norm([F,P])=      0.000455202729, max([F,P])=      0.000108157418
 orbitals (Q,E):
 ---------------
 A :31...41          ( 2.00    -0.5384)  ( 2.00    -0.4847)  ( 2.00    -0.2133)  ( 2.00    -0.1413)
                     ( 2.00    -0.1413)  ( 2.00    -0.1002)  ( 2.00    -0.0964)  ( 2.00    -0.0964)
                     ( 2.00    -0.0604)  ( 2.00    -0.0604)  ( 0.00     0.0380)

 CYCLE   15
  SDIIS (wt  1.000):  0.0000 -0.0000 -0.0000 -0.0000 -0.0000  0.0013  0.0099  0.0569  0.1347  0.7973
  DIIS coefficients:  0.0000 -0.0000 -0.0000 -0.0000 -0.0000  0.0013  0.0099  0.0569  0.1347  0.7973
 SCF Error: norm([F,P])=      0.000069276439, max([F,P])=      0.000021517335
 orbitals (Q,E):
 ---------------
 A :31...41          ( 2.00    -0.5384)  ( 2.00    -0.4847)  ( 2.00    -0.2133)  ( 2.00    -0.1413)
                     ( 2.00    -0.1413)  ( 2.00    -0.1002)  ( 2.00    -0.0964)  ( 2.00    -0.0964)
                     ( 2.00    -0.0604)  ( 2.00    -0.0604)  ( 0.00     0.0380)

 CYCLE   16
  SDIIS (wt  1.000): -0.0000 -0.0000  0.0000  0.0000  0.0002  0.0017  0.0090  0.0228  0.1723  0.7940
  DIIS coefficients: -0.0000 -0.0000  0.0000  0.0000  0.0002  0.0017  0.0090  0.0228  0.1723  0.7940
 SCF Error: norm([F,P])=      0.000003748892, max([F,P])=      0.000001447523
 orbitals (Q,E):
 ---------------
 A :31...41          ( 2.00    -0.5384)  ( 2.00    -0.4847)  ( 2.00    -0.2133)  ( 2.00    -0.1413)
                     ( 2.00    -0.1413)  ( 2.00    -0.1002)  ( 2.00    -0.0964)  ( 2.00    -0.0964)
                     ( 2.00    -0.0604)  ( 2.00    -0.0604)  ( 0.00     0.0380)

 CYCLE   17
  SDIIS (wt  1.000): -0.0000  0.0000 -0.0000  0.0000  0.0003  0.0017  0.0041  0.0420  0.2728  0.6791
  DIIS coefficients: -0.0000  0.0000 -0.0000  0.0000  0.0003  0.0017  0.0041  0.0420  0.2728  0.6791
 SCF Error: norm([F,P])=      0.000001715062, max([F,P])=      0.000000664230
 orbitals (Q,E):
 ---------------
 A :31...41          ( 2.00    -0.5384)  ( 2.00    -0.4847)  ( 2.00    -0.2133)  ( 2.00    -0.1413)
                     ( 2.00    -0.1413)  ( 2.00    -0.1002)  ( 2.00    -0.0964)  ( 2.00    -0.0964)
                     ( 2.00    -0.0604)  ( 2.00    -0.0604)  ( 0.00     0.0380)

 SCF CONVERGED

 CYCLE   18
1
 ***************************************************************************************************



                                                *******************
                                                *  R E S U L T S  *
                                                *******************
  
 *** Setting up for NEW gradients in Focky
 *** Using FIT density in Focky

 Orbital Energies, per Irrep and Spin:
 ======================================
                        Occup              E (au)              E (eV)       Diff (eV) with prev. cycle
                        -----      --------------------        ------       --------------------------
 A
              31        2.000     -0.53840281513608E+00       -14.651               2.13E-07
              32        2.000     -0.48471487378996E+00       -13.190               1.63E-07
              33        2.000     -0.21329604211620E+00        -5.804               8.71E-07
              34        2.000     -0.14126988920415E+00        -3.844               9.96E-07
              35        2.000     -0.14126839242863E+00        -3.844               9.93E-07
              36        2.000     -0.10023987730833E+00        -2.728               4.03E-07
              37        2.000     -0.96446792256218E-01        -2.624               2.79E-07
              38        2.000     -0.96445771908694E-01        -2.624               2.77E-07
              39        2.000     -0.60381224081456E-01        -1.643               2.79E-07
              40        2.000     -0.60379863301674E-01        -1.643               2.80E-07
              41        0.000      0.37997324835991E-01         1.034
              42        0.000      0.19488290417491E+00         5.303
              43        0.000      0.26428004248924E+00         7.191
              44        0.000      0.29165463718052E+00         7.936
              45        0.000      0.29165907563521E+00         7.936
              46        0.000      0.32682759830663E+00         8.893
              47        0.000      0.33628162716074E+00         9.151
              48        0.000      0.33628944265169E+00         9.151
              49        0.000      0.38466280414159E+00        10.467
              50        0.000      0.38466958130344E+00        10.467
  
 HOMO :       40 A                -0.60379863301674E-01
 LUMO :       41 A                 0.37997324835991E-01
  


 All Electron Calculation, thus no Orbital Energies of the Core Orbitals are calculated


 Fit test: (difference of exact and fit density, squared integrated, result summed over spins)
         Sum-of-Fragments:                             0.00155363999885
         Orthogonalized Fragments:                     0.00155507443778
         SCF:                                          0.00155794069533



 ==========================
 Electron Density at Nuclei
 ==========================
  
 The electron density is calculated at points on a small sphere around the center of a nucleus.
 The printed electron density is the average electron density on these points.
 The radius of the sphere is the printed approximate finite nuclear radius.

         Atom        Nuclear Radius (Angstrom)             Electron Density (a.u.)
         ----        -------------------------             -----------------------
     1)   Br                0.0000536685                            29315.56138
     2)   F                 0.0000361580                              447.50356
     3)   Br                0.0000536685                            29313.09823



 =======================================
 M U L L I K E N   P O P U L A T I O N S
 =======================================
  
 The survey below gives for each atom:
 a) the total charge (Z minus electrons)
 b) the net spin polarization (nr of electrons spin-A minus spin-B)
 c) for each spin the atomic electron valence density (integrated) per L-value.

 Atom              Charge    Spin density          S         P         D         F
 ----              ------    ------------       ------    ------    ------    ------
 1 Br              0.0149                       7.9943   16.8222   10.1438    0.0248
 2 F              -0.5026                       3.9877    5.5024    0.0115    0.0010
 3 Br             -0.5123                       7.9872   17.4856   10.0322    0.0073

 Populations of individual BAS functions
 ----------------------------------------
 1 Br           0.3611  1.5681  2.0733  0.7130  0.7125  0.7134  1.2651  1.2660  1.2643  1.4380
                0.5905  1.1350  1.1244  1.1428  0.8935  0.9029  0.8867  0.2678  0.4018  0.4019
                0.2676  0.4017  0.2681  0.7772  1.1654  1.1662  0.7758  1.1655  0.7784  0.2883
                0.4348  0.4321  0.2936  0.4333  0.2848  0.2894  1.2631  0.4109  0.5520  0.4069
                0.6579  0.9035  0.6937  1.0565  0.1872  0.0786  0.2664  0.0108  0.0565  0.0084
                0.0410  0.0200  0.0028 -0.0022  0.0045  0.0015  0.0140  0.0041 -0.0048  0.0136
                0.0097 -0.0081 -0.0073
 2 F            0.5758  1.4009  1.0895  0.9031  0.0184  0.3811  0.3432  0.4088  0.9310  0.8742
                0.9725  0.5370  0.4656  0.5890  0.0004  0.0043  0.0008  0.0091  0.0018 -0.0051
               -0.0007 -0.0008  0.0006  0.0033  0.0001 -0.0022  0.0046  0.0033 -0.0034 -0.0038
 3 Br           0.3611  1.5681  2.0732  0.7130  0.7128  0.7132  1.2649  1.2653  1.2646  1.4356
                0.5997  1.1368  1.1326  1.1399  0.8917  0.8956  0.8889  0.2677  0.4014  0.4016
                0.2677  0.4015  0.2676  0.7768  1.1646  1.1654  0.7755  1.1650  0.7777  0.2887
                0.4340  0.4330  0.2912  0.4335  0.2870  0.2658  1.2077  0.4760  0.5819  0.5209
                0.6264  0.9501  0.8695  1.0089  0.3079  0.2526  0.3482  0.0033  0.0095  0.0030
                0.0152  0.0069 -0.0056 -0.0018  0.0000  0.0013  0.0086  0.0011 -0.0045  0.0101
                0.0071 -0.0073 -0.0074

 Gross Charges per Atom (Z minus electrons)
 ==========================================
             0.0149   -0.5026   -0.5123
 Net Total: -1.00000000


 Atom-Atom Population Matrix (off-diagonal elements not doubled)
 ===============================================================

     1 :    34.8892
     2 :     0.0692    9.4323
     3 :     0.0267    0.0011   35.4844


 Frag-Frag Population Matrix (off-diagonal elements not doubled)
 ===============================================================

     1 :    44.4599
     2 :     0.0279   35.4844



 =================================================
 H I R S H F E L D   C H A R G E   A N A L Y S I S
 =================================================
  
 For each fragment: the (numerical) integral of rho(scf) * rho(fragment)/rho(sum-of-fragments)
 (nuclear charges are included, electrons are counted negative)

 The fragments and their ordering are defined in the early G E O M E T R Y output section.
 If you use single-atom fragments, this usually implies that all atoms of the same
 chemical type are grouped together. This may not be the order in which you listed them
 in the input file!

    1  BrF                      -0.3551
    2  Br                       -0.6449

 Sum of these charges (accuracy NumInt/Tails) =          -0.99998798



 =============================
 V O R O N O I   C H A R G E S
 =============================
  
 For each atom: the (numerical) integral of the total electronic charge density in its Voronoi cell,
 i.e. the region of space that is closer to that atom than to any other atom.
 (cf. Wigner-Seitz cells in crystals)

 Within the Voronoi cell the subintegrals over the atomic sphere and the remaining part are evaluated
 separately to give the numbers of electrons (negative charge) in these regions.
 The net total charge in the cell (including the nuclear charge) is also given.

 Values are provided for
    a) the Initial (sum-of-fragments) density
    b) the Orthogonalized-Fragments density
    c) the SCF density
    d) the Voronoi Deformation Density (VDD): the difference SCF-Initial for the complete atomic cell
 ---------------------------------------------------------------------------------------------------
 Total NetCharge:              -1.000                     -1.000                     -1.000    0.000
 (accuracy NumInt/Tails)

 Remark: the 'NetTotal' Voronoi charges often do not match the Mulliken and/or Hirshfeld charges very
 well. This is caused by the fact that chemically different atoms are not treated in accordance with
 their relative sizes. (Voronoi cells are defined by boundary planes halfway between the atoms.)
 However, the CHANGES in charge, comparing 'Initial' to 'SCF' for instance, do give a fair indication
 of the flow of charge caused by the relaxation from sum-of-fragments to self-consistency.

 Warning: the absolute accuracy of the VDD charges obtained using the Fuzzy Cells (Becke) integration
 scheme is much poorer than the one obtained with an 'equivalent' Voronoi integration grid. 



 =================================================================
 M U L T I P O L E   D E R I V E D   C H A R G E   A N A L Y S I S
 =================================================================

 This charge analysis uses the atomic multipoles (obtained from the fitted density) up to some level X,
 and reconstructs these multipoles exactly (up to level X) by distributing charges over all atoms.
 This is achieved by using Lagrange multipliers and a weight function to keep the multipoles local.

 Dummy atoms can be included (by setting INCDUM in MDC-block to 1) to obtain a fractional charge.
 This is generally useful and necessary only for small symmetrical molecules, when there are not
 enough degrees of freedom to reconstruct the multipoles.

 Since the atomic multipoles are reconstructed up to level X,
 the molecular multipoles are represented also up to level X.
 The recommended level is to reconstruct up to quadrupole : -> MDC-q charges.

 See: M. Swart, P.Th. van Duijnen, J.G. Snijders, J.Comput.Chem., (2001), p. 79-88.

 ------------------------------------------------------------- 
 Atomic electronic multipole moments from SCF equations (a.u.)
 ------------------------------------------------------------- 

   atom        charge        dip-x     dip-y     dip-z      quad-xx   quad-xy   quad-xz   quad-yy   quad-yz   quad-zz
 --------------------------------------------------------------------------------------------------------------------
    1 Br     0.272804     0.494235 -0.761086 -0.005854    -0.183028 -1.519395 -0.011678  1.845985  0.017984 -1.662958
    2 F     -0.810576     0.254088 -0.391219 -0.003003    -0.001348 -0.010756 -0.000075  0.013087  0.000119 -0.011739
    3 Br    -0.462228     0.148008 -0.227822 -0.001751    -0.090238 -0.750097 -0.005763  0.911107  0.008888 -0.820869

 --------------------------------------- 
 Multipole derived atomic charges (a.u.)
 --------------------------------------- 

 The MDC-m charges are just the Monopole terms in the multipole expansion, while for the MDC-d charges
 also the Dipoles are reconstructed. The usually preferred charges are the MDC-q charges.
 These reconstruct the Monopoles, Dipoles and Quadrupoles (both atomic AND molecular).

        Atom    Level:     MDC-m        MDC-d        MDC-q
 ---------------------------------------------------------
     1     Br           0.272804     0.123710     0.004747
     2     F           -0.810576    -0.541104    -0.473967
     3     Br          -0.462228    -0.582606    -0.530780

 ------------------------------------------------ 
 Average absolute deviations in atomic multipoles
 ------------------------------------------------ 

 Stated here are the average differences between the atomic multipoles
 and the reconstructed atomic multipoles (from the distributed charges).
 If these values are not zero, this means there are not enough degrees of freedom,
 to be able to reconstruct the atomic multipoles. (This usually happens only
 for small and/or highly symmetric molecules). If this is the case, one could add
 dummy atoms as extra point charges (and setting INCDUM in MDC-block to 1).

 Level:                                 MDC-d        MDC-q
 ---------------------------------------------------------
 Charge   (a.u.)                       0.0000       0.0000
 Dipole   (Debye)                      0.0000       0.0000
 Quad.    (a.u.)                       0.4488       0.1877

 --------------------------------------- 
 Represented molecular multipole moments
 --------------------------------------- 

 Given here are the Molecular multipole moments from the atomic charges, and from the Fit Density.
 Note that the atomic charges represent the latter, NOT the ones from the Exact density.

            Q (a.u.)             Dipole moment (Debye)                                          Quadrupole moment (a.u.)
                                 x         y         z              xx        xy        xz        yy        yz        zz
------------------------------------------------------------------------------------------------------------------------
MDC-m        -1.0000       21.9949  -12.3297    0.2393        -61.8420   78.7691   -1.1007    1.1123    0.4980   60.7297
MDC-d        -1.0000       24.2730  -15.8377    0.2124        -70.5670  104.3613   -1.0807   -5.4591    0.6020   76.0261
MDC-q        -1.0000       24.2730  -15.8377    0.2124        -70.6940  102.7812   -1.0928   -4.1791    0.6207   74.8732
 
Fit.Dens.    -1.0000       24.2731  -15.8376    0.2124        -70.8361  102.1655   -1.0976   -2.7563    0.6280   73.5924



 =============
 Dipole Moment  ***  (Debye)  ***
 =============
  
 Vector   :        24.28260947    -15.85228611      0.21226293
 Magnitude:        28.99974402

 This molecular dipole moment is calculated with analytic integration
 ************************************************************************************
 Since the molecule is NOT NEUTRAL, the dipole moment depends on the choice of origin
 ************************************************************************************



 =========================================
 Quadrupole Moment (Buckingham convention)  ***  (a.u.)  ***
 =========================================
  
      quad-xx        quad-xy        quad-xz        quad-yy        quad-yz        quad-zz
    -70.87250179   101.13178093    -1.10629353    -2.78326418     0.64196482    73.65576597

 This molecular quadrupole moment is calculated with analytic integration
1



                                             *************************
                                             *  SFO MO coefficients  *
                                             *************************
  


                                       === A ===
 MOs expanded in CFs+SFOs
 ========================

 The SFOs have been characterized in an earlier part of output.
 To deduce the bonding / antibonding nature of SFO combinations in an MO, consider the products
 of the coefficients AND THE OVERLAP between the SFOs (may be NEGATIVE). The SFO overlap matrix
 is printed later, in the SFO Populations section.

 (The CF coefficients are not printed)

 MOs :      1        2        3        4        5        6        7        8        9       10
 occup:   2.00     2.00     2.00     2.00     2.00     2.00     2.00     2.00     2.00     2.00
 CF+SFO
     1  -1.0000   0.0000  -0.0000   0.0000   0.0000  -0.0000  -0.0000   0.0000   0.0000  -0.0000
     2  -0.0000  -0.0000   1.0000  -0.0000  -0.0008  -0.0000   0.0000  -0.0000  -0.0000   0.0000
     3  -0.0000   0.0000  -0.0008   0.0000  -1.0000   0.0000   0.0000  -0.0000   0.0000  -0.0000
     4   0.0000  -0.0000  -0.0000  -0.0000  -0.0000  -1.0000   0.0006   0.0000  -0.0000   0.0000
     5  -0.0000   0.0000  -0.0000   0.0000   0.0000   0.0006   1.0000  -0.0000   0.0000   0.0000
     6   0.0000   0.0000   0.0000   0.0000   0.0000   0.0000   0.0000   0.0000   0.0000  -0.0000
     7   0.0000  -0.0000  -0.0001  -0.0000   0.0000   0.0000   0.0000  -0.0000  -0.0000   0.0000
     8  -0.0000  -0.0000   0.0000  -0.0000   0.0000   0.0000   0.0000   0.0000  -0.0000   0.0000
     9   0.0000   0.0000  -0.0000   0.0000  -0.0000   0.0000  -0.0000   0.0000  -0.0000  -0.0000
    10   0.0000   0.0000  -0.0000   0.0000  -0.0000  -0.0000  -0.0000   0.0000  -0.0000   0.0000
    11   0.0000   0.0000   0.0000  -0.0000  -0.0000  -0.0000  -0.0000   0.0000   0.0000  -0.0000
    12   0.0000   0.0000   0.0000  -0.0000   0.0000   0.0000  -0.0000  -0.0000   0.0000  -0.0000
    13  -0.0000  -0.0000  -0.0000   0.0000  -0.0000  -0.0000  -0.0000  -0.0000  -0.0000  -0.0000
    14  -0.0000  -0.0000  -0.0000   0.0000  -0.0000  -0.0000  -0.0000  -0.0000  -0.0000   0.0000
    15   0.0000   0.0000   0.0000  -0.0000   0.0000   0.0000   0.0000   0.0000  -0.0000   0.0000
    16   0.0000   0.0000  -0.0000   0.0000   0.0000   0.0000   0.0000   0.0000   0.0000  -0.0000
    17   0.0000   0.0000  -0.0000   0.0000   0.0000   0.0000   0.0000   0.0000   0.0000  -0.0000
    18  -0.0000  -0.0000   0.0000  -0.0000  -0.0000  -0.0000  -0.0000  -0.0000  -0.0000   0.0000
    19  -0.0000  -0.0000  -0.0000  -0.0000  -0.0000   0.0000  -0.0000  -0.0000   0.0000   0.0000
    20  -0.0000  -0.0000  -0.0000  -0.0000  -0.0000  -0.0000  -0.0000  -0.0000   0.0000  -0.0000
    21  -0.0000  -0.0000  -0.0000  -0.0000  -0.0000  -0.0000   0.0000  -0.0000   0.0000  -0.0000
    22   0.0000   0.0000   0.0000   0.0000   0.0000   0.0000   0.0000   0.0000  -0.0000  -0.0000
    23   0.0000   0.0000  -0.0000   0.0000   0.0000   0.0000   0.0000   0.0000   0.0000  -0.0000
    24  -0.0000  -0.0000  -0.0000  -0.0000   0.0000  -0.0000  -0.0000  -0.0000  -0.0000   0.0000
    25   0.0000   0.0000  -0.0000   0.0000  -0.0000   0.0000   0.0000   0.0000   0.0000  -0.0000
    26  -0.0000  -0.0000  -0.0000  -0.0000  -0.0000  -0.0000  -0.0000  -0.0000   0.0000   0.0000
    27  -0.0000  -0.0000   0.0000  -0.0000   0.0000   0.0000  -0.0000  -0.0000  -0.0000   0.0000
    28   0.0000  -0.0000  -0.0000  -0.0000   0.0000   0.0000   0.0000   0.0000  -0.0000  -0.0000
    29   0.0000  -0.0000  -0.0000  -0.0000   0.0000  -0.0000   0.0000   0.0000   0.0000  -0.0000
    30  -0.0000   0.0000   0.0000   0.0000  -0.0000   0.0000  -0.0000  -0.0000  -0.0000   0.0000
    31  -0.0000   0.0000   0.0000   0.0000  -0.0000   0.0000  -0.0000  -0.0000  -0.0000   0.0000
    32   0.0000  -0.0000  -0.0000  -0.0000   0.0000   0.0000  -0.0000   0.0000   0.0000   0.0000
    33   0.0000   0.0000  -0.0000  -0.0000   0.0000   0.0000  -0.0000   0.0000   0.0000  -0.0000
    34  -0.0000  -0.0000   0.0000   0.0000   0.0000   0.0000  -0.0000   0.0000  -0.0000   0.0000
    35   0.0000   0.0000  -0.0000  -0.0000  -0.0000  -0.0000  -0.0000   0.0000   0.0000   0.0000
    36   0.0000  -0.0000  -0.0000   0.0000  -0.0000  -0.0000   0.0000  -0.0000  -0.0000   0.0000
    37  -0.0000   0.0000  -0.0000  -0.0000  -0.0000  -0.0000  -0.0000  -0.0000   0.0000   0.0000
    38  -0.0000  -0.0000  -0.0000   0.0000  -0.0000   0.0000  -0.0000  -0.0000  -0.0000   0.0000
    39   0.0000   0.0000  -0.0000  -0.0000  -0.0000  -0.0000  -0.0000   0.0000  -0.0000  -0.0000
    40   0.0000   0.0000  -0.0000  -0.0000   0.0000   0.0000  -0.0000   0.0000   0.0000  -0.0000
    41   0.0000   0.0000  -0.0000  -0.0000  -0.0000   0.0000  -0.0000   0.0000   0.0000  -0.0000
    42   0.0000  -0.0000   0.0000   0.0000   0.0000  -0.0000  -0.0000  -0.0000  -0.0000  -0.0000
    43   0.0000   0.0000  -0.0000  -0.0000  -0.0000   0.0000   0.0000   0.0000   0.0000   0.0000
    44  -0.0000  -0.0000   0.0000   0.0000   0.0000   0.0000   0.0000  -0.0000   0.0000   0.0000
    45   0.0000   0.0000  -0.0000  -0.0000  -0.0000  -0.0000   0.0000   0.0000  -0.0000   0.0000
    46   0.0000   0.0000  -0.0000  -0.0000  -0.0000  -0.0000   0.0000   0.0000   0.0000   0.0000
    47  -0.0000  -0.0000   0.0000   0.0000   0.0000   0.0000   0.0000  -0.0000  -0.0000   0.0000
    48  -0.0000  -0.0000   0.0000   0.0000   0.0000  -0.0000   0.0000  -0.0000  -0.0000   0.0000
    49  -0.0000  -0.0000   0.0000  -0.0000   0.0000  -0.0000  -0.0000   0.0000  -0.0000  -0.0000
    50  -0.0000  -0.0000   0.0000  -0.0000   0.0000   0.0000   0.0000  -0.0000  -0.0000  -0.0000
    51   0.0000  -0.0000   0.0000  -0.0000   0.0000  -0.0000   0.0000  -0.0000  -0.0000  -0.0000
    52   0.0000  -0.0000  -0.0000   0.0000   0.0000  -0.0000  -0.0000  -0.0000  -0.0000  -0.0000
    53  -0.0000  -0.0000   0.0000  -0.0000  -0.0000  -0.0000   0.0000  -0.0000  -0.0000   0.0000
    54  -0.0000  -0.0000   0.0000  -0.0000  -0.0000  -0.0000  -0.0000  -0.0000   0.0000   0.0000
    55   0.0000   0.0000  -0.0000   0.0000   0.0000   0.0000   0.0000   0.0000  -0.0000   0.0000
    56   0.0000   0.0000   0.0000  -0.0000   0.0000   0.0000  -0.0000  -0.0000   0.0000  -0.0000
    57  -0.0000  -0.0000  -0.0000  -0.0000  -0.0000  -0.0000  -0.0000  -0.0000  -0.0000  -0.0000
    58   0.0000   0.0000  -0.0000  -0.0000  -0.0000   0.0000   0.0000   0.0000   0.0000  -0.0000
    59   0.0000  -0.0000  -0.0000  -0.0000   0.0000  -0.0000   0.0000   0.0000   0.0000   0.0000
    60   0.0000  -0.0000  -0.0000  -0.0000  -0.0000   0.0000   0.0000   0.0000   0.0000   0.0000
    61   0.0000   0.0000  -0.0000  -0.0000  -0.0000   0.0000  -0.0000   0.0000   0.0000   0.0000
    62  -0.0000  -0.0000  -0.0000   0.0000   0.0000  -0.0000  -0.0000  -0.0000  -0.0000   0.0000
    63  -0.0000  -0.0000   0.0000   0.0000   0.0000   0.0000  -0.0000  -0.0000   0.0000  -0.0000
    64   0.0000   0.0000  -0.0000  -0.0000  -0.0000  -0.0000  -0.0000   0.0000  -0.0000  -0.0000
    65  -0.0000  -0.0000   0.0000   0.0000   0.0000  -0.0000  -0.0000  -0.0000  -0.0000  -0.0000
    66   0.0000   0.0000   0.0000   0.0000   0.0000   0.0000   0.0000  -0.0000   0.0000   0.0000
    67   0.0000   0.0000   0.0000   0.0000   0.0000   0.0000  -0.0000   0.0000   0.0000  -0.0000
    68   0.0000  -0.0000  -0.0000  -0.0000   0.0000   0.0000  -0.0000   0.0000  -0.0000   0.0000
    69   0.0000   0.0000  -0.0000   0.0000  -0.0000   0.0000   0.0000  -0.0000   0.0000  -0.0000
    70   0.0000   0.0000  -0.0000   0.0000   0.0000  -0.0000   0.0000  -0.0000   0.0000   0.0000
    71  -0.0000  -0.0000   0.0000  -0.0000  -0.0000   0.0000   0.0000   0.0000   0.0000   0.0000
    72  -0.0000   0.0000   0.0001   0.0000  -0.0000  -0.0000  -0.0000   0.0000   0.0000   0.0000
    73  -0.0000  -0.0000  -0.0000   0.0000  -0.0000  -0.0000   0.0000  -0.0000   0.0000  -0.0000
    74   0.0000  -0.0000  -0.0000   0.0000  -0.0000   0.0000  -0.0000  -0.0000  -0.0000   0.0000
    75   0.0000  -0.0000   0.0000   0.0000  -0.0000   0.0000   0.0000  -0.0000  -0.0000  -0.0000
    76  -0.0000  -0.0000   0.0000   0.0000  -0.0000   0.0000  -0.0000   0.0000  -0.0000   0.0000
    77  -0.0000   0.0000  -0.0000  -0.0000   0.0000  -0.0000  -0.0000   0.0000   0.0000  -0.0000
    78  -0.0000  -0.0000   0.0000  -0.0000   0.0000  -0.0000   0.0000  -0.0000  -0.0000  -0.0000
    79   0.0000   0.0000  -0.0000   0.0000  -0.0000  -0.0001  -0.0000   0.0000  -0.0000   0.0000
    80   0.0000   0.0000  -0.0000   0.0000   0.0000  -0.0000   0.0001  -0.0000   0.0000   0.0000
    81  -0.0000   0.0000   0.0000   0.0000   0.0001  -0.0000  -0.0000  -0.0000  -0.0000  -0.0000
    82  -0.0001  -0.0000   0.0000  -0.0000  -0.0000   0.0000   0.0000  -0.0000  -0.0000  -0.0000
    83  -0.0000  -1.0000   0.0000  -0.0000  -0.0000   0.0000   0.0000   0.0000  -0.0000  -0.0000
    84  -0.0000  -0.0000   0.0000   1.0000   0.0000  -0.0000  -0.0000  -0.0004   0.0000   0.0000
    85   0.0000  -0.0000   0.0000  -0.0001  -0.0000  -0.0000  -0.0000  -0.2826   0.9558   0.0810
    86  -0.0000   0.0000  -0.0000   0.0003   0.0000  -0.0000   0.0000   0.8337   0.2864  -0.4720
    87   0.0000  -0.0000   0.0000  -0.0002  -0.0000  -0.0000   0.0000  -0.4744  -0.0659  -0.8778
    88   0.0000  -0.0000   0.0000   0.0001  -0.0000   0.0000   0.0000  -0.0000   0.0000   0.0000
    89  -0.0000  -0.0000   0.0000   0.0000   0.0000   0.0000   0.0000   0.0000   0.0000   0.0000
    90  -0.0000  -0.0000   0.0000   0.0000   0.0000  -0.0000   0.0000   0.0000  -0.0000   0.0000
    91  -0.0000  -0.0000   0.0000   0.0000   0.0000  -0.0000  -0.0000   0.0000  -0.0000  -0.0000
    92   0.0000   0.0000  -0.0000  -0.0000  -0.0000  -0.0000  -0.0000  -0.0000  -0.0000  -0.0000
    93  -0.0000  -0.0000   0.0000   0.0000   0.0000  -0.0000  -0.0000   0.0000  -0.0000  -0.0000
    94  -0.0000  -0.0000   0.0000   0.0000   0.0000  -0.0000   0.0000   0.0000  -0.0000   0.0000
    95   0.0000   0.0000  -0.0000  -0.0000  -0.0000   0.0000  -0.0000  -0.0000   0.0000  -0.0000
    96   0.0000   0.0000  -0.0000  -0.0000  -0.0000  -0.0000  -0.0000  -0.0000  -0.0000  -0.0000
    97  -0.0000  -0.0000   0.0000   0.0000   0.0000  -0.0000  -0.0000  -0.0000   0.0000   0.0000
    98  -0.0000  -0.0000   0.0000  -0.0000   0.0000   0.0000   0.0000  -0.0000   0.0000   0.0000
    99  -0.0000  -0.0000   0.0000  -0.0000   0.0000  -0.0000   0.0000  -0.0000  -0.0000   0.0000
   100  -0.0000  -0.0000   0.0000  -0.0000   0.0000   0.0000  -0.0000  -0.0000  -0.0000  -0.0000
   101   0.0000   0.0000  -0.0000   0.0000   0.0000   0.0000  -0.0000  -0.0000   0.0000   0.0000
   102   0.0000   0.0000  -0.0000   0.0000   0.0000   0.0000   0.0000  -0.0000  -0.0000  -0.0000
   103   0.0000   0.0000  -0.0000   0.0000   0.0000  -0.0000   0.0000  -0.0000   0.0000  -0.0000
   104  -0.0000  -0.0000   0.0000  -0.0000   0.0000  -0.0000  -0.0000  -0.0000  -0.0000  -0.0000
   105  -0.0000  -0.0000   0.0000   0.0000  -0.0000   0.0000   0.0000  -0.0000  -0.0000  -0.0000
   106  -0.0000  -0.0000   0.0000   0.0000  -0.0000   0.0000   0.0000  -0.0000  -0.0000   0.0000
   107   0.0000   0.0000  -0.0000  -0.0000   0.0000   0.0000   0.0000   0.0000  -0.0000  -0.0000
   108  -0.0000  -0.0000   0.0000   0.0000  -0.0000  -0.0000   0.0000  -0.0000   0.0000  -0.0000
   109  -0.0000  -0.0000   0.0000   0.0000  -0.0000  -0.0000   0.0000  -0.0000   0.0000  -0.0000
   110  -0.0000   0.0000  -0.0000  -0.0000   0.0000   0.0000  -0.0000   0.0000   0.0000  -0.0000
   111   0.0000  -0.0000   0.0000   0.0000  -0.0000  -0.0000  -0.0000  -0.0000  -0.0000  -0.0000
[...]
  135   -4.49551549964616E-16  1.36865251213465E-16 -5.04723509762787E-16  1.30070233796583E-16
  136    3.84285798567932E-16 -5.26553346509646E-16 -1.77235442167826E-16 -2.79186082821517E-16
  137    1.93711789590738E-16 -3.45105674170309E-16 -1.96813705488229E-16 -1.01088928714383E-16
  138    1.07769695945059E-16 -1.89735380184963E-16  9.20665521359117E-17 -2.15474339759769E-15

 column         121                   122                   123                   124
 row
  121    1.00000000000000E+00
  122    2.95791290249711E-16  1.00000000000000E+00
  123    3.68631928253514E-16  4.43464840688818E-16  9.99999999999999E-01
  124    2.04471441497376E-16 -3.18924008193409E-16  1.53304671794568E-16  1.00000000000000E+00
  125   -3.79920554717253E-16  1.86362971445029E-16  2.83941855182995E-16  4.74064273176571E-16
  126    9.10835708969314E-16 -1.63379271743043E-16  3.63425180330794E-16 -6.58418713816316E-16
  127   -1.35140960139373E-16  1.00350223340148E-15 -5.01425478854637E-16 -1.31567162698785E-17
  128    1.43397898520574E-16  8.70360955923178E-16  4.01632993623031E-16  2.82536715204645E-16
  129   -5.64839447483777E-16 -3.08306779086588E-15  4.32510269461096E-16 -9.01822545528506E-17
  130   -6.26143513289589E-17 -5.29604954755697E-16 -4.42688534992659E-17 -8.21444130721404E-16
  131    2.61347830341415E-16 -2.39889789178667E-16 -3.37576484328949E-16 -4.10440455443471E-16
  132   -4.58889244483870E-16  8.31568243219805E-17 -4.62426705534510E-16  1.80010654474541E-16
  133   -4.47976608004482E-16 -6.73281502300499E-16  1.13936210944612E-15 -4.86181426075721E-16
  134   -2.67007947686068E-16 -4.88972043122080E-16 -5.00352221936017E-16 -3.59302162260431E-16
  135   -1.40533496963575E-16 -1.27255702131534E-16 -3.75834805269388E-17 -3.42028144565402E-16
  136    2.42352421667523E-16 -9.62605232776780E-17 -6.41097956073980E-16  5.52957423982469E-16
  137    1.97614278001073E-16 -1.20214586901889E-16 -4.31378127209030E-16  9.58584758632594E-17
  138   -2.42319185550510E-17  5.78421859021017E-16 -2.68448457907411E-16  6.10134772566218E-17

 column         125                   126                   127                   128
 row
  125    1.00000000000000E+00
  126    5.17804884173577E-16  1.00000000000000E+00
  127   -3.94411799519672E-16  3.97801620411500E-16  9.99999999999998E-01
  128    1.37744703023286E-16  4.58573182080536E-16  4.95053038234206E-17  1.00000000000000E+00
  129   -1.36341541330089E-15 -3.99855273298814E-16  1.35919838036365E-15  4.88779885757061E-16
  130    9.63553281020440E-16 -1.86851239617007E-16  1.56985532876200E-16 -2.96183281215832E-16
  131   -3.40339201400427E-16  4.09328415334651E-16 -1.90425837768429E-16 -3.30767623217335E-17
  132   -5.78822412960839E-16 -1.88226635834891E-17 -2.22937774698131E-16  3.23527609100679E-16
  133   -2.90519211602212E-16 -4.76295342656798E-16 -2.71580511122394E-16 -2.56640803733435E-16
  134    6.27350717219161E-17  8.07777998166417E-16  2.19330770919033E-16 -9.59313450985513E-17
  135    2.58170292118909E-16 -1.75244415197067E-15  1.05878893413661E-16 -3.69518158808455E-16
  136    1.32190185209993E-16 -8.24966582579829E-16  3.78823660285449E-16 -1.84599945157214E-16
  137   -1.43114559382272E-16 -3.22442748802619E-15  8.54590946142034E-17  9.16993573975765E-16
  138    3.38379498032726E-16 -1.51998368318890E-16 -1.57805626205265E-16  1.28532167548157E-16

 column         129                   130                   131                   132
 row
  129    1.00000000000000E+00
  130   -9.99515950767917E-17  9.99999999999999E-01
  131   -2.32268128485757E-15  2.52332868609955E-17  1.00000000000000E+00
  132    1.34646316059234E-16  4.62403299631897E-16 -3.00556419678277E-16  1.00000000000000E+00
  133    1.76075676891287E-16 -1.30157208529270E-16 -2.03674888901364E-16 -6.72034745902757E-16
  134    5.67159629544985E-17  2.18035639344707E-16 -3.58680227491729E-16  5.49835046299111E-16
  135   -3.51135873775380E-16 -3.26994232058022E-16 -3.15126527880297E-16  8.71343328853536E-16
  136    1.54515882587027E-16 -4.67228611413111E-16 -4.19345322744123E-16  1.54245096741702E-16
  137   -3.26673641668014E-17  1.06187457424742E-16  1.05714918505702E-15 -3.68285635707513E-16
  138   -5.19506312968154E-15 -1.14627274686030E-16 -9.39325657187129E-16  2.22153025142280E-16

 column         133                   134                   135                   136
 row
  133    1.00000000000000E+00
  134   -5.62398857703885E-16  1.00000000000000E+00
  135    4.63412478177185E-17 -1.22636499770731E-16  1.00000000000001E+00
  136   -3.57772340521170E-17  1.72447333506746E-16  2.41119807576713E-16  1.00000000000001E+00
  137   -6.90048183242479E-16  1.75714684105031E-16  3.70809180535907E-16 -3.48720212737608E-16
  138   -7.45998857305807E-16 -1.60150213403265E-16 -1.53617895314040E-17  2.23494725330731E-16

 column         137                   138
 row
  137    1.00000000000001E+00
  138   -9.38241455014643E-17  9.99999999999999E-01


 SFO contributions (%) per orbital
 (multiplication by the orbital occupation yields the SFO Gross Populations)

 Orb.:       31     32     33     34     35     36     37     38     39     40     41     42     43     44
 occup:     2.00   2.00   2.00   2.00   2.00   2.00   2.00   2.00   2.00   2.00   0.00   0.00   0.00   0.00
 CF+SFO     ----   ----   ----   ----   ----   ----   ----   ----   ----   ----   ----   ----   ----   ----
 ------
     17:   69.72  29.21   0.35   0.00   0.00   0.74   0.00   0.00   0.00   0.00   0.20  -0.08  -0.27   0.00
     18:    0.40   0.41  83.33   0.00   0.00  15.05   0.00   0.00   0.00   0.00   0.49  -0.18  -0.40  -0.00
     19:    0.00   0.00   0.00  91.62   0.72   0.00   7.38   0.01   0.01   0.18   0.00   0.00   0.00   0.05
     20:    0.00   0.00   0.00   0.72  91.62   0.00   0.01   7.37   0.18   0.01   0.00  -0.00   0.00   0.00
     21:   -0.00  -0.00   0.00   0.17   4.29   0.00   0.83  37.84  55.58   0.84   0.00   0.00  -0.00   0.01
     22:    0.00  -0.00   0.00   4.29   0.17  -0.00  37.84   0.83   0.84  55.58   0.00  -0.00   0.00   0.14
     23:    0.35   0.49   1.46   0.00  -0.00  23.36   0.00   0.00   0.00   0.00  72.20   1.79  -1.94   0.00
     24:    0.04  -0.15  -0.00   0.00  -0.00  -0.34  -0.00   0.00  -0.00   0.00   0.72 107.73  -4.24   0.00
     25:   -0.02  -0.31   0.03  -0.00  -0.00  -0.49   0.00   0.00   0.00   0.00  -1.14  -3.45  21.40   0.00
     27:    0.00  -0.00   0.00   0.12   0.00  -0.00   0.03   0.00  -0.03  -0.30  -0.00   0.00   0.00  39.25
     97:   28.47  70.08   0.99   0.00  -0.00   0.02   0.00   0.00  -0.00   0.00   0.62  -0.18  -0.11  -0.00
     98:    0.03   0.00   0.36   2.88   0.11   1.60  51.10   1.00   0.70  40.84   0.67  -0.02   0.05  -0.28
     99:    0.00   0.00   0.00   0.11   2.96   0.01   0.99  52.52  41.92   0.75   0.01  -0.00   0.00  -0.02
    100:    1.06   0.17  13.14   0.08   0.00  58.58   1.43   0.00   0.06   1.09  24.38  -0.64   1.66  -0.01
    101:   -0.23  -0.06  -0.10  -0.04  -0.00   0.60  -0.06  -0.00   0.01   0.17  -0.34  -0.87  59.09  18.96
    102:   -0.11  -0.03  -0.05  -0.09  -0.00   0.28  -0.12  -0.00   0.00   0.37  -0.16  -0.41  27.63  38.26
    103:   -0.00  -0.00  -0.00  -0.00  -0.14   0.00  -0.00  -0.18   0.54   0.01  -0.00  -0.00   0.28   3.35
    104:   -0.11   0.04  -0.02  -0.00   0.00   0.01   0.00   0.00   0.00   0.00  -0.06  -4.17  -3.08  -0.00


 Summation over all MOs, multiplied by occupation: Total SFO Gross Populations in this Irrep
 ===========================================================================================

     2.00    2.00    2.00    2.00    2.00    2.00    2.00    2.00    2.00    2.00    2.00    2.00
     2.00    2.00    2.00    2.00    2.00    1.98    2.00    2.00    1.99    1.99    0.51   -0.01
    -0.01   -0.00   -0.00    0.01    0.01    0.00    0.00    0.01    0.01    0.00    0.00   -0.00
     0.00    0.00    0.00    0.00    0.00    0.00    0.00    0.00    0.00    0.00    0.00   -0.00
     0.00   -0.00   -0.00   -0.00    0.00    0.00    0.00   -0.00   -0.00   -0.00    0.00    0.00
     0.00    0.00    0.00    0.00   -0.00    0.00    0.00    0.00   -0.00   -0.00   -0.00    0.00
     0.00    0.00   -0.00   -0.00   -0.00    0.00    0.00    0.00    0.00   -0.00    2.00    2.00
     2.00    2.00    2.00    2.00    2.00    2.00    2.00    2.00    2.00    2.00    2.00    2.00
     1.99    1.97    1.99    1.51    0.01    0.01    0.00   -0.00    0.01    0.00    0.01    0.01
     0.01    0.00    0.00    0.00    0.00    0.00    0.00    0.00   -0.00   -0.00    0.00    0.00
    -0.00   -0.00   -0.00   -0.00   -0.00   -0.00   -0.00   -0.00    0.00   -0.00   -0.00   -0.00
    -0.00   -0.00    0.00    0.00    0.00   -0.00



 List of all MOs, ordered by energy, with the most significant SFO gross populations
 ===================================================================================

 Each percentage contribution in the table below corresponds to the indicated SFO.
 In general, a SFO may be a linear combination of several Fragment Orbitals on the same,
 or on symmetry-related Fragments. Only the first 'member' of such a combination is
 specified here. A full definition of all SFOs is given in an earlier part of the output.
 The numbering of the SFOs in this table does NOT include the Core Orbitals, and starts
 from one for each symmetry representation, as in the SFO definition list earlier.

       E(eV)  Occ       MO           %     SFO (first member)   E(eV)  Occ   Fragment
 -------------------------------------------------------------------------------------

     -14.651  2.00    31 A         69.72%    17 A             -20.145  2.00     1 BrF
                                   28.47%    15 A             -10.500  2.00     2 Br
                                    1.06%    18 A               0.447  2.00     2 Br
     -13.190  2.00    32 A         70.08%    15 A             -10.500  2.00     2 Br
                                   29.21%    17 A             -20.145  2.00     1 BrF
      -5.804  2.00    33 A         83.33%    18 A             -11.826  2.00     1 BrF
                                   13.14%    18 A               0.447  2.00     2 Br
                                    1.46%    23 A              -6.521  0.00     1 BrF
      -3.844  2.00    34 A         91.62%    19 A              -9.966  2.00     1 BrF
                                    4.29%    22 A              -7.926  2.00     1 BrF
                                    2.88%    16 A               0.447  2.00     2 Br
      -3.844  2.00    35 A         91.62%    20 A              -9.966  2.00     1 BrF
                                    4.29%    21 A              -7.926  2.00     1 BrF
                                    2.96%    17 A               0.447  2.00     2 Br
      -2.728  2.00    36 A         58.58%    18 A               0.447  2.00     2 Br
                                   23.36%    23 A              -6.521  0.00     1 BrF
                                   15.05%    18 A             -11.826  2.00     1 BrF
                                    1.60%    16 A               0.447  2.00     2 Br
      -2.624  2.00    37 A         51.10%    16 A               0.447  2.00     2 Br
                                   37.84%    22 A              -7.926  2.00     1 BrF
                                    7.38%    19 A              -9.966  2.00     1 BrF
                                    1.43%    18 A               0.447  2.00     2 Br
      -2.624  2.00    38 A         52.52%    17 A               0.447  2.00     2 Br
                                   37.84%    21 A              -7.926  2.00     1 BrF
                                    7.37%    20 A              -9.966  2.00     1 BrF
      -1.643  2.00    39 A         55.58%    21 A              -7.926  2.00     1 BrF
                                   41.92%    17 A               0.447  2.00     2 Br
      -1.643  2.00    40 A         55.58%    22 A              -7.926  2.00     1 BrF
                                   40.84%    16 A               0.447  2.00     2 Br
                                    1.09%    18 A               0.447  2.00     2 Br
       1.034  0.00    41 A         72.20%    23 A              -6.521  0.00     1 BrF
                                   24.38%    18 A               0.447  2.00     2 Br
                                   -1.14%    25 A               3.323  0.00     1 BrF
       5.303  0.00    42 A        107.73%    24 A               0.824  0.00     1 BrF
                                   -4.17%    22 A              13.634  0.00     2 Br
                                   -3.45%    25 A               3.323  0.00     1 BrF
                                    1.79%    23 A              -6.521  0.00     1 BrF



 =======================================================================
 Electrostatic potential at the Nuclei due to electrons and other nuclei
 =======================================================================
  
         Atom                  Potential
         ----                  ---------
     1)   Br                176.10705015
     2)   F                  26.83682510
     3)   Br                176.14920596
 
 
 ========================
 No memory problems found
 ========================
 
 Maximum number of active allocate calls:         680
 
 *******************************************************************************

                             A D F   E X I T
 NORMAL TERMINATION



 =================
 Timing Statistics
 =================
  
 Total Used :                     CPU=        6.50      System=        0.17     Elapsed=        7.03

 Calls  Section                     ( Mean, Percentage )
 ---------------------------------------------------------------------------------------------------
     3  ><      ................      0.00    0.02             0.00    0.00             0.00    0.02
     1  INIT    ................      0.46    7.04             0.02   12.87             0.48    6.89
     1  GEOMET  ................      0.04    0.69             0.01    3.51             0.33    4.71
     1  FRAGM   ................      0.01    0.23             0.01    3.51             0.03    0.43
     1  INPUTA  ................      0.00    0.00             0.00    0.00             0.00    0.01
     1  ATDEN   ................      0.00    0.03             0.00    1.17             0.01    0.07
     1  MAINSY  ................      0.01    0.14             0.00    2.34             0.02    0.24
     1  SYMFIT  ................      0.00    0.02             0.00    0.58             0.00    0.03
     1  CORORT  ................      0.00    0.02             0.00    0.00             0.00    0.01
     1  SYMORB  ................      0.00    0.03             0.00    0.58             0.00    0.05
     1  CLSMAT  ................      0.01    0.14             0.00    0.00             0.01    0.12
     1  ORTHON  ................      0.01    0.20             0.00    0.00             0.01    0.19
     1  GENPT   ................      0.13    2.00             0.00    2.92             0.13    1.91
     1  PTBAS   ................      0.04    0.69             0.00    0.58             0.05    0.66
    18  FOCKY   ................      0.13   35.84             0.00    9.94             0.13   33.50
    18  FOCKTR  ................      0.00    0.63             0.00    0.00             0.00    0.60
    18  SDIIS   ................      0.00    1.09             0.00    1.17             0.00    1.07
     1  COREPS  ................      0.11    1.68             0.00    1.17             0.11    1.59
     1  TOTEN   ................      0.35    5.46             0.00    1.17             0.36    5.10
     1  POPAN   ................      0.00    0.06             0.00    0.58             0.01    0.13
     1  DEBYE   ................      0.01    0.15             0.00    0.00             0.01    0.15
     1  INPUTE  ................      0.00    0.02             0.00    0.00             0.00    0.02
     1  SYMORE  ................      0.00    0.02             0.00    0.00             0.00    0.02
     1  METS    ................      0.00    0.00             0.00    0.58             0.00    0.01
     1  CETS    ................      0.02    0.26             0.00    1.17             0.04    0.50
     1  POPUL   ................      2.80   43.14             0.09   53.80             2.92   41.52
     1  EXIT PROCEDURE .........      0.03    0.42             0.00    2.34             0.03    0.46


 Currently Open Files (EXIT00)
 ====================

 Unit    Access Format  Status   Type       Ident (file)
 -------------------------------------------------------
   3      SEQ    FORM   TRANSP  NORMAL      LOGFILE
                                          ( logfile )


 Buffered I/O statistics
 =======================
 Memory available:                     67108864
 Number of records fitting in memory:     16131
 Input :   1.1% of                        60042  *4k bytes
 Output:  14.0% of                         4706  *4k bytes
 Records from serial files evicted:           0
                    others evicted:           0
 Hash table lookups:     172110 with          0 conflicts (  0.00%)

 ***************************************************************************************************
 (LOGFILE)
 <May09-2019> <17:12:12>  ADF 2017  RunTime: May09-2019 17:12:12  Nodes: 1  Procs: 12
 <May09-2019> <17:12:12>  *** (NO TITLE) ***
 <May09-2019> <17:12:12>  RunType   : SINGLE POINT
 <May09-2019> <17:12:12>  Net Charge: -1 (Nuclei minus Electrons)
 <May09-2019> <17:12:12>  Symmetry  : NOSYM
 <May09-2019> <17:12:12>  >>>> FRAGM
  Coordinates
    Atom         X           Y           Z   (Angstrom)
    1.Br       -4.815331    2.930569   -0.047034
    2.F        -3.700437    1.213781   -0.060239
    3.Br       -6.259613    5.154569   -0.029928
 <May09-2019> <17:12:12>  >>>> CORORT
 <May09-2019> <17:12:12>  >>>> CLSMAT
 <May09-2019> <17:12:12>  >>>> ORTHON
 <May09-2019> <17:12:12>  >>>> GENPT
 <May09-2019> <17:12:13>  Block Length= 128
 <May09-2019> <17:12:13>  >>>> PTBAS
 <May09-2019> <17:12:13>  >>>> CYCLE
 <May09-2019> <17:12:13>              |Error|         MaxErr       Wt(A-DIIS)
 <May09-2019> <17:12:13>      1      1.73078180      1.07289658
 <May09-2019> <17:12:13>      2      0.98082769      0.45684908    100.0
 <May09-2019> <17:12:13>      3      0.73739906      0.35748334    100.0
 <May09-2019> <17:12:13>      4      0.71261256      0.34744165    100.0
 <May09-2019> <17:12:13>      5      3.78141073      1.41327183    100.0
 <May09-2019> <17:12:14>      6      1.45347263      0.54974834    100.0
 <May09-2019> <17:12:14>      7      0.29968922      0.11831582    100.0
 <May09-2019> <17:12:14>      8      0.54981975      0.20789022    100.0
 <May09-2019> <17:12:14>      9      0.22960006      0.09000948     89.9
 <May09-2019> <17:12:14>     10      0.27786955      0.10377502    100.0
 <May09-2019> <17:12:14>     11      0.11187576      0.03466233     34.0
 <May09-2019> <17:12:14>     12      0.03248135      0.00965762      8.7
 <May09-2019> <17:12:14>     13      0.00419971      0.00126224      0.3
 <May09-2019> <17:12:15>     14      0.00045520      0.00010816      0.0
 <May09-2019> <17:12:15>     15      0.00006928      0.00002152      0.0
 <May09-2019> <17:12:15>     16      0.00000375      0.00000145      0.0
 <May09-2019> <17:12:15>     17      0.00000172      0.00000066      0.0
 <May09-2019> <17:12:15>  SCF converged
 <May09-2019> <17:12:15>     18      0.00000039      0.00000012      0.0
 <May09-2019> <17:12:15>  >>>> TOTEN
 <May09-2019> <17:12:16>  >>>> POPAN
 <May09-2019> <17:12:16>  >>>> DEBYE
 <May09-2019> <17:12:16>  >>>> AMETS
 <May09-2019> <17:12:18>   Bond Energy          -0.08802047 a.u.
 <May09-2019> <17:12:18>   Bond Energy          -2.39515898 eV
 <May09-2019> <17:12:18>   Bond Energy         -55.23       kcal/mol
 <May09-2019> <17:12:18>  >>>> POPUL
 <May09-2019> <17:12:19>  NORMAL TERMINATION
 <May09-2019> <17:12:19>  END
