
Create O   file=TZ2P-O
XC
  GGA blyp
End
End Input

 *******************************************************************************
 *                                                                             *
 *  -------------------------------------                                      *
 *   Amsterdam Density Functional  (ADF)         development version           *
 *  -------------------------------------                                      *
 *                                               r61132 2017-09-08             *
 *                                                                             *
 *                                                                             *
 *                              =================                              *
 *                              |               |                              *
 *                              |     A D F     |                              *
 *                              |               |                              *
 *                              =================                              *
 *                                                                             *
 *                                                                             *
 *   Online information and documentation:  https://www.scm.com/support/       *
 *   E-mail:  support@scm.com   info@scm.com                                   *
 *                                                                             *
 *   Scientific publications using ADF results must be properly referenced     *
 *   See the User Manuals (or the web site) for recommended citations          *
 *   The terms and conditions of the End User License Agreement apply to       *
 *   the use of ADF, https://www.scm.com/license-terms/                        *
 *                                                                             *
 **********************  x86_64_linux_intel / intelmpi  ************************
 
 Licensed to: VU/FEW (+ SARA) / ALGEMEEN / Amsterdam / THE NETHERLANDS
 SCM User ID: u7668
  
 ADF development version  RunTime: Apr25-2019 15:23:01  Nodes: 1  Procs: 1

 Temporary files are created in /local/datastore0/tcst25/187649/kid_0.GtWmt4

 Oxygen (TZ2P)



 ===========================
 A T T A C H E D   F I L E S
 ===========================
  
 CREATE - Data File:    TZ2P-O
                        Oxygen (TZ2P)



 ===============================
 M O D E L   P A R A M E T E R S
 ===============================
  
 DENSITY FUNCTIONAL POTENTIAL (scf)
    LDA:                               Exchange only                           == Not Default ==
    Gradient Corrections:              Becke88 LYP                             == Not Default ==

 SPIN  (restricted / unrestr.)
    Molecule:                          Restricted                               

 OTHER ASPECTS
    Relativistic Corrections:          ---                                      

    Nuclear Charge Density Model:      Point Charge Nuclei                      
    Core Treatment:                    Frozen Orbital(s)                        

    Hyperfine or Zeeman Interaction:   ---                                      



 =====================================
 S Y M M E T R Y ,   E L E C T R O N S
 =====================================
  
 Symmetry: ATOM

 Irreducible Representations, including subspecies
 -------------------------------------------------
 S
 P:x  P:y  P:z
 D:z2  D:x2-y2  D:xy  D:xz  D:yz
 F:z3  F:z  F:xyz  F:z2x  F:z2y  F:x  F:y


 Configuration of Valence Electrons
 ==================================

          Occupation Numbers
          -------------------------------------------------
 S        2*2
 P        4
 D        0
 F        0
          -------------------------------------------------

 Total:   8

 Net Charge: 0 (Nuclei minus Electrons)

 Preset values for MO occupations will be applied through SCF cycle no. 1000000
 Thereafter, the program will assign electrons to MOs that are spatially
 similar to the occupied MOs in a "reference" cycle ("KeepOrbitals").
 The reference cycle is always the PREVIOUS cycle: it will evolve with
 the SCF procedure.



 ================================
 (Slater-type)  F U N C T I O N S  ***  (Basis and Fit)  ***
 ================================
  

 Atom Type    1  (O)
 ==============

 Valence Basis Sets:  10
 -----------------------
   1 S    9.800000
   1 S    6.800000
   2 S    7.580000
   2 S    2.880000
   2 S    1.720000
   2 P    4.080000
   2 P    2.080000
   2 P    1.120000
   3 D    2.000000
   4 F    3.000000


 BAS: List of all Elementary Cartesian Basis Functions
 =====================================================

 The numbering in the list below (to the right of the function characteristics) is referred
 to in print-outs of MO eigenvectors and Mulliken populations in the BAS representation
 (as contrasted to the SFO representation).

 Notes:
 1. The functions are characterized by a polynomial prefactor (powers of x,y,z and r) and
    an exponential decay factor alpha.
 2. Since the basis sets are specific for an atom TYPE, the individual functions occur on
    all atoms of that type.
 3. The word 'Core' in the left margin signals that it is a Core Function (CF) : not a
    degree of freedom in the valence set, but only used to ensure orthogonalization of
    the other valence basis functions on the frozen Core Orbitals.


 (power of) X  Y  Z  R     Alpha  on Atom
            ==========     =====     ==========

 O                                    1
                                  ---------------------------------------------------------------------------
            0  0  0  0     9.800      1
            0  0  0  0     6.800      2
            0  0  0  1     7.580      3
            0  0  0  1     2.880      4
            0  0  0  1     1.720      5
            1  0  0  0     4.080      6
            0  1  0  0     4.080      7
            0  0  1  0     4.080      8
            1  0  0  0     2.080      9
            0  1  0  0     2.080     10
            0  0  1  0     2.080     11
            1  0  0  0     1.120     12
            0  1  0  0     1.120     13
            0  0  1  0     1.120     14
            2  0  0  0     2.000     15
            1  1  0  0     2.000     16
            1  0  1  0     2.000     17
            0  2  0  0     2.000     18
            0  1  1  0     2.000     19
            0  0  2  0     2.000     20
            3  0  0  0     3.000     21
            2  1  0  0     3.000     22
            2  0  1  0     3.000     23
            1  2  0  0     3.000     24
            1  1  1  0     3.000     25
            1  0  2  0     3.000     26
            0  3  0  0     3.000     27
            0  2  1  0     3.000     28
            0  1  2  0     3.000     29
            0  0  3  0     3.000     30

 Total number of charge fitting functions (nprimf)        84
 Total number of Cartesian basis functions (naos)         30
 Total number of Cartesian core functions  (ncos)          0



 BAS: List of all Elementary Cartesian Basis Functions
 =====================================================

 The numbering in the list below (to the right of the function characteristics) is referred
 to in print-outs of MO eigenvectors and Mulliken populations in the BAS representation
 (as contrasted to the SFO representation).

 Notes:
 1. The functions are characterized by a polynomial prefactor (powers of x,y,z and r) and
    an exponential decay factor alpha.
 2. Since the basis sets are specific for an atom TYPE, the individual functions occur on
    all atoms of that type.
 3. The word 'Core' in the left margin signals that it is a Core Function (CF) : not a
    degree of freedom in the valence set, but only used to ensure orthogonalization of
    the other valence basis functions on the frozen Core Orbitals.


 (power of) X  Y  Z  R     Alpha  on Atom
            ==========     =====     ==========

 O                                    1
                                  ---------------------------------------------------------------------------
            0  0  0  0     9.800      1
            0  0  0  0     6.800      2
            0  0  0  1     7.580      3
            0  0  0  1     2.880      4
            0  0  0  1     1.720      5
            1  0  0  0     4.080      6
            0  1  0  0     4.080      7
            0  0  1  0     4.080      8
            1  0  0  0     2.080      9
            0  1  0  0     2.080     10
            0  0  1  0     2.080     11
            1  0  0  0     1.120     12
            0  1  0  0     1.120     13
            0  0  1  0     1.120     14
            2  0  0  0     2.000     15
            1  1  0  0     2.000     16
            1  0  1  0     2.000     17
            0  2  0  0     2.000     18
            0  1  1  0     2.000     19
            0  0  2  0     2.000     20
            3  0  0  0     3.000     21
            2  1  0  0     3.000     22
            2  0  1  0     3.000     23
            1  2  0  0     3.000     24
            1  1  1  0     3.000     25
            1  0  2  0     3.000     26
            0  3  0  0     3.000     27
            0  2  1  0     3.000     28
            0  1  2  0     3.000     29
            0  0  3  0     3.000     30
1
 ***************************************************************************************************



                                              ***********************
                                              *  T E C H N I C A L  *
                                              ***********************
  



 =============================================================
 P A R A L L E L I Z A T I O N  and  V E C T O R I Z A T I O N
 =============================================================
  
 Nr of parallel processes:                                1
 Maximum vector length in NumInt loops:                 128

 IO buffersize (Mb):                                     64.000000



 =====================
 S C F   U P D A T E S
 =====================
  
 Max. nr. of cycles:                               300
 Convergence criterion:                              0.0000000100
   secondary criterion:                              0.0000000100

 Mix parameter (when DIIS does not apply):           0.2000000000
 Special mix parameter for the first cycle:          1.0000000000
 Mixed ADIIS+DIIS will be used
    Max number of expansion vectors:                10
    Pure ADIIS when Max([F,P]) is above              0.1000000000
    Pure DIIS when Max([F,P]) is below               0.0010000000
 Automatic ElectronSmearing (in case of problematic SCF convergence) disabled



 =================
 P R E C I S I O N  ***  (General: NumInt, NeglectFunctionTails, ...)  ***
 =================
  

 NumInt:           Target precision:                12.0000000000
 -------           Initial precision:               10.0000000000
                   Min. precision (optimization):   10.0000000000

 Neglect Functions:          Basis functions:        0.1000000000E-13
 ------------------          Fit functions:          0.1000000000E-13



 ===========================
 L I N E A R   S C A L I N G
 ===========================
  

 Cut-off radii density fit:                        0.1000000000E-97
 Overlap cut-off criterion AO matrix elements:     0.1000000000E-97
 Cut-offs for Coulomb potential and fitted density:0.1000000000E-97
 Cut-off criterion for Coulomb multipole terms:    0.1000000000E-97
 Progressive Convergence parameter:                 0.000000000    
1
 ***************************************************************************************************



                                            ***************************
                                            *  C O M P U T A T I O N  *
                                            ***************************
  

 Number of elements of the density matrix on this node (used, total):       465       465



 ===========================================
 Numerical Integration : Fuzzy Cells (Becke)
 ===========================================
  
 Becke grid quality: VERYGOOD       
  
 Lebedev angular grid order:             min:  13 max:  41
 Nr. of radial points:                   min:  68 max:  68

 Total nr. of points:         68
 Nr. of blocks:                1
 Block length:                68
 Nr. of dummy points:          0


 Test of Precision of the Numerical Integration Grid
 ===================================================

 Integral of the Total Core Density:                   0.00000000000000



 ========================
 Density Fitting (zlmFit)
 ========================
  
 ZlmFit Fit Quality: VERYGOOD       
  
 Max L-expansion:                        min:   0 max:   0
 Nr. of radial interpolation points:     min: 180 max: 180



 =====
 S C F  ***  ScaSCF  ***
 =====
  

 CYCLE    1
 SCF Error: norm([F,P])=      0.000000000000, max([F,P])=      0.000000000000
 orbitals (Q,E):
 ---------------
 S :1...5            ( 2.00   -31.9999)  ( 2.00    -7.9363)  ( 0.00    -3.4636)  ( 0.00     4.3191)
                     ( 0.00   110.5486)
 P :1...3            ( 4.00    -7.9991)  ( 0.00    -3.4855)  ( 0.00    -1.8903)
 D :1...1            ( 0.00    -3.3333)
 F :1...1            ( 0.00    -1.5000)

 CYCLE    2
  SDIIS (wt  0.000):  1.0000  0.0000
 A-DIIS (wt  1.000):  0.0000  1.0000
  DIIS coefficients:  0.0000  1.0000
 SCF Error: norm([F,P])=      8.765745414074, max([F,P])=      5.518031311555
 orbitals (Q,E):
 ---------------
 S :1...3            ( 2.00   -14.5579)  ( 2.00    -0.0124)  ( 0.00     1.8192)
 P :1...2            ( 4.00     0.2183)  ( 0.00     1.2385)
 D :1...1            ( 0.00     1.5388)
 F :1...1            ( 0.00     3.9464)

 CYCLE    3
  SDIIS (wt  0.000):  0.2278  0.7722
 A-DIIS (wt  1.000):  0.3148  0.6852
  DIIS coefficients:  0.3148  0.6852
 SCF Error: norm([F,P])=      3.585499450444, max([F,P])=      2.499410108106
 orbitals (Q,E):
 ---------------
 S :1...3            ( 2.00   -19.8063)  ( 2.00    -1.5198)  ( 0.00     0.3996)
 P :1...2            ( 4.00    -0.9763)  ( 0.00     0.1325)
 D :1...1            ( 0.00     0.6540)
 F :1...1            ( 0.00     2.8642)

 CYCLE    4
  SDIIS (wt  0.000): -0.0456  0.1707  0.8749
 A-DIIS (wt  1.000):  0.0000  0.0000  1.0000
  DIIS coefficients:  0.0000  0.0000  1.0000
 SCF Error: norm([F,P])=      1.147919112368, max([F,P])=      0.583019620058
 orbitals (Q,E):
 ---------------
 S :1...3            ( 2.00   -18.0523)  ( 2.00    -0.5465)  ( 0.00     1.0349)
 P :1...2            ( 4.00    -0.0477)  ( 0.00     0.5307)
 D :1...1            ( 0.00     1.2443)
 F :1...1            ( 0.00     3.5731)

 CYCLE    5
  SDIIS (wt  0.000): -0.0195 -0.0760  0.5845  0.5110
 A-DIIS (wt  1.000):  0.0000  0.0000  0.6414  0.3586
  DIIS coefficients:  0.0000  0.0000  0.6414  0.3586
 SCF Error: norm([F,P])=      1.519585468023, max([F,P])=      0.840542006159
 orbitals (Q,E):
 ---------------
 S :1...3            ( 2.00   -18.8182)  ( 2.00    -0.8502)  ( 0.00     0.8091)
 P :1...2            ( 4.00    -0.3077)  ( 0.00     0.3582)
 D :1...1            ( 0.00     1.0753)
 F :1...1            ( 0.00     3.3669)

 CYCLE    6
  SDIIS (wt  0.000):  0.0038 -0.0006  0.0668 -0.0496  0.9795
 A-DIIS (wt  1.000):  0.0000  0.0000  0.0000  0.0000  1.0000
  DIIS coefficients:  0.0000  0.0000  0.0000  0.0000  1.0000
 SCF Error: norm([F,P])=      0.178828926625, max([F,P])=      0.104242033505
 orbitals (Q,E):
 ---------------
 S :1...3            ( 2.00   -19.0541)  ( 2.00    -0.9245)  ( 0.00     0.7610)
 P :1...2            ( 4.00    -0.3806)  ( 0.00     0.3267)
 D :1...1            ( 0.00     1.0451)
 F :1...1            ( 0.00     3.3284)

 CYCLE    7
  SDIIS (wt  0.000): -0.0003  0.0004 -0.0182  0.0130  0.4190  0.5861
 A-DIIS (wt  1.000):  0.0000  0.0000  0.0000  0.0000  0.5807  0.4193
  DIIS coefficients:  0.0000  0.0000  0.0000  0.0000  0.5807  0.4193
 SCF Error: norm([F,P])=      0.200125290981, max([F,P])=      0.113649127568
 orbitals (Q,E):
 ---------------
 S :1...3            ( 2.00   -18.9379)  ( 2.00    -0.8781)  ( 0.00     0.7909)
 P :1...2            ( 4.00    -0.3354)  ( 0.00     0.3452)
 D :1...1            ( 0.00     1.0687)
 F :1...1            ( 0.00     3.3572)

 CYCLE    8
  SDIIS (wt  0.910): -0.0000  0.0002  0.0044 -0.0011 -0.0192 -0.1454  1.1612
 A-DIIS (wt  0.090):  0.0000  0.0000  0.0000  0.0000  0.0000  0.0000  1.0000
  DIIS coefficients: -0.0000  0.0002  0.0040 -0.0010 -0.0175 -0.1323  1.1466
 SCF Error: norm([F,P])=      0.016951777154, max([F,P])=      0.009947196225
 orbitals (Q,E):
 ---------------
 S :1...3            ( 2.00   -18.9255)  ( 2.00    -0.8739)  ( 0.00     0.7936)
 P :1...2            ( 4.00    -0.3314)  ( 0.00     0.3469)
 D :1...1            ( 0.00     1.0707)
 F :1...1            ( 0.00     3.3597)

 CYCLE    9
  SDIIS (wt  1.000): -0.0000  0.0000  0.0000 -0.0001  0.0003  0.0067  0.0145  0.9786
  DIIS coefficients: -0.0000  0.0000  0.0000 -0.0001  0.0003  0.0067  0.0145  0.9786
 SCF Error: norm([F,P])=      0.001748429777, max([F,P])=      0.000984374870
 orbitals (Q,E):
 ---------------
 S :1...3            ( 2.00   -18.9266)  ( 2.00    -0.8743)  ( 0.00     0.7933)
 P :1...2            ( 4.00    -0.3318)  ( 0.00     0.3467)
 D :1...1            ( 0.00     1.0705)
 F :1...1            ( 0.00     3.3595)

 CYCLE   10
  SDIIS (wt  1.000): -0.0000 -0.0000 -0.0000 -0.0000  0.0000  0.0001 -0.0011 -0.0034  1.0043
  DIIS coefficients: -0.0000 -0.0000 -0.0000 -0.0000  0.0000  0.0001 -0.0011 -0.0034  1.0043
 SCF Error: norm([F,P])=      0.000001425627, max([F,P])=      0.000000713873
 orbitals (Q,E):
 ---------------
 S :1...3            ( 2.00   -18.9266)  ( 2.00    -0.8743)  ( 0.00     0.7933)
 P :1...2            ( 4.00    -0.3318)  ( 0.00     0.3467)
 D :1...1            ( 0.00     1.0705)
 F :1...1            ( 0.00     3.3595)

 CYCLE   11
  SDIIS (wt  1.000):  0.0000 -0.0000 -0.0000 -0.0001 -0.0046  1.0047
  DIIS coefficients:  0.0000 -0.0000 -0.0000 -0.0001 -0.0046  1.0047
 SCF Error: norm([F,P])=      0.000000048705, max([F,P])=      0.000000022971
 orbitals (Q,E):
 ---------------
 S :1...3            ( 2.00   -18.9266)  ( 2.00    -0.8743)  ( 0.00     0.7933)
 P :1...2            ( 4.00    -0.3318)  ( 0.00     0.3467)
 D :1...1            ( 0.00     1.0705)
 F :1...1            ( 0.00     3.3595)

 CYCLE   12
  SDIIS (wt  1.000):  0.0000  0.0003  0.0049  0.9947
  DIIS coefficients:  0.0000  0.0003  0.0049  0.9947
 SCF Error: norm([F,P])=      0.000000002391, max([F,P])=      0.000000001167
 orbitals (Q,E):
 ---------------
 S :1...3            ( 2.00   -18.9266)  ( 2.00    -0.8743)  ( 0.00     0.7933)
 P :1...2            ( 4.00    -0.3318)  ( 0.00     0.3467)
 D :1...1            ( 0.00     1.0705)
 F :1...1            ( 0.00     3.3595)

 SCF CONVERGED

 CYCLE   13
1
 ***************************************************************************************************



                                                *******************
                                                *  R E S U L T S  *
                                                *******************
  
 *** Setting up for NEW gradients in Focky
 *** Using FIT density in Focky

 Orbital Energies, per Irrep and Spin:
 ======================================
                        Occup              E (au)              E (eV)       Diff (eV) with prev. cycle
                        -----      --------------------        ------       --------------------------
 S
               1        2.000     -0.18926622910087E+02      -515.020               5.77E-10
               2        2.000     -0.87432318445326E+00       -23.792               3.91E-10
               3        0.000      0.79334608634539E+00        21.588
               4        0.000      0.13459763470972E+02       366.259
               5        0.000      0.12310776301323E+03      3349.933
 P
               1        4.000     -0.33177161342560E+00        -9.028               3.72E-10
               2        0.000      0.34673871865826E+00         9.435
               3        0.000      0.38246989192600E+01       104.075
 D
               1        0.000      0.10704889823391E+01        29.129
 F
               1        0.000      0.33594552407685E+01        91.415


 Partially Occupied:
               1 P                -0.33177161342560E+00
  
 HOMO :        2 S                -0.87432318445326E+00
 LUMO :        2 P                 0.34673871865826E+00
  


 Orbital Energies, all Irreps
 ========================================

 Irrep        no.  (spin)   Occup              E (au)                E (eV)
 ---------------------------------------------------------------------------
 S             1             2.00       -0.18926622910087E+02      -515.0196
 S             2             2.00       -0.87432318445326E+00       -23.7915
 P             1             4.00       -0.33177161342560E+00        -9.0280
 P             2             0.00        0.34673871865826E+00         9.4352
 S             3             0.00        0.79334608634539E+00        21.5880
 D             1             0.00        0.10704889823391E+01        29.1295
 F             1             0.00        0.33594552407685E+01        91.4154
 P             3             0.00        0.38246989192600E+01       104.0754
 S             4             0.00        0.13459763470972E+02       366.2588
 S             5             0.00        0.12310776301323E+03      3349.9327


 All Electron Calculation, thus no Orbital Energies of the Core Orbitals are calculated



 =======================================
 M U L L I K E N   P O P U L A T I O N S
 =======================================
  
 The survey below gives for each atom:
 a) the total charge (Z minus electrons)
 b) the net spin polarization (nr of electrons spin-A minus spin-B)
 c) for each spin the atomic electron valence density (integrated) per L-value.

 Atom              Charge    Spin density          S         P         D         F
 ----              ------    ------------       ------    ------    ------    ------
 1 O               0.0000                       4.0000    4.0000    0.0000    0.0000

 Populations of individual BAS functions
 ----------------------------------------
 1 O            0.6447  1.3214  0.0008  1.1425  0.8905  0.2537  0.2537  0.2537  0.7364  0.7364
                0.7364  0.3432  0.3432  0.3432  0.0000  0.0000  0.0000  0.0000  0.0000  0.0000
                0.0000  0.0000  0.0000  0.0000  0.0000  0.0000  0.0000  0.0000  0.0000  0.0000

 Gross Charges per Atom (Z minus electrons)
 ==========================================
             0.0000
 Net Total:  0.00000000



 =======================================================================
 Electrostatic potential at the Nuclei due to electrons and other nuclei
 =======================================================================
  
         Atom                  Potential
         ----                  ---------
     1)   O                  22.23872615
 
 
 ========================
 No memory problems found
 ========================
 
 Maximum number of active allocate calls:         447
 
 *******************************************************************************

                             A D F   E X I T
 NORMAL TERMINATION



 =================
 Timing Statistics
 =================
  
 Total Used :                     CPU=        0.52      System=        0.03     Elapsed=        0.56

 Calls  Section                     ( Mean, Percentage )
 ---------------------------------------------------------------------------------------------------
     3  ><      ................      0.00    0.00             0.00    0.00             0.00    0.14
     1  INIT    ................      0.01    1.73             0.02   54.54             0.03    5.16
     1  GEOMET  ................      0.01    1.34             0.00    6.06             0.01    1.57
     1  INPUTA  ................      0.00    0.38             0.00    0.00             0.00    0.27
     1  MAINSY  ................      0.00    0.58             0.00    9.09             0.01    1.10
     1  SYMFIT  ................      0.00    0.00             0.00    3.03             0.00    0.15
     1  CORORT  ................      0.00    0.00             0.00    0.00             0.00    0.05
     1  SYMORB  ................      0.00    0.19             0.00    0.00             0.00    0.12
     1  CLSMAT  ................      0.00    0.77             0.00    3.03             0.01    0.95
     1  ORTHON  ................      0.00    0.38             0.00    0.00             0.00    0.27
     1  GENPT   ................      0.01    2.69             0.00    0.00             0.01    2.66
     1  PTBAS   ................      0.00    0.77             0.00    0.00             0.00    0.63
    13  FOCKY   ................      0.03   76.39             0.00   18.18             0.03   72.82
    13  FOCKTR  ................      0.00    2.11             0.00    0.00             0.00    1.92
    13  SDIIS   ................      0.00    4.03             0.00    0.00             0.00    3.74
     1  COREPS  ................      0.02    4.41             0.00    0.00             0.02    4.13
     1  POPAN   ................      0.00    0.77             0.00    3.03             0.01    0.94
     1  DEBYE   ................      0.00    0.19             0.00    0.00             0.00    0.10
     1  EXIT PROCEDURE .........      0.02    3.26             0.00    3.03             0.02    3.30


 Currently Open Files (EXIT00)
 ====================

 Unit    Access Format  Status   Type       Ident (file)
 -------------------------------------------------------
   3      SEQ    FORM   TRANSP  NORMAL      LOGFILE
                                          ( logfile )


 Buffered I/O statistics
 =======================
 Memory available:                     67108864
 Number of records fitting in memory:     16131
 Input :   0.1% of                        27846  *4k bytes
 Output:  13.4% of                         1391  *4k bytes
 Records from serial files evicted:           0
                    others evicted:           0
 Hash table lookups:      71928 with          0 conflicts (  0.00%)

 ***************************************************************************************************
 (LOGFILE)
 <Apr25-2019> <15:23:01>  ADF development version  RunTime: Apr25-2019 15:23:01  Nodes: 1  Procs: 1
 <Apr25-2019> <15:23:01>  Oxygen (TZ2P)
 <Apr25-2019> <15:23:01>  RunType   : CREATE
 <Apr25-2019> <15:23:01>  Net Charge: 0 (Nuclei minus Electrons)
 <Apr25-2019> <15:23:01>  Symmetry  : ATOM
  Coordinates
    Atom         X           Y           Z   (Angstrom)
    1.O         0.000000    0.000000    0.000000
 <Apr25-2019> <15:23:01>  >>>> CORORT
 <Apr25-2019> <15:23:01>  >>>> CLSMAT
 <Apr25-2019> <15:23:01>  >>>> ORTHON
 <Apr25-2019> <15:23:01>  >>>> GENPT
 <Apr25-2019> <15:23:01>  Block Length=  68
 <Apr25-2019> <15:23:01>  >>>> PTBAS
 <Apr25-2019> <15:23:01>  >>>> CYCLE
 <Apr25-2019> <15:23:02>              |Error|         MaxErr       Wt(A-DIIS)
 <Apr25-2019> <15:23:02>      1      0.00000000      0.00000000
 <Apr25-2019> <15:23:02>      2      8.76574541      5.51803131    100.0
 <Apr25-2019> <15:23:02>      3      3.58549945      2.49941011    100.0
 <Apr25-2019> <15:23:02>      4      1.14791911      0.58301962    100.0
 <Apr25-2019> <15:23:02>      5      1.51958547      0.84054201    100.0
 <Apr25-2019> <15:23:02>      6      0.17882893      0.10424203    100.0
 <Apr25-2019> <15:23:02>      7      0.20012529      0.11364913    100.0
 <Apr25-2019> <15:23:02>      8      0.01695178      0.00994720      9.0
 <Apr25-2019> <15:23:02>      9      0.00174843      0.00098437      0.0
 <Apr25-2019> <15:23:02>     10      0.00000143      0.00000071      0.0
 <Apr25-2019> <15:23:02>     11      0.00000005      0.00000002      0.0
 <Apr25-2019> <15:23:02>     12      0.00000000      0.00000000      0.0
 <Apr25-2019> <15:23:02>  SCF converged
 <Apr25-2019> <15:23:02>     13      0.00000000      0.00000000      0.0
 <Apr25-2019> <15:23:02>  >>>> POPAN
 <Apr25-2019> <15:23:02>  >>>> DEBYE
 <Apr25-2019> <15:23:02>  NORMAL TERMINATION
 <Apr25-2019> <15:23:02>  END

Create C   file=TZ2P-C
XC
  GGA blyp
End
End Input

 *******************************************************************************
 *                                                                             *
 *  -------------------------------------                                      *
 *   Amsterdam Density Functional  (ADF)         development version           *
 *  -------------------------------------                                      *
 *                                               r61132 2017-09-08             *
 *                                                                             *
 *                                                                             *
 *                              =================                              *
 *                              |               |                              *
 *                              |     A D F     |                              *
 *                              |               |                              *
 *                              =================                              *
 *                                                                             *
 *                                                                             *
 *   Online information and documentation:  https://www.scm.com/support/       *
 *   E-mail:  support@scm.com   info@scm.com                                   *
 *                                                                             *
 *   Scientific publications using ADF results must be properly referenced     *
 *   See the User Manuals (or the web site) for recommended citations          *
 *   The terms and conditions of the End User License Agreement apply to       *
 *   the use of ADF, https://www.scm.com/license-terms/                        *
 *                                                                             *
 **********************  x86_64_linux_intel / intelmpi  ************************
 
 Licensed to: VU/FEW (+ SARA) / ALGEMEEN / Amsterdam / THE NETHERLANDS
 SCM User ID: u7668
  
 ADF development version  RunTime: Apr25-2019 15:23:02  Nodes: 1  Procs: 1

 Temporary files are created in /local/datastore0/tcst25/187649/kid_0.NDdyaD

 Carbon (TZ2P)



 ===========================
 A T T A C H E D   F I L E S
 ===========================
  
 CREATE - Data File:    TZ2P-C
                        Carbon (TZ2P)



 ===============================
 M O D E L   P A R A M E T E R S
 ===============================
  
 DENSITY FUNCTIONAL POTENTIAL (scf)
    LDA:                               Exchange only                           == Not Default ==
    Gradient Corrections:              Becke88 LYP                             == Not Default ==

 SPIN  (restricted / unrestr.)
    Molecule:                          Restricted                               

 OTHER ASPECTS
    Relativistic Corrections:          ---                                      

    Nuclear Charge Density Model:      Point Charge Nuclei                      
    Core Treatment:                    Frozen Orbital(s)                        

    Hyperfine or Zeeman Interaction:   ---                                      



 =====================================
 S Y M M E T R Y ,   E L E C T R O N S
 =====================================
  
 Symmetry: ATOM

 Irreducible Representations, including subspecies
 -------------------------------------------------
 S
 P:x  P:y  P:z
 D:z2  D:x2-y2  D:xy  D:xz  D:yz
 F:z3  F:z  F:xyz  F:z2x  F:z2y  F:x  F:y


 Configuration of Valence Electrons
 ==================================

          Occupation Numbers
          -------------------------------------------------
 S        2*2
 P        2
 D        0
 F        0
          -------------------------------------------------

 Total:   6

 Net Charge: 0 (Nuclei minus Electrons)

 Preset values for MO occupations will be applied through SCF cycle no. 1000000
 Thereafter, the program will assign electrons to MOs that are spatially
 similar to the occupied MOs in a "reference" cycle ("KeepOrbitals").
 The reference cycle is always the PREVIOUS cycle: it will evolve with
 the SCF procedure.



 ================================
 (Slater-type)  F U N C T I O N S  ***  (Basis and Fit)  ***
 ================================
  

 Atom Type    1  (C)
 ==============

 Valence Basis Sets:  10
 -----------------------
   1 S    7.680000
   1 S    5.000000
   2 S    1.280000
   2 S    2.100000
   2 S    4.600000
   2 P    0.820000
   2 P    1.480000
   2 P    2.940000
   3 D    2.200000
   4 F    3.300000


 BAS: List of all Elementary Cartesian Basis Functions
 =====================================================

 The numbering in the list below (to the right of the function characteristics) is referred
 to in print-outs of MO eigenvectors and Mulliken populations in the BAS representation
 (as contrasted to the SFO representation).

 Notes:
 1. The functions are characterized by a polynomial prefactor (powers of x,y,z and r) and
    an exponential decay factor alpha.
 2. Since the basis sets are specific for an atom TYPE, the individual functions occur on
    all atoms of that type.
 3. The word 'Core' in the left margin signals that it is a Core Function (CF) : not a
    degree of freedom in the valence set, but only used to ensure orthogonalization of
    the other valence basis functions on the frozen Core Orbitals.


 (power of) X  Y  Z  R     Alpha  on Atom
            ==========     =====     ==========

 C                                    1
                                  ---------------------------------------------------------------------------
            0  0  0  0     7.680      1
            0  0  0  0     5.000      2
            0  0  0  1     1.280      3
            0  0  0  1     2.100      4
            0  0  0  1     4.600      5
            1  0  0  0     0.820      6
            0  1  0  0     0.820      7
            0  0  1  0     0.820      8
            1  0  0  0     1.480      9
            0  1  0  0     1.480     10
            0  0  1  0     1.480     11
            1  0  0  0     2.940     12
            0  1  0  0     2.940     13
            0  0  1  0     2.940     14
            2  0  0  0     2.200     15
            1  1  0  0     2.200     16
            1  0  1  0     2.200     17
            0  2  0  0     2.200     18
            0  1  1  0     2.200     19
            0  0  2  0     2.200     20
            3  0  0  0     3.300     21
            2  1  0  0     3.300     22
            2  0  1  0     3.300     23
            1  2  0  0     3.300     24
            1  1  1  0     3.300     25
            1  0  2  0     3.300     26
            0  3  0  0     3.300     27
            0  2  1  0     3.300     28
            0  1  2  0     3.300     29
            0  0  3  0     3.300     30

 Total number of charge fitting functions (nprimf)        84
 Total number of Cartesian basis functions (naos)         30
 Total number of Cartesian core functions  (ncos)          0



 BAS: List of all Elementary Cartesian Basis Functions
 =====================================================

 The numbering in the list below (to the right of the function characteristics) is referred
 to in print-outs of MO eigenvectors and Mulliken populations in the BAS representation
 (as contrasted to the SFO representation).

 Notes:
 1. The functions are characterized by a polynomial prefactor (powers of x,y,z and r) and
    an exponential decay factor alpha.
 2. Since the basis sets are specific for an atom TYPE, the individual functions occur on
    all atoms of that type.
 3. The word 'Core' in the left margin signals that it is a Core Function (CF) : not a
    degree of freedom in the valence set, but only used to ensure orthogonalization of
    the other valence basis functions on the frozen Core Orbitals.


 (power of) X  Y  Z  R     Alpha  on Atom
            ==========     =====     ==========

 C                                    1
                                  ---------------------------------------------------------------------------
            0  0  0  0     7.680      1
            0  0  0  0     5.000      2
            0  0  0  1     1.280      3
            0  0  0  1     2.100      4
            0  0  0  1     4.600      5
            1  0  0  0     0.820      6
            0  1  0  0     0.820      7
            0  0  1  0     0.820      8
            1  0  0  0     1.480      9
            0  1  0  0     1.480     10
            0  0  1  0     1.480     11
            1  0  0  0     2.940     12
            0  1  0  0     2.940     13
            0  0  1  0     2.940     14
            2  0  0  0     2.200     15
            1  1  0  0     2.200     16
            1  0  1  0     2.200     17
            0  2  0  0     2.200     18
            0  1  1  0     2.200     19
            0  0  2  0     2.200     20
            3  0  0  0     3.300     21
            2  1  0  0     3.300     22
            2  0  1  0     3.300     23
            1  2  0  0     3.300     24
            1  1  1  0     3.300     25
            1  0  2  0     3.300     26
            0  3  0  0     3.300     27
            0  2  1  0     3.300     28
            0  1  2  0     3.300     29
            0  0  3  0     3.300     30
1
 ***************************************************************************************************



                                              ***********************
                                              *  T E C H N I C A L  *
                                              ***********************
  



 =============================================================
 P A R A L L E L I Z A T I O N  and  V E C T O R I Z A T I O N
 =============================================================
  
 Nr of parallel processes:                                1
 Maximum vector length in NumInt loops:                 128

 IO buffersize (Mb):                                     64.000000



 =====================
 S C F   U P D A T E S
 =====================
  
 Max. nr. of cycles:                               300
 Convergence criterion:                              0.0000000100
   secondary criterion:                              0.0000000100

 Mix parameter (when DIIS does not apply):           0.2000000000
 Special mix parameter for the first cycle:          1.0000000000
 Mixed ADIIS+DIIS will be used
    Max number of expansion vectors:                10
    Pure ADIIS when Max([F,P]) is above              0.1000000000
    Pure DIIS when Max([F,P]) is below               0.0010000000
 Automatic ElectronSmearing (in case of problematic SCF convergence) disabled



 =================
 P R E C I S I O N  ***  (General: NumInt, NeglectFunctionTails, ...)  ***
 =================
  

 NumInt:           Target precision:                12.0000000000
 -------           Initial precision:               10.0000000000
                   Min. precision (optimization):   10.0000000000

 Neglect Functions:          Basis functions:        0.1000000000E-13
 ------------------          Fit functions:          0.1000000000E-13



 ===========================
 L I N E A R   S C A L I N G
 ===========================
  

 Cut-off radii density fit:                        0.1000000000E-97
 Overlap cut-off criterion AO matrix elements:     0.1000000000E-97
 Cut-offs for Coulomb potential and fitted density:0.1000000000E-97
 Cut-off criterion for Coulomb multipole terms:    0.1000000000E-97
 Progressive Convergence parameter:                 0.000000000    
1
 ***************************************************************************************************



                                            ***************************
                                            *  C O M P U T A T I O N  *
                                            ***************************
  

 Number of elements of the density matrix on this node (used, total):       465       465



 ===========================================
 Numerical Integration : Fuzzy Cells (Becke)
 ===========================================
  
 Becke grid quality: VERYGOOD       
  
 Lebedev angular grid order:             min:  13 max:  41
 Nr. of radial points:                   min:  72 max:  72

 Total nr. of points:         72
 Nr. of blocks:                1
 Block length:                72
 Nr. of dummy points:          0


 Test of Precision of the Numerical Integration Grid
 ===================================================

 Integral of the Total Core Density:                   0.00000000000000



 ========================
 Density Fitting (zlmFit)
 ========================
  
 ZlmFit Fit Quality: VERYGOOD       
  
 Max L-expansion:                        min:   0 max:   0
 Nr. of radial interpolation points:     min: 160 max: 160



 =====
 S C F  ***  ScaSCF  ***
 =====
  

 CYCLE    1
 SCF Error: norm([F,P])=      0.000000000000, max([F,P])=      0.000000000000
 orbitals (Q,E):
 ---------------
 S :1...5            ( 2.00   -17.9995)  ( 2.00    -4.4761)  ( 0.00    -1.9482)  ( 0.00     0.6812)
                     ( 0.00    42.8100)
 P :1...3            ( 2.00    -4.4994)  ( 0.00    -1.9807)  ( 0.00    -1.0849)
 D :1...1            ( 0.00    -1.9800)
 F :1...1            ( 0.00     0.4950)

 CYCLE    2
  SDIIS (wt  0.000):  1.0000  0.0000
 A-DIIS (wt  1.000):  0.0000  1.0000
  DIIS coefficients:  0.0000  1.0000
 SCF Error: norm([F,P])=      4.480319744476, max([F,P])=      3.328841325837
 orbitals (Q,E):
 ---------------
 S :1...3            ( 2.00    -7.7917)  ( 2.00    -0.0500)  ( 0.00     0.8490)
 P :1...2            ( 2.00     0.1033)  ( 0.00     0.5895)
 D :1...1            ( 0.00     1.7552)
 F :1...1            ( 0.00     4.6366)

 CYCLE    3
  SDIIS (wt  0.000):  0.2185  0.7815
 A-DIIS (wt  1.000):  0.1233  0.8767
  DIIS coefficients:  0.1233  0.8767
 SCF Error: norm([F,P])=      1.636788894664, max([F,P])=      1.315295345514
 orbitals (Q,E):
 ---------------
 S :1...3            ( 2.00   -10.9862)  ( 2.00    -0.9428)  ( 0.00     0.1231)
 P :1...2            ( 2.00    -0.6386)  ( 0.00     0.0246)
 D :1...1            ( 0.00     0.8395)
 F :1...1            ( 0.00     3.5625)

 CYCLE    4
  SDIIS (wt  0.000): -0.0629  0.2184  0.8445
 A-DIIS (wt  1.000):  0.0000  0.0872  0.9128
  DIIS coefficients:  0.0000  0.0872  0.9128
 SCF Error: norm([F,P])=      0.722267649759, max([F,P])=      0.580815510644
 orbitals (Q,E):
 ---------------
 S :1...3            ( 2.00    -9.6419)  ( 2.00    -0.3647)  ( 0.00     0.4682)
 P :1...2            ( 2.00    -0.0765)  ( 0.00     0.2450)
 D :1...1            ( 0.00     1.3742)
 F :1...1            ( 0.00     4.1720)

 CYCLE    5
  SDIIS (wt  0.000): -0.0214 -0.0561  0.3847  0.6927
 A-DIIS (wt  1.000):  0.0000  0.0000  0.2646  0.7354
  DIIS coefficients:  0.0000  0.0000  0.2646  0.7354
 SCF Error: norm([F,P])=      0.412794757847, max([F,P])=      0.328642040749
 orbitals (Q,E):
 ---------------
 S :1...3            ( 2.00   -10.1968)  ( 2.00    -0.5643)  ( 0.00     0.3336)
 P :1...2            ( 2.00    -0.2533)  ( 0.00     0.1428)
 D :1...1            ( 0.00     1.1818)
 F :1...1            ( 0.00     3.9467)

 CYCLE    6
  SDIIS (wt  0.032):  0.0025 -0.0116 -0.0698  0.2077  0.8712
 A-DIIS (wt  0.968):  0.0000  0.0000  0.0000  0.0000  1.0000
  DIIS coefficients:  0.0001 -0.0004 -0.0022  0.0066  0.9959
 SCF Error: norm([F,P])=      0.126643163176, max([F,P])=      0.096847488733
 orbitals (Q,E):
 ---------------
 S :1...3            ( 2.00    -9.9458)  ( 2.00    -0.4545)  ( 0.00     0.4037)
 P :1...2            ( 2.00    -0.1511)  ( 0.00     0.1903)
 D :1...1            ( 0.00     1.2866)
 F :1...1            ( 0.00     4.0669)

 CYCLE    7
  SDIIS (wt  0.100): -0.0001  0.0030  0.0073 -0.1526  0.2846  0.8578
 A-DIIS (wt  0.900):  0.0000  0.0000  0.0000  0.0000  0.4446  0.5554
  DIIS coefficients: -0.0000  0.0003  0.0007 -0.0152  0.4286  0.5856
 SCF Error: norm([F,P])=      0.115568228223, max([F,P])=      0.090123764632
 orbitals (Q,E):
 ---------------
 S :1...3            ( 2.00   -10.0697)  ( 2.00    -0.5032)  ( 0.00     0.3719)
 P :1...2            ( 2.00    -0.1955)  ( 0.00     0.1673)
 D :1...1            ( 0.00     1.2400)
 F :1...1            ( 0.00     4.0128)

 CYCLE    8
  SDIIS (wt  0.958): -0.0001  0.0006  0.0026 -0.0162 -0.0129  0.1023  0.9238
 A-DIIS (wt  0.042):  0.0000  0.0000  0.0000  0.0000  0.0000  0.0000  1.0000
  DIIS coefficients: -0.0001  0.0005  0.0025 -0.0155 -0.0124  0.0980  0.9270
 SCF Error: norm([F,P])=      0.006629277794, max([F,P])=      0.005140885246
 orbitals (Q,E):
 ---------------
 S :1...3            ( 2.00   -10.0626)  ( 2.00    -0.5000)  ( 0.00     0.3739)
 P :1...2            ( 2.00    -0.1926)  ( 0.00     0.1686)
 D :1...1            ( 0.00     1.2431)
 F :1...1            ( 0.00     4.0163)

 CYCLE    9
  SDIIS (wt  1.000): -0.0000 -0.0000 -0.0000 -0.0000  0.0023 -0.0004 -0.0164  1.0145
  DIIS coefficients: -0.0000 -0.0000 -0.0000 -0.0000  0.0023 -0.0004 -0.0164  1.0145
 SCF Error: norm([F,P])=      0.000215737588, max([F,P])=      0.000163422089
 orbitals (Q,E):
 ---------------
 S :1...3            ( 2.00   -10.0628)  ( 2.00    -0.5001)  ( 0.00     0.3739)
 P :1...2            ( 2.00    -0.1927)  ( 0.00     0.1686)
 D :1...1            ( 0.00     1.2430)
 F :1...1            ( 0.00     4.0162)

 CYCLE   10
  SDIIS (wt  1.000):  0.0000 -0.0000 -0.0000  0.0001  0.0000 -0.0011  0.0167  0.9843
  DIIS coefficients:  0.0000 -0.0000 -0.0000  0.0001  0.0000 -0.0011  0.0167  0.9843
 SCF Error: norm([F,P])=      0.000001946475, max([F,P])=      0.000001322855
 orbitals (Q,E):
 ---------------
 S :1...3            ( 2.00   -10.0628)  ( 2.00    -0.5001)  ( 0.00     0.3739)
 P :1...2            ( 2.00    -0.1927)  ( 0.00     0.1686)
 D :1...1            ( 0.00     1.2430)
 F :1...1            ( 0.00     4.0162)

 CYCLE   11
  SDIIS (wt  1.000):  0.0000 -0.0000 -0.0002 -0.0078  1.0079
  DIIS coefficients:  0.0000 -0.0000 -0.0002 -0.0078  1.0079
 SCF Error: norm([F,P])=      0.000000017997, max([F,P])=      0.000000015004
 orbitals (Q,E):
 ---------------
 S :1...3            ( 2.00   -10.0628)  ( 2.00    -0.5001)  ( 0.00     0.3739)
 P :1...2            ( 2.00    -0.1927)  ( 0.00     0.1686)
 D :1...1            ( 0.00     1.2430)
 F :1...1            ( 0.00     4.0162)

 CYCLE   12
  SDIIS (wt  1.000):  0.0000 -0.0001  0.0057  0.9944
  DIIS coefficients:  0.0000 -0.0001  0.0057  0.9944
 SCF Error: norm([F,P])=      0.000000000214, max([F,P])=      0.000000000163
 orbitals (Q,E):
 ---------------
 S :1...3            ( 2.00   -10.0628)  ( 2.00    -0.5001)  ( 0.00     0.3739)
 P :1...2            ( 2.00    -0.1927)  ( 0.00     0.1686)
 D :1...1            ( 0.00     1.2430)
 F :1...1            ( 0.00     4.0162)

 SCF CONVERGED

 CYCLE   13
1
 ***************************************************************************************************



                                                *******************
                                                *  R E S U L T S  *
                                                *******************
  
 *** Setting up for NEW gradients in Focky
 *** Using FIT density in Focky

 Orbital Energies, per Irrep and Spin:
 ======================================
                        Occup              E (au)              E (eV)       Diff (eV) with prev. cycle
                        -----      --------------------        ------       --------------------------
 S
               1        2.000     -0.10062819482682E+02      -273.823              -1.46E-09
               2        2.000     -0.50012405867784E+00       -13.609              -9.06E-10
               3        0.000      0.37386666571789E+00        10.173
               4        0.000      0.54114616881922E+01       147.253
               5        0.000      0.50154618712633E+02      1364.777
 P
               1        2.000     -0.19265861396330E+00        -5.243              -8.46E-10
               2        0.000      0.16859720175392E+00         4.588
               3        0.000      0.20146797119588E+01        54.822
 D
               1        0.000      0.12429821924707E+01        33.823
 F
               1        0.000      0.40162441326384E+01       109.288


 Partially Occupied:
               1 P                -0.19265861396330E+00
  
 HOMO :        2 S                -0.50012405867784E+00
 LUMO :        2 P                 0.16859720175392E+00
  


 Orbital Energies, all Irreps
 ========================================

 Irrep        no.  (spin)   Occup              E (au)                E (eV)
 ---------------------------------------------------------------------------
 S             1             2.00       -0.10062819482682E+02      -273.8233
 S             2             2.00       -0.50012405867784E+00       -13.6091
 P             1             2.00       -0.19265861396330E+00        -5.2425
 P             2             0.00        0.16859720175392E+00         4.5878
 S             3             0.00        0.37386666571789E+00        10.1734
 D             1             0.00        0.12429821924707E+01        33.8233
 P             3             0.00        0.20146797119588E+01        54.8222
 F             1             0.00        0.40162441326384E+01       109.2876
 S             4             0.00        0.54114616881922E+01       147.2534
 S             5             0.00        0.50154618712633E+02      1364.7766


 All Electron Calculation, thus no Orbital Energies of the Core Orbitals are calculated



 =======================================
 M U L L I K E N   P O P U L A T I O N S
 =======================================
  
 The survey below gives for each atom:
 a) the total charge (Z minus electrons)
 b) the net spin polarization (nr of electrons spin-A minus spin-B)
 c) for each spin the atomic electron valence density (integrated) per L-value.

 Atom              Charge    Spin density          S         P         D         F
 ----              ------    ------------       ------    ------    ------    ------
 1 C              -0.0000                       4.0000    2.0000    0.0000    0.0000

 Populations of individual BAS functions
 ----------------------------------------
 1 C            0.4900  1.5029  0.9348  1.1161 -0.0439  0.1802  0.1802  0.1802  0.3776  0.3776
                0.3776  0.1089  0.1089  0.1089  0.0000  0.0000  0.0000  0.0000  0.0000  0.0000
                0.0000  0.0000  0.0000  0.0000  0.0000  0.0000  0.0000  0.0000  0.0000  0.0000

 Gross Charges per Atom (Z minus electrons)
 ==========================================
            -0.0000
 Net Total: -0.00000000



 =======================================================================
 Electrostatic potential at the Nuclei due to electrons and other nuclei
 =======================================================================
  
         Atom                  Potential
         ----                  ---------
     1)   C                  14.67487189
 
 
 ========================
 No memory problems found
 ========================
 
 Maximum number of active allocate calls:         447
 
 *******************************************************************************

                             A D F   E X I T
 NORMAL TERMINATION



 =================
 Timing Statistics
 =================
  
 Total Used :                     CPU=        0.48      System=        0.03     Elapsed=        0.52

 Calls  Section                     ( Mean, Percentage )
 ---------------------------------------------------------------------------------------------------
     3  ><      ................      0.00    0.00             0.00    3.33             0.00    0.15
     1  INIT    ................      0.01    1.86             0.01   50.00             0.03    4.89
     1  GEOMET  ................      0.00    0.62             0.00   16.67             0.01    1.58
     1  INPUTA  ................      0.00    0.41             0.00    0.00             0.00    0.29
     1  MAINSY  ................      0.00    1.03             0.00    3.33             0.01    1.15
     1  SYMFIT  ................      0.00    0.00             0.00    0.00             0.00    0.15
     1  CORORT  ................      0.00    0.21             0.00    0.00             0.00    0.05
     1  SYMORB  ................      0.00    0.00             0.00    0.00             0.00    0.13
     1  CLSMAT  ................      0.01    1.24             0.00    0.00             0.01    1.00
     1  ORTHON  ................      0.00    0.21             0.00    0.00             0.00    0.28
     1  GENPT   ................      0.01    3.10             0.00    0.00             0.01    2.84
     1  PTBAS   ................      0.00    0.62             0.00    0.00             0.00    0.67
    13  FOCKY   ................      0.03   75.83             0.00    6.67             0.03   70.71
    13  FOCKTR  ................      0.00    1.65             0.00   10.00             0.00    2.04
    13  SDIIS   ................      0.00    3.93             0.00   10.00             0.00    4.02
     1  COREPS  ................      0.02    4.34             0.00    0.00             0.02    3.98
     1  POPAN   ................      0.00    1.03             0.00    0.00             0.01    0.99
     1  DEBYE   ................      0.00    0.00             0.00    0.00             0.00    0.11
     1  EXIT PROCEDURE .........      0.02    3.93             0.00    0.00             0.03    4.97


 Currently Open Files (EXIT00)
 ====================

 Unit    Access Format  Status   Type       Ident (file)
 -------------------------------------------------------
   3      SEQ    FORM   TRANSP  NORMAL      LOGFILE
                                          ( logfile )


 Buffered I/O statistics
 =======================
 Memory available:                     67108864
 Number of records fitting in memory:     16131
 Input :   0.1% of                        27803  *4k bytes
 Output:  13.6% of                         1374  *4k bytes
 Records from serial files evicted:           0
                    others evicted:           0
 Hash table lookups:      71867 with          0 conflicts (  0.00%)

 ***************************************************************************************************
 (LOGFILE)
 <Apr25-2019> <15:23:01>  ADF development version  RunTime: Apr25-2019 15:23:01  Nodes: 1  Procs: 1
 <Apr25-2019> <15:23:01>  Oxygen (TZ2P)
 <Apr25-2019> <15:23:01>  RunType   : CREATE
 <Apr25-2019> <15:23:01>  Net Charge: 0 (Nuclei minus Electrons)
 <Apr25-2019> <15:23:01>  Symmetry  : ATOM
  Coordinates
    Atom         X           Y           Z   (Angstrom)
    1.O         0.000000    0.000000    0.000000
 <Apr25-2019> <15:23:01>  >>>> CORORT
 <Apr25-2019> <15:23:01>  >>>> CLSMAT
 <Apr25-2019> <15:23:01>  >>>> ORTHON
 <Apr25-2019> <15:23:01>  >>>> GENPT
 <Apr25-2019> <15:23:01>  Block Length=  68
 <Apr25-2019> <15:23:01>  >>>> PTBAS
 <Apr25-2019> <15:23:01>  >>>> CYCLE
 <Apr25-2019> <15:23:02>              |Error|         MaxErr       Wt(A-DIIS)
 <Apr25-2019> <15:23:02>      1      0.00000000      0.00000000
 <Apr25-2019> <15:23:02>      2      8.76574541      5.51803131    100.0
 <Apr25-2019> <15:23:02>      3      3.58549945      2.49941011    100.0
 <Apr25-2019> <15:23:02>      4      1.14791911      0.58301962    100.0
 <Apr25-2019> <15:23:02>      5      1.51958547      0.84054201    100.0
 <Apr25-2019> <15:23:02>      6      0.17882893      0.10424203    100.0
 <Apr25-2019> <15:23:02>      7      0.20012529      0.11364913    100.0
 <Apr25-2019> <15:23:02>      8      0.01695178      0.00994720      9.0
 <Apr25-2019> <15:23:02>      9      0.00174843      0.00098437      0.0
 <Apr25-2019> <15:23:02>     10      0.00000143      0.00000071      0.0
 <Apr25-2019> <15:23:02>     11      0.00000005      0.00000002      0.0
 <Apr25-2019> <15:23:02>     12      0.00000000      0.00000000      0.0
 <Apr25-2019> <15:23:02>  SCF converged
 <Apr25-2019> <15:23:02>     13      0.00000000      0.00000000      0.0
 <Apr25-2019> <15:23:02>  >>>> POPAN
 <Apr25-2019> <15:23:02>  >>>> DEBYE
 <Apr25-2019> <15:23:02>  NORMAL TERMINATION
 <Apr25-2019> <15:23:02>  END
 <Apr25-2019> <15:23:02>  ADF development version  RunTime: Apr25-2019 15:23:02  Nodes: 1  Procs: 1
 <Apr25-2019> <15:23:02>  Carbon (TZ2P)
 <Apr25-2019> <15:23:02>  RunType   : CREATE
 <Apr25-2019> <15:23:02>  Net Charge: 0 (Nuclei minus Electrons)
 <Apr25-2019> <15:23:02>  Symmetry  : ATOM
  Coordinates
    Atom         X           Y           Z   (Angstrom)
    1.C         0.000000    0.000000    0.000000
 <Apr25-2019> <15:23:02>  >>>> CORORT
 <Apr25-2019> <15:23:02>  >>>> CLSMAT
 <Apr25-2019> <15:23:02>  >>>> ORTHON
 <Apr25-2019> <15:23:02>  >>>> GENPT
 <Apr25-2019> <15:23:02>  Block Length=  72
 <Apr25-2019> <15:23:02>  >>>> PTBAS
 <Apr25-2019> <15:23:02>  >>>> CYCLE
 <Apr25-2019> <15:23:02>              |Error|         MaxErr       Wt(A-DIIS)
 <Apr25-2019> <15:23:02>      1      0.00000000      0.00000000
 <Apr25-2019> <15:23:02>      2      4.48031974      3.32884133    100.0
 <Apr25-2019> <15:23:02>      3      1.63678889      1.31529535    100.0
 <Apr25-2019> <15:23:02>      4      0.72226765      0.58081551    100.0
 <Apr25-2019> <15:23:02>      5      0.41279476      0.32864204    100.0
 <Apr25-2019> <15:23:02>      6      0.12664316      0.09684749     96.8
 <Apr25-2019> <15:23:02>      7      0.11556823      0.09012376     90.0
 <Apr25-2019> <15:23:02>      8      0.00662928      0.00514089      4.2
 <Apr25-2019> <15:23:02>      9      0.00021574      0.00016342      0.0
 <Apr25-2019> <15:23:02>     10      0.00000195      0.00000132      0.0
 <Apr25-2019> <15:23:02>     11      0.00000002      0.00000002      0.0
 <Apr25-2019> <15:23:02>     12      0.00000000      0.00000000      0.0
 <Apr25-2019> <15:23:02>  SCF converged
 <Apr25-2019> <15:23:02>     13      0.00000000      0.00000000      0.0
 <Apr25-2019> <15:23:03>  >>>> POPAN
 <Apr25-2019> <15:23:03>  >>>> DEBYE
 <Apr25-2019> <15:23:03>  NORMAL TERMINATION
 <Apr25-2019> <15:23:03>  END

Create Fe   file=TZ2P-Fe
XC
  GGA blyp
End
End Input

 *******************************************************************************
 *                                                                             *
 *  -------------------------------------                                      *
 *   Amsterdam Density Functional  (ADF)         development version           *
 *  -------------------------------------                                      *
 *                                               r61132 2017-09-08             *
 *                                                                             *
 *                                                                             *
 *                              =================                              *
 *                              |               |                              *
 *                              |     A D F     |                              *
 *                              |               |                              *
 *                              =================                              *
 *                                                                             *
 *                                                                             *
 *   Online information and documentation:  https://www.scm.com/support/       *
 *   E-mail:  support@scm.com   info@scm.com                                   *
 *                                                                             *
 *   Scientific publications using ADF results must be properly referenced     *
 *   See the User Manuals (or the web site) for recommended citations          *
 *   The terms and conditions of the End User License Agreement apply to       *
 *   the use of ADF, https://www.scm.com/license-terms/                        *
 *                                                                             *
 **********************  x86_64_linux_intel / intelmpi  ************************
 
 Licensed to: VU/FEW (+ SARA) / ALGEMEEN / Amsterdam / THE NETHERLANDS
 SCM User ID: u7668
  
 ADF development version  RunTime: Apr25-2019 15:23:03  Nodes: 1  Procs: 1

 Temporary files are created in /local/datastore0/tcst25/187649/kid_0.ovv9Fa

 Iron (TZ2P)



 ===========================
 A T T A C H E D   F I L E S
 ===========================
  
 CREATE - Data File:    TZ2P-Fe
                        Iron (TZ2P)



 ===============================
 M O D E L   P A R A M E T E R S
 ===============================
  
 DENSITY FUNCTIONAL POTENTIAL (scf)
    LDA:                               Exchange only                           == Not Default ==
    Gradient Corrections:              Becke88 LYP                             == Not Default ==

 SPIN  (restricted / unrestr.)
    Molecule:                          Restricted                               

 OTHER ASPECTS
    Relativistic Corrections:          ---                                      

    Nuclear Charge Density Model:      Point Charge Nuclei                      
    Core Treatment:                    Frozen Orbital(s)                        

    Hyperfine or Zeeman Interaction:   ---                                      



 =====================================
 S Y M M E T R Y ,   E L E C T R O N S
 =====================================
  
 Symmetry: ATOM

 Irreducible Representations, including subspecies
 -------------------------------------------------
 S
 P:x  P:y  P:z
 D:z2  D:x2-y2  D:xy  D:xz  D:yz
 F:z3  F:z  F:xyz  F:z2x  F:z2y  F:x  F:y


 Configuration of Valence Electrons
 ==================================

          Occupation Numbers
          -------------------------------------------------
 S        4*2
 P        2*6
 D        6
 F        0
          -------------------------------------------------

 Total:   26

 Net Charge: 0 (Nuclei minus Electrons)

 Preset values for MO occupations will be applied through SCF cycle no. 1000000
 Thereafter, the program will assign electrons to MOs that are spatially
 similar to the occupied MOs in a "reference" cycle ("KeepOrbitals").
 The reference cycle is always the PREVIOUS cycle: it will evolve with
 the SCF procedure.



 ================================
 (Slater-type)  F U N C T I O N S  ***  (Basis and Fit)  ***
 ================================
  

 Atom Type    1  (Fe)
 ==============

 Valence Basis Sets:  19
 -----------------------
   1 S   30.450000
   1 S   23.900000
   2 S   10.050000
   2 S    6.350000
   2 P   14.600000
   2 P    9.200000
   3 S    6.100000
   3 S    3.700000
   3 P    6.250000
   3 P    4.150000
   3 P    2.800000
   3 D    6.400000
   3 D    3.050000
   3 D    1.400000
   4 S    2.300000
   4 S    1.400000
   4 S    0.900000
   4 P    1.390000
   4 F    2.500000


 BAS: List of all Elementary Cartesian Basis Functions
 =====================================================

 The numbering in the list below (to the right of the function characteristics) is referred
 to in print-outs of MO eigenvectors and Mulliken populations in the BAS representation
 (as contrasted to the SFO representation).

 Notes:
 1. The functions are characterized by a polynomial prefactor (powers of x,y,z and r) and
    an exponential decay factor alpha.
 2. Since the basis sets are specific for an atom TYPE, the individual functions occur on
    all atoms of that type.
 3. The word 'Core' in the left margin signals that it is a Core Function (CF) : not a
    degree of freedom in the valence set, but only used to ensure orthogonalization of
    the other valence basis functions on the frozen Core Orbitals.


 (power of) X  Y  Z  R     Alpha  on Atom
            ==========     =====     ==========

 Fe                                   1
                                  ---------------------------------------------------------------------------
            0  0  0  0    30.450      1
            0  0  0  0    23.900      2
            0  0  0  1    10.050      3
            0  0  0  1     6.350      4
            1  0  0  0    14.600      5
            0  1  0  0    14.600      6
            0  0  1  0    14.600      7
            1  0  0  0     9.200      8
            0  1  0  0     9.200      9
            0  0  1  0     9.200     10
            0  0  0  2     6.100     11
            0  0  0  2     3.700     12
            1  0  0  1     6.250     13
            0  1  0  1     6.250     14
            0  0  1  1     6.250     15
            1  0  0  1     4.150     16
            0  1  0  1     4.150     17
            0  0  1  1     4.150     18
            1  0  0  1     2.800     19
            0  1  0  1     2.800     20
            0  0  1  1     2.800     21
            2  0  0  0     6.400     22
            1  1  0  0     6.400     23
            1  0  1  0     6.400     24
            0  2  0  0     6.400     25
            0  1  1  0     6.400     26
            0  0  2  0     6.400     27
            2  0  0  0     3.050     28
            1  1  0  0     3.050     29
            1  0  1  0     3.050     30
            0  2  0  0     3.050     31
            0  1  1  0     3.050     32
            0  0  2  0     3.050     33
            2  0  0  0     1.400     34
            1  1  0  0     1.400     35
            1  0  1  0     1.400     36
            0  2  0  0     1.400     37
            0  1  1  0     1.400     38
            0  0  2  0     1.400     39
            0  0  0  3     2.300     40
            0  0  0  3     1.400     41
            0  0  0  3     0.900     42
            1  0  0  2     1.390     43
            0  1  0  2     1.390     44
            0  0  1  2     1.390     45
            3  0  0  0     2.500     46
            2  1  0  0     2.500     47
            2  0  1  0     2.500     48
            1  2  0  0     2.500     49
            1  1  1  0     2.500     50
            1  0  2  0     2.500     51
            0  3  0  0     2.500     52
            0  2  1  0     2.500     53
            0  1  2  0     2.500     54
            0  0  3  0     2.500     55

 Total number of charge fitting functions (nprimf)       170
 Total number of Cartesian basis functions (naos)         55
 Total number of Cartesian core functions  (ncos)          0



 BAS: List of all Elementary Cartesian Basis Functions
 =====================================================

 The numbering in the list below (to the right of the function characteristics) is referred
 to in print-outs of MO eigenvectors and Mulliken populations in the BAS representation
 (as contrasted to the SFO representation).

 Notes:
 1. The functions are characterized by a polynomial prefactor (powers of x,y,z and r) and
    an exponential decay factor alpha.
 2. Since the basis sets are specific for an atom TYPE, the individual functions occur on
    all atoms of that type.
 3. The word 'Core' in the left margin signals that it is a Core Function (CF) : not a
    degree of freedom in the valence set, but only used to ensure orthogonalization of
    the other valence basis functions on the frozen Core Orbitals.


 (power of) X  Y  Z  R     Alpha  on Atom
            ==========     =====     ==========

 Fe                                   1
                                  ---------------------------------------------------------------------------
            0  0  0  0    30.450      1
            0  0  0  0    23.900      2
            0  0  0  1    10.050      3
            0  0  0  1     6.350      4
            1  0  0  0    14.600      5
            0  1  0  0    14.600      6
            0  0  1  0    14.600      7
            1  0  0  0     9.200      8
            0  1  0  0     9.200      9
            0  0  1  0     9.200     10
            0  0  0  2     6.100     11
            0  0  0  2     3.700     12
            1  0  0  1     6.250     13
            0  1  0  1     6.250     14
            0  0  1  1     6.250     15
            1  0  0  1     4.150     16
            0  1  0  1     4.150     17
            0  0  1  1     4.150     18
            1  0  0  1     2.800     19
            0  1  0  1     2.800     20
            0  0  1  1     2.800     21
            2  0  0  0     6.400     22
            1  1  0  0     6.400     23
            1  0  1  0     6.400     24
            0  2  0  0     6.400     25
            0  1  1  0     6.400     26
            0  0  2  0     6.400     27
            2  0  0  0     3.050     28
            1  1  0  0     3.050     29
            1  0  1  0     3.050     30
            0  2  0  0     3.050     31
            0  1  1  0     3.050     32
            0  0  2  0     3.050     33
            2  0  0  0     1.400     34
            1  1  0  0     1.400     35
            1  0  1  0     1.400     36
            0  2  0  0     1.400     37
            0  1  1  0     1.400     38
            0  0  2  0     1.400     39
            0  0  0  3     2.300     40
            0  0  0  3     1.400     41
            0  0  0  3     0.900     42
            1  0  0  2     1.390     43
            0  1  0  2     1.390     44
            0  0  1  2     1.390     45
            3  0  0  0     2.500     46
            2  1  0  0     2.500     47
            2  0  1  0     2.500     48
            1  2  0  0     2.500     49
            1  1  1  0     2.500     50
            1  0  2  0     2.500     51
            0  3  0  0     2.500     52
            0  2  1  0     2.500     53
            0  1  2  0     2.500     54
            0  0  3  0     2.500     55
1
 ***************************************************************************************************



                                              ***********************
                                              *  T E C H N I C A L  *
                                              ***********************
  



 =============================================================
 P A R A L L E L I Z A T I O N  and  V E C T O R I Z A T I O N
 =============================================================
  
 Nr of parallel processes:                                1
 Maximum vector length in NumInt loops:                 128

 IO buffersize (Mb):                                     64.000000



 =====================
 S C F   U P D A T E S
 =====================
  
 Max. nr. of cycles:                               300
 Convergence criterion:                              0.0000000100
   secondary criterion:                              0.0000000100

 Mix parameter (when DIIS does not apply):           0.2000000000
 Special mix parameter for the first cycle:          1.0000000000
 Mixed ADIIS+DIIS will be used
    Max number of expansion vectors:                10
    Pure ADIIS when Max([F,P]) is above              0.1000000000
    Pure DIIS when Max([F,P]) is below               0.0010000000
 Automatic ElectronSmearing (in case of problematic SCF convergence) disabled



 =================
 P R E C I S I O N  ***  (General: NumInt, NeglectFunctionTails, ...)  ***
 =================
  

 NumInt:           Target precision:                12.0000000000
 -------           Initial precision:               10.0000000000
                   Min. precision (optimization):   10.0000000000

 Neglect Functions:          Basis functions:        0.1000000000E-13
 ------------------          Fit functions:          0.1000000000E-13



 ===========================
 L I N E A R   S C A L I N G
 ===========================
  

 Cut-off radii density fit:                        0.1000000000E-97
 Overlap cut-off criterion AO matrix elements:     0.1000000000E-97
 Cut-offs for Coulomb potential and fitted density:0.1000000000E-97
 Cut-off criterion for Coulomb multipole terms:    0.1000000000E-97
 Progressive Convergence parameter:                 0.000000000    
1
 ***************************************************************************************************



                                            ***************************
                                            *  C O M P U T A T I O N  *
                                            ***************************
  

 Number of elements of the density matrix on this node (used, total):      1540      1540



 ===========================================
 Numerical Integration : Fuzzy Cells (Becke)
 ===========================================
  
 Becke grid quality: VERYGOOD       
  
 Lebedev angular grid order:             min:  13 max:  41
 Nr. of radial points:                   min: 106 max: 106

 Total nr. of points:        106
 Nr. of blocks:                1
 Block length:               106
 Nr. of dummy points:          0


 Test of Precision of the Numerical Integration Grid
 ===================================================

 Integral of the Total Core Density:                   0.00000000000000



 ========================
 Density Fitting (zlmFit)
 ========================
  
 ZlmFit Fit Quality: VERYGOOD       
  
 Max L-expansion:                        min:   0 max:   0
 Nr. of radial interpolation points:     min: 220 max: 220



 =====
 S C F  ***  ScaSCF  ***
 =====
  

 CYCLE    1
 SCF Error: norm([F,P])=      0.000000000000, max([F,P])=      0.000000000000
 orbitals (Q,E):
 ---------------
 S :1...9            ( 2.00  -337.9898)  ( 2.00   -84.4797)  ( 2.00   -37.4823)  ( 2.00   -20.7982)
                     ( 0.00   -12.5461)  ( 0.00    -7.9344)  ( 0.00    -5.5989)  ( 0.00    -3.7734)
                     ( 0.00   442.8473)
 P :1...6            ( 6.00   -84.4643)  ( 6.00   -37.3006)  ( 0.00   -20.7308)  ( 0.00   -12.7517)
                     ( 0.00    -7.0559)  ( 0.00    14.0542)
 D :1...3            ( 6.00   -35.6393)  ( 0.00   -18.1031)  ( 0.00    -8.8555)
 F :1...1            ( 0.00   -13.1250)

 CYCLE    2
  SDIIS (wt  0.000):  1.0000  0.0000
 A-DIIS (wt  1.000):  0.0000  1.0000
  DIIS coefficients:  0.0000  1.0000
 SCF Error: norm([F,P])=     75.537003040835, max([F,P])=     22.792518956475
 orbitals (Q,E):
 ---------------
 S :1...5            ( 2.00  -230.1031)  ( 2.00   -14.5763)  ( 2.00    -0.0724)  ( 2.00     0.0818)
                     ( 0.00     0.5219)
 P :1...3            ( 6.00    -9.4652)  ( 6.00     0.1458)  ( 0.00     1.0315)
 D :1...2            ( 6.00     0.6128)  ( 0.00     3.4624)
 F :1...1            ( 0.00     2.6847)

 CYCLE    3
  SDIIS (wt  0.000):  0.1455  0.8545
 A-DIIS (wt  1.000):  0.3704  0.6296
  DIIS coefficients:  0.3704  0.6296
 SCF Error: norm([F,P])=     27.767609963618, max([F,P])=      7.726547130674
 orbitals (Q,E):
 ---------------
 S :1...5            ( 2.00  -257.5694)  ( 2.00   -33.1190)  ( 2.00    -6.8695)  ( 2.00    -1.5968)
                     ( 0.00    -0.1883)
 P :1...3            ( 6.00   -29.0002)  ( 6.00    -5.6335)  ( 0.00    -1.2008)
 D :1...2            ( 6.00    -3.5782)  ( 0.00    -0.5023)
 F :1...1            ( 0.00    -0.1182)

 CYCLE    4
  SDIIS (wt  0.000): -0.0048  0.0407  0.9640
 A-DIIS (wt  1.000):  0.0000  0.0063  0.9937
  DIIS coefficients:  0.0000  0.0063  0.9937
 SCF Error: norm([F,P])=      5.945501492035, max([F,P])=      1.717462515025
 orbitals (Q,E):
 ---------------
 S :1...5            ( 2.00  -251.5029)  ( 2.00   -26.5875)  ( 2.00    -1.7689)  ( 2.00    -0.0322)
                     ( 0.00     0.1429)
 P :1...3            ( 6.00   -22.4759)  ( 6.00    -0.7001)  ( 0.00     0.1738)
 D :1...2            ( 6.00     0.4383)  ( 0.00     1.4730)
 F :1...1            ( 0.00     2.1829)

 CYCLE    5
  SDIIS (wt  0.000):  0.0004 -0.0338  0.6489  0.3846
 A-DIIS (wt  1.000):  0.0000  0.0000  0.7201  0.2799
  DIIS coefficients:  0.0000  0.0000  0.7201  0.2799
 SCF Error: norm([F,P])=      9.454385460485, max([F,P])=      2.703670184404
 orbitals (Q,E):
 ---------------
 S :1...5            ( 2.00  -254.3233)  ( 2.00   -29.1165)  ( 2.00    -3.2067)  ( 2.00    -0.1813)
                     ( 0.00     0.0317)
 P :1...3            ( 6.00   -25.0562)  ( 6.00    -2.0356)  ( 0.00    -0.0118)
 D :1...2            ( 6.00    -0.1725)  ( 0.00     0.5113)
 F :1...1            ( 0.00     1.6470)

 CYCLE    6
  SDIIS (wt  0.000):  0.0022 -0.0026  0.1655 -0.0822  0.9170
 A-DIIS (wt  1.000):  0.0000  0.0000  0.0000  0.0000  1.0000
  DIIS coefficients:  0.0000  0.0000  0.0000  0.0000  1.0000
 SCF Error: norm([F,P])=      1.866976915563, max([F,P])=      0.548010121313
 orbitals (Q,E):
 ---------------
 S :1...5            ( 2.00  -255.9726)  ( 2.00   -30.5831)  ( 2.00    -3.8786)  ( 2.00    -0.2514)
                     ( 0.00     0.0303)
 P :1...3            ( 6.00   -26.5624)  ( 6.00    -2.6791)  ( 0.00    -0.0657)
 D :1...2            ( 6.00    -0.7127)  ( 0.00     0.3539)
 F :1...1            ( 0.00     1.5115)

 CYCLE    7
  SDIIS (wt  0.000): -0.0010  0.0018 -0.0291 -0.0189  0.6275  0.4198
 A-DIIS (wt  1.000):  0.0000  0.0000  0.0000  0.0000  0.6742  0.3258
  DIIS coefficients:  0.0000  0.0000  0.0000  0.0000  0.6742  0.3258
 SCF Error: norm([F,P])=      2.867707843752, max([F,P])=      0.819918894956
 orbitals (Q,E):
 ---------------
 S :1...5            ( 2.00  -255.0505)  ( 2.00   -29.7924)  ( 2.00    -3.4551)  ( 2.00    -0.1938)
                     ( 0.00     0.0473)
 P :1...3            ( 6.00   -25.7491)  ( 6.00    -2.2687)  ( 0.00    -0.0244)
 D :1...2            ( 6.00    -0.3473)  ( 0.00     0.4440)
 F :1...1            ( 0.00     1.6303)

 CYCLE    8
  SDIIS (wt  0.000): -0.0000  0.0000 -0.0047  0.0013  0.1883 -0.0319  0.8471
 A-DIIS (wt  1.000):  0.0000  0.0000  0.0000  0.0000  0.1187  0.0000  0.8813
  DIIS coefficients:  0.0000  0.0000  0.0000  0.0000  0.1187  0.0000  0.8813
 SCF Error: norm([F,P])=      0.562838509100, max([F,P])=      0.156035329016
 orbitals (Q,E):
 ---------------
 S :1...5            ( 2.00  -254.6899)  ( 2.00   -29.4747)  ( 2.00    -3.2789)  ( 2.00    -0.1760)
                     ( 0.00     0.0526)
 P :1...3            ( 6.00   -25.4238)  ( 6.00    -2.0996)  ( 0.00    -0.0115)
 D :1...2            ( 6.00    -0.2099)  ( 0.00     0.4901)
 F :1...1            ( 0.00     1.6789)

 CYCLE    9
  SDIIS (wt  0.000):  0.0000 -0.0000 -0.0002 -0.0002  0.0028 -0.0430  0.6402  0.4003
 A-DIIS (wt  1.000):  0.0000  0.0000  0.0000  0.0000  0.0000  0.0000  0.5297  0.4703
  DIIS coefficients:  0.0000  0.0000  0.0000  0.0000  0.0000  0.0000  0.5297  0.4703
 SCF Error: norm([F,P])=      0.587051721951, max([F,P])=      0.159211545870
 orbitals (Q,E):
 ---------------
 S :1...5            ( 2.00  -254.8635)  ( 2.00   -29.6306)  ( 2.00    -3.3708)  ( 2.00    -0.1898)
                     ( 0.00     0.0474)
 P :1...3            ( 6.00   -25.5829)  ( 6.00    -2.1881)  ( 0.00    -0.0226)
 D :1...2            ( 6.00    -0.2821)  ( 0.00     0.4611)
 F :1...1            ( 0.00     1.6475)

 CYCLE   10
  SDIIS (wt  0.934):  0.0000 -0.0000 -0.0007  0.0000 -0.0125  0.0005  0.0831  0.0849  0.8447
 A-DIIS (wt  0.066):  0.0000  0.0000  0.0000  0.0000  0.0000  0.0000  0.0000  0.0000  1.0000
  DIIS coefficients:  0.0000 -0.0000 -0.0006  0.0000 -0.0117  0.0005  0.0775  0.0792  0.8551
 SCF Error: norm([F,P])=      0.023166343199, max([F,P])=      0.007576360403
 orbitals (Q,E):
 ---------------
 S :1...5            ( 2.00  -254.8723)  ( 2.00   -29.6365)  ( 2.00    -3.3710)  ( 2.00    -0.1888)
                     ( 0.00     0.0478)
 P :1...3            ( 6.00   -25.5892)  ( 6.00    -2.1881)  ( 0.00    -0.0217)
 D :1...2            ( 6.00    -0.2817)  ( 0.00     0.4617)
[...]

     298.15   Entropy (cal/mole-K):                             41.723    27.152    37.815   106.689
              Internal Energy (Kcal/mole):                       0.889     0.889    31.058    32.835
              Constant Volume Heat Capacity (cal/mole-K):        2.981     2.981    33.289    39.251

              Summary of energy terms
                                                   hartree              eV         kcal/mol           kJ/mol
                                      --------------------     -----------       ----------      -----------
              Bond Energy:              -3.086262965712318        -83.9815         -1936.66         -8102.98
              Internal Energy:           0.052326266237166          1.4239            32.84           137.38
              pV/n = RT:                 0.000944186013486          0.0257             0.59             2.48
              Enthalpy H:               -3.032992513461667        -82.5319         -1903.23         -7963.12
              -T*S:                     -0.050691365927126         -1.3794           -31.81          -133.09
              Gibbs free energy:        -3.083683879388793        -83.9113         -1935.04         -8096.21
 

 ***************************************************************************************************
 


====================================================================
*** DONE CALCULATING ANALYTICAL SECOND DERIVATIVES OF THE ENERGY ***
====================================================================

 
 
 ========================
 No memory problems found
 ========================
 
 Maximum number of active allocate calls:        2574
 
 *******************************************************************************

                             A D F   E X I T
 NORMAL TERMINATION



 =================
 Timing Statistics
 =================
  
 Total Used :                     CPU=      214.12      System=        2.26     Elapsed=      216.68

 Calls  Section                     ( Mean, Percentage )
 ---------------------------------------------------------------------------------------------------
     3  ><      ................      0.00    0.00             0.00    0.00             0.00    0.00
     1  INIT    ................      0.52    0.24             0.02    0.80             0.54    0.25
     1  GEOMET  ................      0.04    0.02             0.01    0.27             0.05    0.02
     1  FRAGM   ................      0.02    0.01             0.01    0.58             0.04    0.02
     1  INPUTA  ................      0.00    0.00             0.00    0.00             0.00    0.00
     1  ATDEN   ................      0.01    0.01             0.00    0.04             0.01    0.01
     3  MAINSY  ................      0.03    0.04             0.01    1.99             0.05    0.07
     3  SYMFIT  ................      0.01    0.01             0.00    0.00             0.01    0.01
     3  CORORT  ................      0.00    0.00             0.00    0.00             0.00    0.00
     3  SYMORB  ................      0.01    0.01             0.00    0.04             0.01    0.01
     3  CLSMAT  ................      0.02    0.02             0.00    0.00             0.02    0.02
     3  ORTHON  ................      0.02    0.02             0.01    0.75             0.02    0.03
     3  GENPT   ................      0.22    0.31             0.01    1.24             0.23    0.32
     3  PTBAS   ................      0.74    1.04             0.02    2.52             0.77    1.07
    29  FOCKY   ................      1.01   13.61             0.01    6.73             1.01   13.52
    29  FOCKTR  ................      0.00    0.06             0.00    3.63             0.01    0.10
    29  SDIIS   ................      0.00    0.04             0.00    0.44             0.01    0.07
     3  TOTEN   ................      2.24    3.14             0.02    2.92             2.27    3.15
     3  POPAN   ................      0.00    0.01             0.00    0.22             0.01    0.01
     3  DEBYE   ................      0.01    0.02             0.00    0.31             0.01    0.02
     3  INPUTE  ................      0.00    0.00             0.00    0.09             0.00    0.00
     3  SYMORE  ................      0.00    0.00             0.00    0.00             0.00    0.00
     5  ELNRGY  ................      1.51    3.53             0.00    0.97             1.52    3.50
     2  ENGRAD  ................      0.00    0.00             0.00    0.04             0.00    0.00
     1  COREPS  ................      0.67    0.31             0.00    0.18             0.67    0.31
     1  METS    ................      0.00    0.00             0.00    0.00             0.00    0.00
     1  CETS    ................      0.01    0.00             0.00    0.09             0.01    0.01
     1  POPUL   ................      0.02    0.01             0.00    0.00             0.02    0.01
     1  ENHESS  ................    165.99   77.52             1.70   75.39           167.85   77.47
     1  EXIT PROCEDURE .........      0.03    0.01             0.02    0.75             0.05    0.02


 Currently Open Files (EXIT00)
 ====================

 Unit    Access Format  Status   Type       Ident (file)
 -------------------------------------------------------
   3      SEQ    FORM   TRANSP  NORMAL      LOGFILE
                                          ( logfile )


 Buffered I/O statistics
 =======================
 Memory available:                     67108864
 Number of records fitting in memory:     16131
 Input :   0.1% of                      1116589  *4k bytes
 Output:   4.8% of                        67933  *4k bytes
 Records from serial files evicted:           0
                    others evicted:           0
 Hash table lookups:    3056004 with     171448 conflicts (  5.61%)

 ***************************************************************************************************
 (LOGFILE)
 <Apr25-2019> <15:23:01>  ADF development version  RunTime: Apr25-2019 15:23:01  Nodes: 1  Procs: 1
 <Apr25-2019> <15:23:01>  Oxygen (TZ2P)
 <Apr25-2019> <15:23:01>  RunType   : CREATE
 <Apr25-2019> <15:23:01>  Net Charge: 0 (Nuclei minus Electrons)
 <Apr25-2019> <15:23:01>  Symmetry  : ATOM
  Coordinates
    Atom         X           Y           Z   (Angstrom)
    1.O         0.000000    0.000000    0.000000
 <Apr25-2019> <15:23:01>  >>>> CORORT
 <Apr25-2019> <15:23:01>  >>>> CLSMAT
 <Apr25-2019> <15:23:01>  >>>> ORTHON
 <Apr25-2019> <15:23:01>  >>>> GENPT
 <Apr25-2019> <15:23:01>  Block Length=  68
 <Apr25-2019> <15:23:01>  >>>> PTBAS
 <Apr25-2019> <15:23:01>  >>>> CYCLE
 <Apr25-2019> <15:23:02>              |Error|         MaxErr       Wt(A-DIIS)
 <Apr25-2019> <15:23:02>      1      0.00000000      0.00000000
 <Apr25-2019> <15:23:02>      2      8.76574541      5.51803131    100.0
 <Apr25-2019> <15:23:02>      3      3.58549945      2.49941011    100.0
 <Apr25-2019> <15:23:02>      4      1.14791911      0.58301962    100.0
 <Apr25-2019> <15:23:02>      5      1.51958547      0.84054201    100.0
 <Apr25-2019> <15:23:02>      6      0.17882893      0.10424203    100.0
 <Apr25-2019> <15:23:02>      7      0.20012529      0.11364913    100.0
 <Apr25-2019> <15:23:02>      8      0.01695178      0.00994720      9.0
 <Apr25-2019> <15:23:02>      9      0.00174843      0.00098437      0.0
 <Apr25-2019> <15:23:02>     10      0.00000143      0.00000071      0.0
 <Apr25-2019> <15:23:02>     11      0.00000005      0.00000002      0.0
 <Apr25-2019> <15:23:02>     12      0.00000000      0.00000000      0.0
 <Apr25-2019> <15:23:02>  SCF converged
 <Apr25-2019> <15:23:02>     13      0.00000000      0.00000000      0.0
 <Apr25-2019> <15:23:02>  >>>> POPAN
 <Apr25-2019> <15:23:02>  >>>> DEBYE
 <Apr25-2019> <15:23:02>  NORMAL TERMINATION
 <Apr25-2019> <15:23:02>  END
 <Apr25-2019> <15:23:02>  ADF development version  RunTime: Apr25-2019 15:23:02  Nodes: 1  Procs: 1
 <Apr25-2019> <15:23:02>  Carbon (TZ2P)
 <Apr25-2019> <15:23:02>  RunType   : CREATE
 <Apr25-2019> <15:23:02>  Net Charge: 0 (Nuclei minus Electrons)
 <Apr25-2019> <15:23:02>  Symmetry  : ATOM
  Coordinates
    Atom         X           Y           Z   (Angstrom)
    1.C         0.000000    0.000000    0.000000
 <Apr25-2019> <15:23:02>  >>>> CORORT
 <Apr25-2019> <15:23:02>  >>>> CLSMAT
 <Apr25-2019> <15:23:02>  >>>> ORTHON
 <Apr25-2019> <15:23:02>  >>>> GENPT
 <Apr25-2019> <15:23:02>  Block Length=  72
 <Apr25-2019> <15:23:02>  >>>> PTBAS
 <Apr25-2019> <15:23:02>  >>>> CYCLE
 <Apr25-2019> <15:23:02>              |Error|         MaxErr       Wt(A-DIIS)
 <Apr25-2019> <15:23:02>      1      0.00000000      0.00000000
 <Apr25-2019> <15:23:02>      2      4.48031974      3.32884133    100.0
 <Apr25-2019> <15:23:02>      3      1.63678889      1.31529535    100.0
 <Apr25-2019> <15:23:02>      4      0.72226765      0.58081551    100.0
 <Apr25-2019> <15:23:02>      5      0.41279476      0.32864204    100.0
 <Apr25-2019> <15:23:02>      6      0.12664316      0.09684749     96.8
 <Apr25-2019> <15:23:02>      7      0.11556823      0.09012376     90.0
 <Apr25-2019> <15:23:02>      8      0.00662928      0.00514089      4.2
 <Apr25-2019> <15:23:02>      9      0.00021574      0.00016342      0.0
 <Apr25-2019> <15:23:02>     10      0.00000195      0.00000132      0.0
 <Apr25-2019> <15:23:02>     11      0.00000002      0.00000002      0.0
 <Apr25-2019> <15:23:02>     12      0.00000000      0.00000000      0.0
 <Apr25-2019> <15:23:02>  SCF converged
 <Apr25-2019> <15:23:02>     13      0.00000000      0.00000000      0.0
 <Apr25-2019> <15:23:03>  >>>> POPAN
 <Apr25-2019> <15:23:03>  >>>> DEBYE
 <Apr25-2019> <15:23:03>  NORMAL TERMINATION
 <Apr25-2019> <15:23:03>  END
 <Apr25-2019> <15:23:03>  ADF development version  RunTime: Apr25-2019 15:23:03  Nodes: 1  Procs: 1
 <Apr25-2019> <15:23:03>  Iron (TZ2P)
 <Apr25-2019> <15:23:03>  RunType   : CREATE
 <Apr25-2019> <15:23:03>  Net Charge: 0 (Nuclei minus Electrons)
 <Apr25-2019> <15:23:03>  Symmetry  : ATOM
  Coordinates
    Atom         X           Y           Z   (Angstrom)
    1.Fe        0.000000    0.000000    0.000000
 <Apr25-2019> <15:23:03>  >>>> CORORT
 <Apr25-2019> <15:23:03>  >>>> CLSMAT
 <Apr25-2019> <15:23:03>  >>>> ORTHON
 <Apr25-2019> <15:23:03>  >>>> GENPT
 <Apr25-2019> <15:23:03>  Block Length= 106
 <Apr25-2019> <15:23:03>  >>>> PTBAS
 <Apr25-2019> <15:23:03>  >>>> CYCLE
 <Apr25-2019> <15:23:03>              |Error|         MaxErr       Wt(A-DIIS)
 <Apr25-2019> <15:23:03>      1      0.00000000      0.00000000
 <Apr25-2019> <15:23:03>      2     75.53700304     22.79251896    100.0
 <Apr25-2019> <15:23:03>      3     27.76760996      7.72654713    100.0
 <Apr25-2019> <15:23:03>      4      5.94550149      1.71746252    100.0
 <Apr25-2019> <15:23:03>      5      9.45438546      2.70367018    100.0
 <Apr25-2019> <15:23:03>      6      1.86697692      0.54801012    100.0
 <Apr25-2019> <15:23:03>      7      2.86770784      0.81991889    100.0
 <Apr25-2019> <15:23:03>      8      0.56283851      0.15603533    100.0
 <Apr25-2019> <15:23:03>      9      0.58705172      0.15921155    100.0
 <Apr25-2019> <15:23:03>     10      0.02316634      0.00757636      6.6
 <Apr25-2019> <15:23:03>     11      0.00075343      0.00023217      0.0
 <Apr25-2019> <15:23:03>     12      0.00001071      0.00000287      0.0
 <Apr25-2019> <15:23:03>     13      0.00000040      0.00000011      0.0
 <Apr25-2019> <15:23:03>     14      0.00000000      0.00000000      0.0
 <Apr25-2019> <15:23:03>  SCF converged
 <Apr25-2019> <15:23:03>     15      0.00000000      0.00000000      0.0
 <Apr25-2019> <15:23:03>  >>>> POPAN
 <Apr25-2019> <15:23:03>  >>>> DEBYE
 <Apr25-2019> <15:23:03>  NORMAL TERMINATION
 <Apr25-2019> <15:23:03>  END
 <Apr25-2019> <15:23:04>  ADF development version  RunTime: Apr25-2019 15:23:04  Nodes: 1  Procs: 12
 <Apr25-2019> <15:23:04>  *** (NO TITLE) ***
 <Apr25-2019> <15:23:04>  RunType   : GEOMETRY OPTIMIZATION
 <Apr25-2019> <15:23:04>  Net Charge: 0 (Nuclei minus Electrons)
 <Apr25-2019> <15:23:04>  Symmetry  : D(3H)
 <Apr25-2019> <15:23:04>  >>>> FRAGM
  Coordinates in Geometry Cycle 1
    Atom         X           Y           Z   (Angstrom)
    1.Fe        0.000000    0.000000    0.000000
    2.C         0.917422    1.589022    0.000000
    3.O         1.495272    2.589887    0.000000
    4.C         0.917422   -1.589022    0.000000
    5.O         1.495272   -2.589887    0.000000
    6.C         0.000000    0.000000    1.835410
    7.O         0.000000    0.000000    2.988000
    8.C         0.000000    0.000000   -1.835410
    9.O         0.000000    0.000000   -2.988000
   10.C        -1.834844    0.000000    0.000000
   11.O        -2.990544    0.000000    0.000000
 <Apr25-2019> <15:23:04>  >>>> CORORT
 <Apr25-2019> <15:23:04>  >>>> CLSMAT
 <Apr25-2019> <15:23:04>  >>>> ORTHON
 <Apr25-2019> <15:23:04>  >>>> GENPT
 <Apr25-2019> <15:23:04>  Block Length= 128
 <Apr25-2019> <15:23:05>  >>>> PTBAS
 <Apr25-2019> <15:23:05>  >>>> CYCLE
 <Apr25-2019> <15:23:07>              |Error|         MaxErr       Wt(A-DIIS)
 <Apr25-2019> <15:23:07>      1      8.58941991      1.47742473
 <Apr25-2019> <15:23:08>      2      1.63897538      0.34699375    100.0
 <Apr25-2019> <15:23:09>      3      2.26531912      0.46505222    100.0
 <Apr25-2019> <15:23:10>      4      3.19778272      0.49145344    100.0
 <Apr25-2019> <15:23:11>      5      1.06436377      0.22049642    100.0
 <Apr25-2019> <15:23:12>      6      0.60901439      0.13443512    100.0
 <Apr25-2019> <15:23:13>      7      0.73968043      0.17102041    100.0
 <Apr25-2019> <15:23:14>      8      0.34691516      0.05738877     57.0
 <Apr25-2019> <15:23:15>      9      0.13206706      0.01807491     17.2
 <Apr25-2019> <15:23:16>     10      0.04051616      0.00863867      7.7
 <Apr25-2019> <15:23:17>     11      0.03516867      0.00811259      7.2
 <Apr25-2019> <15:23:18>     12      0.00353361      0.00069042      0.0
 <Apr25-2019> <15:23:19>     13      0.00016783      0.00003411      0.0
 <Apr25-2019> <15:23:20>     14      0.00012790      0.00002775      0.0
 <Apr25-2019> <15:23:21>     15      0.00002715      0.00000634      0.0
 <Apr25-2019> <15:23:22>     16      0.00000158      0.00000029      0.0
 <Apr25-2019> <15:23:22>  SCF converged
 <Apr25-2019> <15:23:23>     17      0.00000008      0.00000001      0.0
 <Apr25-2019> <15:23:23>  >>>> TOTEN
 <Apr25-2019> <15:23:24>  >>>> POPAN
 <Apr25-2019> <15:23:24>  >>>> DEBYE
 <Apr25-2019> <15:23:24>  >>>> ENGRAD
 <Apr25-2019> <15:23:28>  current energy                               -3.08626136 Hartree
 <Apr25-2019> <15:23:28>  energy change                      -3.08626136     0.00010000    F
 <Apr25-2019> <15:23:28>  constrained gradient max            0.00039341     0.00010000    F
 <Apr25-2019> <15:23:28>  constrained gradient rms            0.00015778     0.00006667    F
 <Apr25-2019> <15:23:28>  gradient max                        0.00039341
 <Apr25-2019> <15:23:28>  gradient rms                        0.00015778
 <Apr25-2019> <15:23:28>  cart. step max                      0.00010893     0.01000000    T
 <Apr25-2019> <15:23:28>  cart. step rms                      0.00004430     0.00666667    T
  Coordinates in Geometry Cycle 2
    Atom         X           Y           Z   (Angstrom)
    1.Fe        0.000000    0.000000    0.000000
    2.C         0.917397    1.588977    0.000000
    3.O         1.495217    2.589792    0.000000
    4.C         0.917397   -1.588977    0.000000
    5.O         1.495217   -2.589792    0.000000
    6.C         0.000000    0.000000    1.835389
    7.O         0.000000    0.000000    2.987899
    8.C         0.000000    0.000000   -1.835389
    9.O         0.000000    0.000000   -2.987899
   10.C        -1.834793    0.000000    0.000000
   11.O        -2.990435    0.000000    0.000000
 <Apr25-2019> <15:23:28>  >>>> CORORT
 <Apr25-2019> <15:23:28>  >>>> CLSMAT
 <Apr25-2019> <15:23:28>  >>>> ORTHON
 <Apr25-2019> <15:23:28>  >>>> GENPT
 <Apr25-2019> <15:23:28>  Block Length= 128
 <Apr25-2019> <15:23:29>  >>>> PTBAS
 <Apr25-2019> <15:23:29>  >>>> CYCLE
 <Apr25-2019> <15:23:31>              |Error|         MaxErr       Wt(A-DIIS)
 <Apr25-2019> <15:23:31>      1      0.00128394      0.00038811
 <Apr25-2019> <15:23:32>      2      0.00018574      0.00002801    100.0
 <Apr25-2019> <15:23:33>      3      0.00057675      0.00010187    100.0
 <Apr25-2019> <15:23:34>      4      0.00041700      0.00009379      0.0
 <Apr25-2019> <15:23:35>      5      0.00014395      0.00003155      0.0
 <Apr25-2019> <15:23:36>      6      0.00001732      0.00000251      0.0
 <Apr25-2019> <15:23:37>      7      0.00001448      0.00000247      0.0
 <Apr25-2019> <15:23:38>      8      0.00000577      0.00000081      0.0
 <Apr25-2019> <15:23:38>  SCF converged
 <Apr25-2019> <15:23:39>      9      0.00000129      0.00000027      0.0
 <Apr25-2019> <15:23:39>  >>>> TOTEN
 <Apr25-2019> <15:23:40>  >>>> POPAN
 <Apr25-2019> <15:23:40>  >>>> DEBYE
 <Apr25-2019> <15:23:40>  >>>> ENGRAD
 <Apr25-2019> <15:23:44>  current energy                               -3.08626297 Hartree
 <Apr25-2019> <15:23:44>  energy change                      -0.00000162     0.00010000    T
 <Apr25-2019> <15:23:44>  constrained gradient max            0.00008376     0.00010000    T
 <Apr25-2019> <15:23:44>  constrained gradient rms            0.00003228     0.00006667    T
 <Apr25-2019> <15:23:44>  gradient max                        0.00008376
 <Apr25-2019> <15:23:44>  gradient rms                        0.00003228
 <Apr25-2019> <15:23:44>  cart. step max                      0.00007885     0.01000000    T
 <Apr25-2019> <15:23:44>  cart. step rms                      0.00003271     0.00666667    T
 <Apr25-2019> <15:23:44>  GEOMETRY CONVERGED
 <Apr25-2019> <15:23:44>  Calculating Energy Terms for Final Geometry
  Coordinates in Geometry Cycle 2
    Atom         X           Y           Z   (Angstrom)
    1.Fe        0.000000    0.000000    0.000000
    2.C         0.917397    1.588977    0.000000
    3.O         1.495217    2.589792    0.000000
    4.C         0.917397   -1.588977    0.000000
    5.O         1.495217   -2.589792    0.000000
    6.C         0.000000    0.000000    1.835389
    7.O         0.000000    0.000000    2.987899
    8.C         0.000000    0.000000   -1.835389
    9.O         0.000000    0.000000   -2.987899
   10.C        -1.834793    0.000000    0.000000
   11.O        -2.990435    0.000000    0.000000
 <Apr25-2019> <15:23:44>  >>>> CORORT
 <Apr25-2019> <15:23:44>  >>>> CLSMAT
 <Apr25-2019> <15:23:44>  >>>> ORTHON
 <Apr25-2019> <15:23:44>  >>>> GENPT
 <Apr25-2019> <15:23:44>  Block Length= 128
 <Apr25-2019> <15:23:44>  >>>> PTBAS
 <Apr25-2019> <15:23:45>  >>>> CYCLE
 <Apr25-2019> <15:23:46>              |Error|         MaxErr       Wt(A-DIIS)
 <Apr25-2019> <15:23:46>      1      0.00090141      0.00034224
 <Apr25-2019> <15:23:47>      2      0.00000100      0.00000024    100.0
 <Apr25-2019> <15:23:48>  SCF converged
 <Apr25-2019> <15:23:48>      3      0.00001273      0.00000304    100.0
 <Apr25-2019> <15:23:49>  >>>> TOTEN
 <Apr25-2019> <15:23:52>  >>>> POPAN
 <Apr25-2019> <15:23:52>  >>>> DEBYE
 <Apr25-2019> <15:23:52>  >>>> AMETS
 <Apr25-2019> <15:23:52>  >>>> POPUL
 <Apr25-2019> <15:23:52>   Bond Energy          -3.08626297 a.u.
 <Apr25-2019> <15:23:52>   Bond Energy         -83.98148830 eV
 <Apr25-2019> <15:23:52>   Bond Energy       -1936.66       kcal/mol
 <Apr25-2019> <15:23:52>  >>>> ENHESS
 <Apr25-2019> <15:23:53>  === NUCLEUS:     1
 <Apr25-2019> <15:24:24>  === NUCLEUS:     2
 <Apr25-2019> <15:24:55>  === NUCLEUS:     4
 <Apr25-2019> <15:25:26>  === NUCLEUS:     7
 <Apr25-2019> <15:26:00>  === NUCLEUS:     9
 <Apr25-2019> <15:26:31>  >>>> CALC_HESS_PMAT
 <Apr25-2019> <15:26:38>  >>>> CALC_HESS_WMAT
 <Apr25-2019> <15:26:40>  NORMAL TERMINATION
 <Apr25-2019> <15:26:40>  END
