
Create O   file=TZ2P-O
XC
  GGA BP86
End
End Input

 *******************************************************************************
 *                                                                             *
 *  -------------------------------------                                      *
 *   Amsterdam Density Functional  (ADF)         development version           *
 *  -------------------------------------                                      *
 *                                               r61132 2017-09-08             *
 *                                                                             *
 *                                                                             *
 *                              =================                              *
 *                              |               |                              *
 *                              |     A D F     |                              *
 *                              |               |                              *
 *                              =================                              *
 *                                                                             *
 *                                                                             *
 *   Online information and documentation:  https://www.scm.com/support/       *
 *   E-mail:  support@scm.com   info@scm.com                                   *
 *                                                                             *
 *   Scientific publications using ADF results must be properly referenced     *
 *   See the User Manuals (or the web site) for recommended citations          *
 *   The terms and conditions of the End User License Agreement apply to       *
 *   the use of ADF, https://www.scm.com/license-terms/                        *
 *                                                                             *
 **********************  x86_64_linux_intel / intelmpi  ************************
 
 Licensed to: VU/FEW (+ SARA) / ALGEMEEN / Amsterdam / THE NETHERLANDS
 SCM User ID: u7668
  
 ADF development version  RunTime: Apr24-2019 16:49:23  Nodes: 1  Procs: 1

 Temporary files are created in /local/datastore0/tcst25/187593/kid_0.shoeuw

 Oxygen (TZ2P)



 ===========================
 A T T A C H E D   F I L E S
 ===========================
  
 CREATE - Data File:    TZ2P-O
                        Oxygen (TZ2P)



 ===============================
 M O D E L   P A R A M E T E R S
 ===============================
  
 DENSITY FUNCTIONAL POTENTIAL (scf)
    LDA:                               VWN                                      
    Gradient Corrections:              Becke88 Perdew86                        == Not Default ==

 SPIN  (restricted / unrestr.)
    Molecule:                          Restricted                               

 OTHER ASPECTS
    Relativistic Corrections:          ---                                      

    Nuclear Charge Density Model:      Point Charge Nuclei                      
    Core Treatment:                    Frozen Orbital(s)                        

    Hyperfine or Zeeman Interaction:   ---                                      



 =====================================
 S Y M M E T R Y ,   E L E C T R O N S
 =====================================
  
 Symmetry: ATOM

 Irreducible Representations, including subspecies
 -------------------------------------------------
 S
 P:x  P:y  P:z
 D:z2  D:x2-y2  D:xy  D:xz  D:yz
 F:z3  F:z  F:xyz  F:z2x  F:z2y  F:x  F:y


 Configuration of Valence Electrons
 ==================================

          Occupation Numbers
          -------------------------------------------------
 S        2*2
 P        4
 D        0
 F        0
          -------------------------------------------------

 Total:   8

 Net Charge: 0 (Nuclei minus Electrons)

 Preset values for MO occupations will be applied through SCF cycle no. 1000000
 Thereafter, the program will assign electrons to MOs that are spatially
 similar to the occupied MOs in a "reference" cycle ("KeepOrbitals").
 The reference cycle is always the PREVIOUS cycle: it will evolve with
 the SCF procedure.



 ================================
 (Slater-type)  F U N C T I O N S  ***  (Basis and Fit)  ***
 ================================
  

 Atom Type    1  (O)
 ==============

 Valence Basis Sets:  10
 -----------------------
   1 S    9.800000
   1 S    6.800000
   2 S    7.580000
   2 S    2.880000
   2 S    1.720000
   2 P    4.080000
   2 P    2.080000
   2 P    1.120000
   3 D    2.000000
   4 F    3.000000


 BAS: List of all Elementary Cartesian Basis Functions
 =====================================================

 The numbering in the list below (to the right of the function characteristics) is referred
 to in print-outs of MO eigenvectors and Mulliken populations in the BAS representation
 (as contrasted to the SFO representation).

 Notes:
 1. The functions are characterized by a polynomial prefactor (powers of x,y,z and r) and
    an exponential decay factor alpha.
 2. Since the basis sets are specific for an atom TYPE, the individual functions occur on
    all atoms of that type.
 3. The word 'Core' in the left margin signals that it is a Core Function (CF) : not a
    degree of freedom in the valence set, but only used to ensure orthogonalization of
    the other valence basis functions on the frozen Core Orbitals.


 (power of) X  Y  Z  R     Alpha  on Atom
            ==========     =====     ==========

 O                                    1
                                  ---------------------------------------------------------------------------
            0  0  0  0     9.800      1
            0  0  0  0     6.800      2
            0  0  0  1     7.580      3
            0  0  0  1     2.880      4
            0  0  0  1     1.720      5
            1  0  0  0     4.080      6
            0  1  0  0     4.080      7
            0  0  1  0     4.080      8
            1  0  0  0     2.080      9
            0  1  0  0     2.080     10
            0  0  1  0     2.080     11
            1  0  0  0     1.120     12
            0  1  0  0     1.120     13
            0  0  1  0     1.120     14
            2  0  0  0     2.000     15
            1  1  0  0     2.000     16
            1  0  1  0     2.000     17
            0  2  0  0     2.000     18
            0  1  1  0     2.000     19
            0  0  2  0     2.000     20
            3  0  0  0     3.000     21
            2  1  0  0     3.000     22
            2  0  1  0     3.000     23
            1  2  0  0     3.000     24
            1  1  1  0     3.000     25
            1  0  2  0     3.000     26
            0  3  0  0     3.000     27
            0  2  1  0     3.000     28
            0  1  2  0     3.000     29
            0  0  3  0     3.000     30

 Total number of charge fitting functions (nprimf)        84
 Total number of Cartesian basis functions (naos)         30
 Total number of Cartesian core functions  (ncos)          0



 BAS: List of all Elementary Cartesian Basis Functions
 =====================================================

 The numbering in the list below (to the right of the function characteristics) is referred
 to in print-outs of MO eigenvectors and Mulliken populations in the BAS representation
 (as contrasted to the SFO representation).

 Notes:
 1. The functions are characterized by a polynomial prefactor (powers of x,y,z and r) and
    an exponential decay factor alpha.
 2. Since the basis sets are specific for an atom TYPE, the individual functions occur on
    all atoms of that type.
 3. The word 'Core' in the left margin signals that it is a Core Function (CF) : not a
    degree of freedom in the valence set, but only used to ensure orthogonalization of
    the other valence basis functions on the frozen Core Orbitals.


 (power of) X  Y  Z  R     Alpha  on Atom
            ==========     =====     ==========

 O                                    1
                                  ---------------------------------------------------------------------------
            0  0  0  0     9.800      1
            0  0  0  0     6.800      2
            0  0  0  1     7.580      3
            0  0  0  1     2.880      4
            0  0  0  1     1.720      5
            1  0  0  0     4.080      6
            0  1  0  0     4.080      7
            0  0  1  0     4.080      8
            1  0  0  0     2.080      9
            0  1  0  0     2.080     10
            0  0  1  0     2.080     11
            1  0  0  0     1.120     12
            0  1  0  0     1.120     13
            0  0  1  0     1.120     14
            2  0  0  0     2.000     15
            1  1  0  0     2.000     16
            1  0  1  0     2.000     17
            0  2  0  0     2.000     18
            0  1  1  0     2.000     19
            0  0  2  0     2.000     20
            3  0  0  0     3.000     21
            2  1  0  0     3.000     22
            2  0  1  0     3.000     23
            1  2  0  0     3.000     24
            1  1  1  0     3.000     25
            1  0  2  0     3.000     26
            0  3  0  0     3.000     27
            0  2  1  0     3.000     28
            0  1  2  0     3.000     29
            0  0  3  0     3.000     30
1
 ***************************************************************************************************



                                              ***********************
                                              *  T E C H N I C A L  *
                                              ***********************
  



 =============================================================
 P A R A L L E L I Z A T I O N  and  V E C T O R I Z A T I O N
 =============================================================
  
 Nr of parallel processes:                                1
 Maximum vector length in NumInt loops:                 128

 IO buffersize (Mb):                                     64.000000



 =====================
 S C F   U P D A T E S
 =====================
  
 Max. nr. of cycles:                               300
 Convergence criterion:                              0.0000000100
   secondary criterion:                              0.0000000100

 Mix parameter (when DIIS does not apply):           0.2000000000
 Special mix parameter for the first cycle:          1.0000000000
 Mixed ADIIS+DIIS will be used
    Max number of expansion vectors:                10
    Pure ADIIS when Max([F,P]) is above              0.1000000000
    Pure DIIS when Max([F,P]) is below               0.0010000000
 Automatic ElectronSmearing (in case of problematic SCF convergence) disabled



 =================
 P R E C I S I O N  ***  (General: NumInt, NeglectFunctionTails, ...)  ***
 =================
  

 NumInt:           Target precision:                12.0000000000
 -------           Initial precision:               10.0000000000
                   Min. precision (optimization):   10.0000000000

 Neglect Functions:          Basis functions:        0.1000000000E-13
 ------------------          Fit functions:          0.1000000000E-13



 ===========================
 L I N E A R   S C A L I N G
 ===========================
  

 Cut-off radii density fit:                        0.1000000000E-97
 Overlap cut-off criterion AO matrix elements:     0.1000000000E-97
 Cut-offs for Coulomb potential and fitted density:0.1000000000E-97
 Cut-off criterion for Coulomb multipole terms:    0.1000000000E-97
 Progressive Convergence parameter:                 0.000000000    
1
 ***************************************************************************************************



                                            ***************************
                                            *  C O M P U T A T I O N  *
                                            ***************************
  

 Number of elements of the density matrix on this node (used, total):       465       465



 ===========================================
 Numerical Integration : Fuzzy Cells (Becke)
 ===========================================
  
 Becke grid quality: VERYGOOD       
  
 Lebedev angular grid order:             min:  13 max:  41
 Nr. of radial points:                   min:  68 max:  68

 Total nr. of points:         68
 Nr. of blocks:                1
 Block length:                68
 Nr. of dummy points:          0


 Test of Precision of the Numerical Integration Grid
 ===================================================

 Integral of the Total Core Density:                   0.00000000000000



 ========================
 Density Fitting (zlmFit)
 ========================
  
 ZlmFit Fit Quality: VERYGOOD       
  
 Max L-expansion:                        min:   0 max:   0
 Nr. of radial interpolation points:     min: 180 max: 180



 =====
 S C F  ***  ScaSCF  ***
 =====
  

 CYCLE    1
 SCF Error: norm([F,P])=      0.000000000000, max([F,P])=      0.000000000000
 orbitals (Q,E):
 ---------------
 S :1...5            ( 2.00   -31.9999)  ( 2.00    -7.9363)  ( 0.00    -3.4636)  ( 0.00     4.3191)
                     ( 0.00   110.5486)
 P :1...3            ( 4.00    -7.9991)  ( 0.00    -3.4855)  ( 0.00    -1.8903)
 D :1...1            ( 0.00    -3.3333)
 F :1...1            ( 0.00    -1.5000)

 CYCLE    2
  SDIIS (wt  0.000):  1.0000  0.0000
 A-DIIS (wt  1.000):  0.0000  1.0000
  DIIS coefficients:  0.0000  1.0000
 SCF Error: norm([F,P])=      8.763723861746, max([F,P])=      5.504047077709
 orbitals (Q,E):
 ---------------
 S :1...3            ( 2.00   -14.5449)  ( 2.00     0.0344)  ( 0.00     1.8263)
 P :1...2            ( 4.00     0.2469)  ( 0.00     1.2272)
 D :1...1            ( 0.00     1.5934)
 F :1...1            ( 0.00     3.9983)

 CYCLE    3
  SDIIS (wt  0.000):  0.2251  0.7749
 A-DIIS (wt  1.000):  0.3091  0.6909
  DIIS coefficients:  0.3091  0.6909
 SCF Error: norm([F,P])=      3.550503550263, max([F,P])=      2.507940932922
 orbitals (Q,E):
 ---------------
 S :1...3            ( 2.00   -19.8394)  ( 2.00    -1.5343)  ( 0.00     0.4013)
 P :1...2            ( 4.00    -0.9851)  ( 0.00     0.1214)
 D :1...1            ( 0.00     0.6528)
 F :1...1            ( 0.00     2.8613)

 CYCLE    4
  SDIIS (wt  0.000): -0.0464  0.1718  0.8747
 A-DIIS (wt  1.000):  0.0000  0.0000  1.0000
  DIIS coefficients:  0.0000  0.0000  1.0000
 SCF Error: norm([F,P])=      1.162816490108, max([F,P])=      0.589385445639
 orbitals (Q,E):
 ---------------
 S :1...3            ( 2.00   -18.0312)  ( 2.00    -0.5522)  ( 0.00     1.0481)
 P :1...2            ( 4.00    -0.0415)  ( 0.00     0.5491)
 D :1...1            ( 0.00     1.2464)
 F :1...1            ( 0.00     3.5663)

 CYCLE    5
  SDIIS (wt  0.000): -0.0158 -0.0743  0.5541  0.5359
 A-DIIS (wt  1.000):  0.0000  0.0000  0.6076  0.3924
  DIIS coefficients:  0.0000  0.0000  0.6076  0.3924
 SCF Error: norm([F,P])=      1.417344712015, max([F,P])=      0.798262747815
 orbitals (Q,E):
 ---------------
 S :1...3            ( 2.00   -18.8378)  ( 2.00    -0.8686)  ( 0.00     0.8073)
 P :1...2            ( 4.00    -0.3200)  ( 0.00     0.3673)
 D :1...1            ( 0.00     1.0667)
 F :1...1            ( 0.00     3.3515)

 CYCLE    6
  SDIIS (wt  0.307):  0.0042  0.0008  0.0388 -0.0307  0.9869
 A-DIIS (wt  0.693):  0.0000  0.0000  0.0000  0.0000  1.0000
  DIIS coefficients:  0.0013  0.0002  0.0119 -0.0094  0.9960
 SCF Error: norm([F,P])=      0.115741943836, max([F,P])=      0.069590667061
 orbitals (Q,E):
 ---------------
 S :1...3            ( 2.00   -18.9671)  ( 2.00    -0.9011)  ( 0.00     0.7792)
 P :1...2            ( 4.00    -0.3533)  ( 0.00     0.3477)
 D :1...1            ( 0.00     1.0532)
 F :1...1            ( 0.00     3.3373)

 CYCLE    7
  SDIIS (wt  0.598): -0.0003  0.0005 -0.0082  0.0150  0.1989  0.7941
 A-DIIS (wt  0.402):  0.0000  0.0000  0.0000  0.0000  0.3342  0.6658
  DIIS coefficients: -0.0002  0.0003 -0.0049  0.0089  0.2533  0.7425
 SCF Error: norm([F,P])=      0.069878773221, max([F,P])=      0.040828707423
 orbitals (Q,E):
 ---------------
 S :1...3            ( 2.00   -18.9164)  ( 2.00    -0.8826)  ( 0.00     0.7916)
 P :1...2            ( 4.00    -0.3354)  ( 0.00     0.3558)
 D :1...1            ( 0.00     1.0625)
 F :1...1            ( 0.00     3.3485)

 CYCLE    8
  SDIIS (wt  0.979): -0.0000  0.0001  0.0020 -0.0019 -0.0100  0.0019  1.0079
 A-DIIS (wt  0.021):  0.0000  0.0000  0.0000  0.0000  0.0000  0.0000  1.0000
  DIIS coefficients: -0.0000  0.0001  0.0020 -0.0019 -0.0098  0.0019  1.0077
 SCF Error: norm([F,P])=      0.005710534180, max([F,P])=      0.003038763842
 orbitals (Q,E):
 ---------------
 S :1...3            ( 2.00   -18.9198)  ( 2.00    -0.8843)  ( 0.00     0.7903)
 P :1...2            ( 4.00    -0.3371)  ( 0.00     0.3548)
 D :1...1            ( 0.00     1.0615)
 F :1...1            ( 0.00     3.3474)

 CYCLE    9
  SDIIS (wt  1.000):  0.0000 -0.0000 -0.0000  0.0000 -0.0002 -0.0019  0.0084  0.9937
  DIIS coefficients:  0.0000 -0.0000 -0.0000  0.0000 -0.0002 -0.0019  0.0084  0.9937
 SCF Error: norm([F,P])=      0.000160629235, max([F,P])=      0.000090819912
 orbitals (Q,E):
 ---------------
 S :1...3            ( 2.00   -18.9197)  ( 2.00    -0.8843)  ( 0.00     0.7903)
 P :1...2            ( 4.00    -0.3370)  ( 0.00     0.3549)
 D :1...1            ( 0.00     1.0615)
 F :1...1            ( 0.00     3.3474)

 CYCLE   10
  SDIIS (wt  1.000):  0.0000 -0.0000  0.0000  0.0000  0.0003 -0.0027  1.0024
  DIIS coefficients:  0.0000 -0.0000  0.0000  0.0000  0.0003 -0.0027  1.0024
 SCF Error: norm([F,P])=      0.000000381814, max([F,P])=      0.000000145768
 orbitals (Q,E):
 ---------------
 S :1...3            ( 2.00   -18.9197)  ( 2.00    -0.8843)  ( 0.00     0.7903)
 P :1...2            ( 4.00    -0.3370)  ( 0.00     0.3549)
 D :1...1            ( 0.00     1.0615)
 F :1...1            ( 0.00     3.3474)

 CYCLE   11
  SDIIS (wt  1.000):  0.0000  0.0001 -0.0071  1.0070
  DIIS coefficients:  0.0000  0.0001 -0.0071  1.0070
 SCF Error: norm([F,P])=      0.000000005917, max([F,P])=      0.000000003743
 orbitals (Q,E):
 ---------------
 S :1...3            ( 2.00   -18.9197)  ( 2.00    -0.8843)  ( 0.00     0.7903)
 P :1...2            ( 4.00    -0.3370)  ( 0.00     0.3549)
 D :1...1            ( 0.00     1.0615)
 F :1...1            ( 0.00     3.3474)

 SCF CONVERGED

 CYCLE   12
1
 ***************************************************************************************************



                                                *******************
                                                *  R E S U L T S  *
                                                *******************
  
 *** Setting up for NEW gradients in Focky
 *** Using FIT density in Focky

 Orbital Energies, per Irrep and Spin:
 ======================================
                        Occup              E (au)              E (eV)       Diff (eV) with prev. cycle
                        -----      --------------------        ------       --------------------------
 S
               1        2.000     -0.18919718912958E+02      -514.832               3.15E-09
               2        2.000     -0.88429092651565E+00       -24.063               2.24E-09
               3        0.000      0.79032594985457E+00        21.506
               4        0.000      0.13477860511135E+02       366.751
               5        0.000      0.12313587623552E+03      3350.698
 P
               1        4.000     -0.33702852341123E+00        -9.171               2.15E-09
               2        0.000      0.35486127816590E+00         9.656
               3        0.000      0.38373828087305E+01       104.420
 D
               1        0.000      0.10615105164383E+01        28.885
 F
               1        0.000      0.33473814762566E+01        91.087


 Partially Occupied:
               1 P                -0.33702852341123E+00
  
 HOMO :        2 S                -0.88429092651565E+00
 LUMO :        2 P                 0.35486127816590E+00
  


 Orbital Energies, all Irreps
 ========================================

 Irrep        no.  (spin)   Occup              E (au)                E (eV)
 ---------------------------------------------------------------------------
 S             1             2.00       -0.18919718912958E+02      -514.8317
 S             2             2.00       -0.88429092651565E+00       -24.0628
 P             1             4.00       -0.33702852341123E+00        -9.1710
 P             2             0.00        0.35486127816590E+00         9.6563
 S             3             0.00        0.79032594985457E+00        21.5059
 D             1             0.00        0.10615105164383E+01        28.8852
 F             1             0.00        0.33473814762566E+01        91.0869
 P             3             0.00        0.38373828087305E+01       104.4205
 S             4             0.00        0.13477860511135E+02       366.7512
 S             5             0.00        0.12313587623552E+03      3350.6977


 All Electron Calculation, thus no Orbital Energies of the Core Orbitals are calculated



 =======================================
 M U L L I K E N   P O P U L A T I O N S
 =======================================
  
 The survey below gives for each atom:
 a) the total charge (Z minus electrons)
 b) the net spin polarization (nr of electrons spin-A minus spin-B)
 c) for each spin the atomic electron valence density (integrated) per L-value.

 Atom              Charge    Spin density          S         P         D         F
 ----              ------    ------------       ------    ------    ------    ------
 1 O               0.0000                       4.0000    4.0000    0.0000    0.0000

 Populations of individual BAS functions
 ----------------------------------------
 1 O            0.6242  1.3624 -0.0210  1.1431  0.8913  0.2472  0.2472  0.2472  0.7523  0.7523
                0.7523  0.3338  0.3338  0.3338  0.0000  0.0000  0.0000  0.0000  0.0000  0.0000
                0.0000  0.0000  0.0000  0.0000  0.0000  0.0000  0.0000  0.0000  0.0000  0.0000

 Gross Charges per Atom (Z minus electrons)
 ==========================================
             0.0000
 Net Total:  0.00000000



 =======================================================================
 Electrostatic potential at the Nuclei due to electrons and other nuclei
 =======================================================================
  
         Atom                  Potential
         ----                  ---------
     1)   O                  22.23535716
 
 
 ========================
 No memory problems found
 ========================
 
 Maximum number of active allocate calls:         447
 
 *******************************************************************************

                             A D F   E X I T
 NORMAL TERMINATION



 =================
 Timing Statistics
 =================
  
 Total Used :                     CPU=        0.50      System=        0.03     Elapsed=        0.53

 Calls  Section                     ( Mean, Percentage )
 ---------------------------------------------------------------------------------------------------
     3  ><      ................      0.00    0.00             0.00    0.00             0.00    0.15
     1  INIT    ................      0.01    1.99             0.02   58.62             0.03    5.31
     1  GEOMET  ................      0.01    1.20             0.00   10.34             0.01    1.63
     1  INPUTA  ................      0.00    0.40             0.00    0.00             0.00    0.29
     1  MAINSY  ................      0.00    0.60             0.00   10.35             0.01    1.15
     1  SYMFIT  ................      0.00    0.00             0.00    3.45             0.00    0.16
     1  CORORT  ................      0.00    0.00             0.00    0.00             0.00    0.05
     1  SYMORB  ................      0.00    0.20             0.00    0.00             0.00    0.13
     1  CLSMAT  ................      0.00    1.00             0.00    0.00             0.01    0.99
     1  ORTHON  ................      0.00    0.40             0.00    0.00             0.00    0.28
     1  GENPT   ................      0.01    2.79             0.00    0.00             0.01    2.77
     1  PTBAS   ................      0.00    0.80             0.00    0.00             0.00    0.66
    12  FOCKY   ................      0.03   76.10             0.00    3.45             0.03   72.08
    12  FOCKTR  ................      0.00    2.39             0.00    0.00             0.00    1.91
    12  SDIIS   ................      0.00    3.59             0.00    0.00             0.00    3.62
     1  COREPS  ................      0.02    4.18             0.00    6.90             0.02    4.32
     1  POPAN   ................      0.00    1.00             0.00    0.00             0.01    0.98
     1  DEBYE   ................      0.00    0.00             0.00    3.45             0.00    0.10
     1  EXIT PROCEDURE .........      0.02    3.39             0.00    3.45             0.02    3.44


 Currently Open Files (EXIT00)
 ====================

 Unit    Access Format  Status   Type       Ident (file)
 -------------------------------------------------------
   3      SEQ    FORM   TRANSP  NORMAL      LOGFILE
                                          ( logfile )


 Buffered I/O statistics
 =======================
 Memory available:                     67108864
 Number of records fitting in memory:     16131
 Input :   0.1% of                        26808  *4k bytes
 Output:  13.6% of                         1377  *4k bytes
 Records from serial files evicted:           0
                    others evicted:           0
 Hash table lookups:      69204 with          0 conflicts (  0.00%)

 ***************************************************************************************************
 (LOGFILE)
 <Apr24-2019> <16:49:23>  ADF development version  RunTime: Apr24-2019 16:49:23  Nodes: 1  Procs: 1
 <Apr24-2019> <16:49:23>  Oxygen (TZ2P)
 <Apr24-2019> <16:49:23>  RunType   : CREATE
 <Apr24-2019> <16:49:24>  Net Charge: 0 (Nuclei minus Electrons)
 <Apr24-2019> <16:49:24>  Symmetry  : ATOM
  Coordinates
    Atom         X           Y           Z   (Angstrom)
    1.O         0.000000    0.000000    0.000000
 <Apr24-2019> <16:49:24>  >>>> CORORT
 <Apr24-2019> <16:49:24>  >>>> CLSMAT
 <Apr24-2019> <16:49:24>  >>>> ORTHON
 <Apr24-2019> <16:49:24>  >>>> GENPT
 <Apr24-2019> <16:49:24>  Block Length=  68
 <Apr24-2019> <16:49:24>  >>>> PTBAS
 <Apr24-2019> <16:49:24>  >>>> CYCLE
 <Apr24-2019> <16:49:24>              |Error|         MaxErr       Wt(A-DIIS)
 <Apr24-2019> <16:49:24>      1      0.00000000      0.00000000
 <Apr24-2019> <16:49:24>      2      8.76372386      5.50404708    100.0
 <Apr24-2019> <16:49:24>      3      3.55050355      2.50794093    100.0
 <Apr24-2019> <16:49:24>      4      1.16281649      0.58938545    100.0
 <Apr24-2019> <16:49:24>      5      1.41734471      0.79826275    100.0
 <Apr24-2019> <16:49:24>      6      0.11574194      0.06959067     69.3
 <Apr24-2019> <16:49:24>      7      0.06987877      0.04082871     40.2
 <Apr24-2019> <16:49:24>      8      0.00571053      0.00303876      2.1
 <Apr24-2019> <16:49:24>      9      0.00016063      0.00009082      0.0
 <Apr24-2019> <16:49:24>     10      0.00000038      0.00000015      0.0
 <Apr24-2019> <16:49:24>     11      0.00000001      0.00000000      0.0
 <Apr24-2019> <16:49:24>  SCF converged
 <Apr24-2019> <16:49:24>     12      0.00000000      0.00000000      0.0
 <Apr24-2019> <16:49:24>  >>>> POPAN
 <Apr24-2019> <16:49:24>  >>>> DEBYE
 <Apr24-2019> <16:49:24>  NORMAL TERMINATION
 <Apr24-2019> <16:49:24>  END

Create C   file=TZ2P-C
XC
  GGA BP86
End
End Input

 *******************************************************************************
 *                                                                             *
 *  -------------------------------------                                      *
 *   Amsterdam Density Functional  (ADF)         development version           *
 *  -------------------------------------                                      *
 *                                               r61132 2017-09-08             *
 *                                                                             *
 *                                                                             *
 *                              =================                              *
 *                              |               |                              *
 *                              |     A D F     |                              *
 *                              |               |                              *
 *                              =================                              *
 *                                                                             *
 *                                                                             *
 *   Online information and documentation:  https://www.scm.com/support/       *
 *   E-mail:  support@scm.com   info@scm.com                                   *
 *                                                                             *
 *   Scientific publications using ADF results must be properly referenced     *
 *   See the User Manuals (or the web site) for recommended citations          *
 *   The terms and conditions of the End User License Agreement apply to       *
 *   the use of ADF, https://www.scm.com/license-terms/                        *
 *                                                                             *
 **********************  x86_64_linux_intel / intelmpi  ************************
 
 Licensed to: VU/FEW (+ SARA) / ALGEMEEN / Amsterdam / THE NETHERLANDS
 SCM User ID: u7668
  
 ADF development version  RunTime: Apr24-2019 16:49:24  Nodes: 1  Procs: 1

 Temporary files are created in /local/datastore0/tcst25/187593/kid_0.JqVYY5

 Carbon (TZ2P)



 ===========================
 A T T A C H E D   F I L E S
 ===========================
  
 CREATE - Data File:    TZ2P-C
                        Carbon (TZ2P)



 ===============================
 M O D E L   P A R A M E T E R S
 ===============================
  
 DENSITY FUNCTIONAL POTENTIAL (scf)
    LDA:                               VWN                                      
    Gradient Corrections:              Becke88 Perdew86                        == Not Default ==

 SPIN  (restricted / unrestr.)
    Molecule:                          Restricted                               

 OTHER ASPECTS
    Relativistic Corrections:          ---                                      

    Nuclear Charge Density Model:      Point Charge Nuclei                      
    Core Treatment:                    Frozen Orbital(s)                        

    Hyperfine or Zeeman Interaction:   ---                                      



 =====================================
 S Y M M E T R Y ,   E L E C T R O N S
 =====================================
  
 Symmetry: ATOM

 Irreducible Representations, including subspecies
 -------------------------------------------------
 S
 P:x  P:y  P:z
 D:z2  D:x2-y2  D:xy  D:xz  D:yz
 F:z3  F:z  F:xyz  F:z2x  F:z2y  F:x  F:y


 Configuration of Valence Electrons
 ==================================

          Occupation Numbers
          -------------------------------------------------
 S        2*2
 P        2
 D        0
 F        0
          -------------------------------------------------

 Total:   6

 Net Charge: 0 (Nuclei minus Electrons)

 Preset values for MO occupations will be applied through SCF cycle no. 1000000
 Thereafter, the program will assign electrons to MOs that are spatially
 similar to the occupied MOs in a "reference" cycle ("KeepOrbitals").
 The reference cycle is always the PREVIOUS cycle: it will evolve with
 the SCF procedure.



 ================================
 (Slater-type)  F U N C T I O N S  ***  (Basis and Fit)  ***
 ================================
  

 Atom Type    1  (C)
 ==============

 Valence Basis Sets:  10
 -----------------------
   1 S    7.680000
   1 S    5.000000
   2 S    1.280000
   2 S    2.100000
   2 S    4.600000
   2 P    0.820000
   2 P    1.480000
   2 P    2.940000
   3 D    2.200000
   4 F    3.300000


 BAS: List of all Elementary Cartesian Basis Functions
 =====================================================

 The numbering in the list below (to the right of the function characteristics) is referred
 to in print-outs of MO eigenvectors and Mulliken populations in the BAS representation
 (as contrasted to the SFO representation).

 Notes:
 1. The functions are characterized by a polynomial prefactor (powers of x,y,z and r) and
    an exponential decay factor alpha.
 2. Since the basis sets are specific for an atom TYPE, the individual functions occur on
    all atoms of that type.
 3. The word 'Core' in the left margin signals that it is a Core Function (CF) : not a
    degree of freedom in the valence set, but only used to ensure orthogonalization of
    the other valence basis functions on the frozen Core Orbitals.


 (power of) X  Y  Z  R     Alpha  on Atom
            ==========     =====     ==========

 C                                    1
                                  ---------------------------------------------------------------------------
            0  0  0  0     7.680      1
            0  0  0  0     5.000      2
            0  0  0  1     1.280      3
            0  0  0  1     2.100      4
            0  0  0  1     4.600      5
            1  0  0  0     0.820      6
            0  1  0  0     0.820      7
            0  0  1  0     0.820      8
            1  0  0  0     1.480      9
            0  1  0  0     1.480     10
            0  0  1  0     1.480     11
            1  0  0  0     2.940     12
            0  1  0  0     2.940     13
            0  0  1  0     2.940     14
            2  0  0  0     2.200     15
            1  1  0  0     2.200     16
            1  0  1  0     2.200     17
            0  2  0  0     2.200     18
            0  1  1  0     2.200     19
            0  0  2  0     2.200     20
            3  0  0  0     3.300     21
            2  1  0  0     3.300     22
            2  0  1  0     3.300     23
            1  2  0  0     3.300     24
            1  1  1  0     3.300     25
            1  0  2  0     3.300     26
            0  3  0  0     3.300     27
            0  2  1  0     3.300     28
            0  1  2  0     3.300     29
            0  0  3  0     3.300     30

 Total number of charge fitting functions (nprimf)        84
 Total number of Cartesian basis functions (naos)         30
 Total number of Cartesian core functions  (ncos)          0



 BAS: List of all Elementary Cartesian Basis Functions
 =====================================================

 The numbering in the list below (to the right of the function characteristics) is referred
 to in print-outs of MO eigenvectors and Mulliken populations in the BAS representation
 (as contrasted to the SFO representation).

 Notes:
 1. The functions are characterized by a polynomial prefactor (powers of x,y,z and r) and
    an exponential decay factor alpha.
 2. Since the basis sets are specific for an atom TYPE, the individual functions occur on
    all atoms of that type.
 3. The word 'Core' in the left margin signals that it is a Core Function (CF) : not a
    degree of freedom in the valence set, but only used to ensure orthogonalization of
    the other valence basis functions on the frozen Core Orbitals.


 (power of) X  Y  Z  R     Alpha  on Atom
            ==========     =====     ==========

 C                                    1
                                  ---------------------------------------------------------------------------
            0  0  0  0     7.680      1
            0  0  0  0     5.000      2
            0  0  0  1     1.280      3
            0  0  0  1     2.100      4
            0  0  0  1     4.600      5
            1  0  0  0     0.820      6
            0  1  0  0     0.820      7
            0  0  1  0     0.820      8
            1  0  0  0     1.480      9
            0  1  0  0     1.480     10
            0  0  1  0     1.480     11
            1  0  0  0     2.940     12
            0  1  0  0     2.940     13
            0  0  1  0     2.940     14
            2  0  0  0     2.200     15
            1  1  0  0     2.200     16
            1  0  1  0     2.200     17
            0  2  0  0     2.200     18
            0  1  1  0     2.200     19
            0  0  2  0     2.200     20
            3  0  0  0     3.300     21
            2  1  0  0     3.300     22
            2  0  1  0     3.300     23
            1  2  0  0     3.300     24
            1  1  1  0     3.300     25
            1  0  2  0     3.300     26
            0  3  0  0     3.300     27
            0  2  1  0     3.300     28
            0  1  2  0     3.300     29
            0  0  3  0     3.300     30
1
 ***************************************************************************************************



                                              ***********************
                                              *  T E C H N I C A L  *
                                              ***********************
  



 =============================================================
 P A R A L L E L I Z A T I O N  and  V E C T O R I Z A T I O N
 =============================================================
  
 Nr of parallel processes:                                1
 Maximum vector length in NumInt loops:                 128

 IO buffersize (Mb):                                     64.000000



 =====================
 S C F   U P D A T E S
 =====================
  
 Max. nr. of cycles:                               300
 Convergence criterion:                              0.0000000100
   secondary criterion:                              0.0000000100

 Mix parameter (when DIIS does not apply):           0.2000000000
 Special mix parameter for the first cycle:          1.0000000000
 Mixed ADIIS+DIIS will be used
    Max number of expansion vectors:                10
    Pure ADIIS when Max([F,P]) is above              0.1000000000
    Pure DIIS when Max([F,P]) is below               0.0010000000
 Automatic ElectronSmearing (in case of problematic SCF convergence) disabled



 =================
 P R E C I S I O N  ***  (General: NumInt, NeglectFunctionTails, ...)  ***
 =================
  

 NumInt:           Target precision:                12.0000000000
 -------           Initial precision:               10.0000000000
                   Min. precision (optimization):   10.0000000000

 Neglect Functions:          Basis functions:        0.1000000000E-13
 ------------------          Fit functions:          0.1000000000E-13



 ===========================
 L I N E A R   S C A L I N G
 ===========================
  

 Cut-off radii density fit:                        0.1000000000E-97
 Overlap cut-off criterion AO matrix elements:     0.1000000000E-97
 Cut-offs for Coulomb potential and fitted density:0.1000000000E-97
 Cut-off criterion for Coulomb multipole terms:    0.1000000000E-97
 Progressive Convergence parameter:                 0.000000000    
1
 ***************************************************************************************************



                                            ***************************
                                            *  C O M P U T A T I O N  *
                                            ***************************
  

 Number of elements of the density matrix on this node (used, total):       465       465



 ===========================================
 Numerical Integration : Fuzzy Cells (Becke)
 ===========================================
  
 Becke grid quality: VERYGOOD       
  
 Lebedev angular grid order:             min:  13 max:  41
 Nr. of radial points:                   min:  72 max:  72

 Total nr. of points:         72
 Nr. of blocks:                1
 Block length:                72
 Nr. of dummy points:          0


 Test of Precision of the Numerical Integration Grid
 ===================================================

 Integral of the Total Core Density:                   0.00000000000000



 ========================
 Density Fitting (zlmFit)
 ========================
  
 ZlmFit Fit Quality: VERYGOOD       
  
 Max L-expansion:                        min:   0 max:   0
 Nr. of radial interpolation points:     min: 160 max: 160



 =====
 S C F  ***  ScaSCF  ***
 =====
  

 CYCLE    1
 SCF Error: norm([F,P])=      0.000000000000, max([F,P])=      0.000000000000
 orbitals (Q,E):
 ---------------
 S :1...5            ( 2.00   -17.9995)  ( 2.00    -4.4761)  ( 0.00    -1.9482)  ( 0.00     0.6812)
                     ( 0.00    42.8100)
 P :1...3            ( 2.00    -4.4994)  ( 0.00    -1.9807)  ( 0.00    -1.0849)
 D :1...1            ( 0.00    -1.9800)
 F :1...1            ( 0.00     0.4950)

 CYCLE    2
  SDIIS (wt  0.000):  1.0000 -0.0000
 A-DIIS (wt  1.000):  0.0000  1.0000
  DIIS coefficients:  0.0000  1.0000
 SCF Error: norm([F,P])=      4.483247543453, max([F,P])=      3.319692437215
 orbitals (Q,E):
 ---------------
 S :1...3            ( 2.00    -7.7796)  ( 2.00    -0.0272)  ( 0.00     0.8405)
 P :1...2            ( 2.00     0.1088)  ( 0.00     0.5815)
 D :1...1            ( 0.00     1.7650)
 F :1...1            ( 0.00     4.6321)

 CYCLE    3
  SDIIS (wt  0.000):  0.2146  0.7854
 A-DIIS (wt  1.000):  0.1002  0.8998
  DIIS coefficients:  0.1002  0.8998
 SCF Error: norm([F,P])=      1.615377071090, max([F,P])=      1.304101935147
 orbitals (Q,E):
 ---------------
 S :1...3            ( 2.00   -11.0618)  ( 2.00    -0.9719)  ( 0.00     0.1026)
 P :1...2            ( 2.00    -0.6633)  ( 0.00     0.0057)
 D :1...1            ( 0.00     0.8110)
 F :1...1            ( 0.00     3.5316)

 CYCLE    4
  SDIIS (wt  0.000): -0.0646  0.2204  0.8442
 A-DIIS (wt  1.000):  0.0000  0.0669  0.9331
  DIIS coefficients:  0.0000  0.0669  0.9331
 SCF Error: norm([F,P])=      0.727062835235, max([F,P])=      0.590531306529
 orbitals (Q,E):
 ---------------
 S :1...3            ( 2.00    -9.5928)  ( 2.00    -0.3589)  ( 0.00     0.4870)
 P :1...2            ( 2.00    -0.0657)  ( 0.00     0.2593)
 D :1...1            ( 0.00     1.3775)
 F :1...1            ( 0.00     4.1761)

 CYCLE    5
  SDIIS (wt  0.000): -0.0190 -0.0582  0.3730  0.7042
 A-DIIS (wt  1.000):  0.0000  0.0000  0.2349  0.7651
  DIIS coefficients:  0.0000  0.0000  0.2349  0.7651
 SCF Error: norm([F,P])=      0.408986877990, max([F,P])=      0.332637996056
 orbitals (Q,E):
 ---------------
 S :1...3            ( 2.00   -10.2125)  ( 2.00    -0.5796)  ( 0.00     0.3271)
 P :1...2            ( 2.00    -0.2644)  ( 0.00     0.1416)
 D :1...1            ( 0.00     1.1659)
 F :1...1            ( 0.00     3.9304)

 CYCLE    6
  SDIIS (wt  0.000):  0.0033 -0.0108 -0.0812  0.2121  0.8767
 A-DIIS (wt  1.000):  0.0000  0.0000  0.0000  0.0000  1.0000
  DIIS coefficients:  0.0000  0.0000  0.0000  0.0000  1.0000
 SCF Error: norm([F,P])=      0.135489187246, max([F,P])=      0.105944162354
 orbitals (Q,E):
 ---------------
 S :1...3            ( 2.00    -9.9299)  ( 2.00    -0.4611)  ( 0.00     0.4052)
 P :1...2            ( 2.00    -0.1536)  ( 0.00     0.1986)
 D :1...1            ( 0.00     1.2786)
 F :1...1            ( 0.00     4.0598)

 CYCLE    7
  SDIIS (wt  0.092): -0.0004  0.0033  0.0106 -0.1524  0.2655  0.8734
 A-DIIS (wt  0.908):  0.0000  0.0000  0.0000  0.0000  0.3950  0.6050
  DIIS coefficients: -0.0000  0.0003  0.0010 -0.0140  0.3831  0.6297
 SCF Error: norm([F,P])=      0.114064321572, max([F,P])=      0.090880191346
 orbitals (Q,E):
 ---------------
 S :1...3            ( 2.00   -10.0707)  ( 2.00    -0.5153)  ( 0.00     0.3674)
 P :1...2            ( 2.00    -0.2035)  ( 0.00     0.1706)
 D :1...1            ( 0.00     1.2270)
 F :1...1            ( 0.00     4.0001)

 CYCLE    8
  SDIIS (wt  0.917): -0.0001  0.0008  0.0035 -0.0258 -0.0091  0.1766  0.8542
 A-DIIS (wt  0.083):  0.0000  0.0000  0.0000  0.0000  0.0000  0.0000  1.0000
  DIIS coefficients: -0.0001  0.0008  0.0032 -0.0237 -0.0084  0.1619  0.8663
 SCF Error: norm([F,P])=      0.011703250036, max([F,P])=      0.009265507995
 orbitals (Q,E):
 ---------------
 S :1...3            ( 2.00   -10.0567)  ( 2.00    -0.5096)  ( 0.00     0.3711)
 P :1...2            ( 2.00    -0.1982)  ( 0.00     0.1732)
 D :1...1            ( 0.00     1.2325)
 F :1...1            ( 0.00     4.0064)

 CYCLE    9
  SDIIS (wt  1.000): -0.0000 -0.0000  0.0001  0.0005  0.0017 -0.0121 -0.0564  1.0662
  DIIS coefficients: -0.0000 -0.0000  0.0001  0.0005  0.0017 -0.0121 -0.0564  1.0662
 SCF Error: norm([F,P])=      0.000780147844, max([F,P])=      0.000617910359
 orbitals (Q,E):
 ---------------
 S :1...3            ( 2.00   -10.0576)  ( 2.00    -0.5099)  ( 0.00     0.3708)
 P :1...2            ( 2.00    -0.1985)  ( 0.00     0.1730)
 D :1...1            ( 0.00     1.2321)
 F :1...1            ( 0.00     4.0060)

 CYCLE   10
  SDIIS (wt  1.000): -0.0000  0.0000  0.0000 -0.0001  0.0000  0.0004  0.0021  0.0101  0.9875
  DIIS coefficients: -0.0000  0.0000  0.0000 -0.0001  0.0000  0.0004  0.0021  0.0101  0.9875
 SCF Error: norm([F,P])=      0.000001779707, max([F,P])=      0.000001066207
 orbitals (Q,E):
 ---------------
 S :1...3            ( 2.00   -10.0576)  ( 2.00    -0.5099)  ( 0.00     0.3708)
 P :1...2            ( 2.00    -0.1985)  ( 0.00     0.1730)
 D :1...1            ( 0.00     1.2321)
 F :1...1            ( 0.00     4.0060)

 CYCLE   11
  SDIIS (wt  1.000): -0.0000  0.0000  0.0000 -0.0003 -0.0294  1.0296
  DIIS coefficients: -0.0000  0.0000  0.0000 -0.0003 -0.0294  1.0296
 SCF Error: norm([F,P])=      0.000000243303, max([F,P])=      0.000000187858
 orbitals (Q,E):
 ---------------
 S :1...3            ( 2.00   -10.0576)  ( 2.00    -0.5099)  ( 0.00     0.3708)
 P :1...2            ( 2.00    -0.1985)  ( 0.00     0.1730)
 D :1...1            ( 0.00     1.2321)
 F :1...1            ( 0.00     4.0060)

 CYCLE   12
  SDIIS (wt  1.000): -0.0000  0.0000 -0.0010  0.0336  0.9674
  DIIS coefficients: -0.0000  0.0000 -0.0010  0.0336  0.9674
 SCF Error: norm([F,P])=      0.000000000721, max([F,P])=      0.000000000394
 orbitals (Q,E):
 ---------------
 S :1...3            ( 2.00   -10.0576)  ( 2.00    -0.5099)  ( 0.00     0.3708)
 P :1...2            ( 2.00    -0.1985)  ( 0.00     0.1730)
 D :1...1            ( 0.00     1.2321)
 F :1...1            ( 0.00     4.0060)

 SCF CONVERGED

 CYCLE   13
1
 ***************************************************************************************************



                                                *******************
                                                *  R E S U L T S  *
                                                *******************
  
 *** Setting up for NEW gradients in Focky
 *** Using FIT density in Focky

 Orbital Energies, per Irrep and Spin:
 ======================================
                        Occup              E (au)              E (eV)       Diff (eV) with prev. cycle
                        -----      --------------------        ------       --------------------------
 S
               1        2.000     -0.10057606152104E+02      -273.681               4.15E-11
               2        2.000     -0.50994760171307E+00       -13.876               2.96E-11
               3        0.000      0.37082872313775E+00        10.091
               4        0.000      0.54281205268456E+01       147.707
               5        0.000      0.50180681036974E+02      1365.486
 P
               1        2.000     -0.19854276084075E+00        -5.403               3.88E-11
               2        0.000      0.17303455321757E+00         4.709
               3        0.000      0.20264846286165E+01        55.143
 D
               1        0.000      0.12321250634418E+01        33.528
 F
               1        0.000      0.40060208332446E+01       109.009


 Partially Occupied:
               1 P                -0.19854276084075E+00
  
 HOMO :        2 S                -0.50994760171307E+00
 LUMO :        2 P                 0.17303455321757E+00
  


 Orbital Energies, all Irreps
 ========================================

 Irrep        no.  (spin)   Occup              E (au)                E (eV)
 ---------------------------------------------------------------------------
 S             1             2.00       -0.10057606152104E+02      -273.6814
 S             2             2.00       -0.50994760171307E+00       -13.8764
 P             1             2.00       -0.19854276084075E+00        -5.4026
 P             2             0.00        0.17303455321757E+00         4.7085
 S             3             0.00        0.37082872313775E+00        10.0908
 D             1             0.00        0.12321250634418E+01        33.5278
 P             3             0.00        0.20264846286165E+01        55.1435
 F             1             0.00        0.40060208332446E+01       109.0094
 S             4             0.00        0.54281205268456E+01       147.7067
 S             5             0.00        0.50180681036974E+02      1365.4858


 All Electron Calculation, thus no Orbital Energies of the Core Orbitals are calculated



 =======================================
 M U L L I K E N   P O P U L A T I O N S
 =======================================
  
 The survey below gives for each atom:
 a) the total charge (Z minus electrons)
 b) the net spin polarization (nr of electrons spin-A minus spin-B)
 c) for each spin the atomic electron valence density (integrated) per L-value.

 Atom              Charge    Spin density          S         P         D         F
 ----              ------    ------------       ------    ------    ------    ------
 1 C              -0.0000                       4.0000    2.0000    0.0000    0.0000

 Populations of individual BAS functions
 ----------------------------------------
 1 C            0.4834  1.5186  0.9350  1.1213 -0.0582  0.1723  0.1723  0.1723  0.3913  0.3913
                0.3913  0.1031  0.1031  0.1031  0.0000  0.0000  0.0000  0.0000  0.0000  0.0000
                0.0000  0.0000  0.0000  0.0000  0.0000  0.0000  0.0000  0.0000  0.0000  0.0000

 Gross Charges per Atom (Z minus electrons)
 ==========================================
            -0.0000
 Net Total: -0.00000000



 =======================================================================
 Electrostatic potential at the Nuclei due to electrons and other nuclei
 =======================================================================
  
         Atom                  Potential
         ----                  ---------
     1)   C                  14.66972860
 
 
 ========================
 No memory problems found
 ========================
 
 Maximum number of active allocate calls:         447
 
 *******************************************************************************

                             A D F   E X I T
 NORMAL TERMINATION



 =================
 Timing Statistics
 =================
  
 Total Used :                     CPU=        0.49      System=        0.03     Elapsed=        0.52

 Calls  Section                     ( Mean, Percentage )
 ---------------------------------------------------------------------------------------------------
     3  ><      ................      0.00    0.21             0.00    0.00             0.00    0.15
     1  INIT    ................      0.01    1.85             0.01   51.72             0.03    4.90
     1  GEOMET  ................      0.00    1.03             0.00   10.35             0.01    1.60
     1  INPUTA  ................      0.00    0.21             0.00    0.00             0.00    0.29
     1  MAINSY  ................      0.00    1.03             0.00    3.45             0.01    1.14
     1  SYMFIT  ................      0.00    0.00             0.00    3.45             0.00    0.15
     1  CORORT  ................      0.00    0.00             0.00    0.00             0.00    0.05
     1  SYMORB  ................      0.00    0.21             0.00    0.00             0.00    0.13
     1  CLSMAT  ................      0.00    1.03             0.00    0.00             0.01    1.01
     1  ORTHON  ................      0.00    0.41             0.00    0.00             0.00    0.29
     1  GENPT   ................      0.01    2.87             0.00    0.00             0.01    2.85
     1  PTBAS   ................      0.00    0.82             0.00    0.00             0.00    0.67
    13  FOCKY   ................      0.03   75.36             0.00   20.69             0.03   71.60
    13  FOCKTR  ................      0.00    2.26             0.00    0.00             0.00    2.23
    13  SDIIS   ................      0.00    3.90             0.00    3.45             0.00    4.23
     1  COREPS  ................      0.02    4.31             0.00    0.00             0.02    4.03
     1  POPAN   ................      0.00    1.03             0.00    0.00             0.01    1.01
     1  DEBYE   ................      0.00    0.21             0.00    0.00             0.00    0.11
     1  EXIT PROCEDURE .........      0.02    3.29             0.00    6.90             0.02    3.57


 Currently Open Files (EXIT00)
 ====================

 Unit    Access Format  Status   Type       Ident (file)
 -------------------------------------------------------
   3      SEQ    FORM   TRANSP  NORMAL      LOGFILE
                                          ( logfile )


 Buffered I/O statistics
 =======================
 Memory available:                     67108864
 Number of records fitting in memory:     16131
 Input :   0.1% of                        27797  *4k bytes
 Output:  13.6% of                         1374  *4k bytes
 Records from serial files evicted:           0
                    others evicted:           0
 Hash table lookups:      71849 with          0 conflicts (  0.00%)

 ***************************************************************************************************
 (LOGFILE)
 <Apr24-2019> <16:49:23>  ADF development version  RunTime: Apr24-2019 16:49:23  Nodes: 1  Procs: 1
 <Apr24-2019> <16:49:23>  Oxygen (TZ2P)
 <Apr24-2019> <16:49:23>  RunType   : CREATE
 <Apr24-2019> <16:49:24>  Net Charge: 0 (Nuclei minus Electrons)
 <Apr24-2019> <16:49:24>  Symmetry  : ATOM
  Coordinates
    Atom         X           Y           Z   (Angstrom)
    1.O         0.000000    0.000000    0.000000
 <Apr24-2019> <16:49:24>  >>>> CORORT
 <Apr24-2019> <16:49:24>  >>>> CLSMAT
 <Apr24-2019> <16:49:24>  >>>> ORTHON
 <Apr24-2019> <16:49:24>  >>>> GENPT
 <Apr24-2019> <16:49:24>  Block Length=  68
 <Apr24-2019> <16:49:24>  >>>> PTBAS
 <Apr24-2019> <16:49:24>  >>>> CYCLE
 <Apr24-2019> <16:49:24>              |Error|         MaxErr       Wt(A-DIIS)
 <Apr24-2019> <16:49:24>      1      0.00000000      0.00000000
 <Apr24-2019> <16:49:24>      2      8.76372386      5.50404708    100.0
 <Apr24-2019> <16:49:24>      3      3.55050355      2.50794093    100.0
 <Apr24-2019> <16:49:24>      4      1.16281649      0.58938545    100.0
 <Apr24-2019> <16:49:24>      5      1.41734471      0.79826275    100.0
 <Apr24-2019> <16:49:24>      6      0.11574194      0.06959067     69.3
 <Apr24-2019> <16:49:24>      7      0.06987877      0.04082871     40.2
 <Apr24-2019> <16:49:24>      8      0.00571053      0.00303876      2.1
 <Apr24-2019> <16:49:24>      9      0.00016063      0.00009082      0.0
 <Apr24-2019> <16:49:24>     10      0.00000038      0.00000015      0.0
 <Apr24-2019> <16:49:24>     11      0.00000001      0.00000000      0.0
 <Apr24-2019> <16:49:24>  SCF converged
 <Apr24-2019> <16:49:24>     12      0.00000000      0.00000000      0.0
 <Apr24-2019> <16:49:24>  >>>> POPAN
 <Apr24-2019> <16:49:24>  >>>> DEBYE
 <Apr24-2019> <16:49:24>  NORMAL TERMINATION
 <Apr24-2019> <16:49:24>  END
 <Apr24-2019> <16:49:24>  ADF development version  RunTime: Apr24-2019 16:49:24  Nodes: 1  Procs: 1
 <Apr24-2019> <16:49:24>  Carbon (TZ2P)
 <Apr24-2019> <16:49:24>  RunType   : CREATE
 <Apr24-2019> <16:49:24>  Net Charge: 0 (Nuclei minus Electrons)
 <Apr24-2019> <16:49:24>  Symmetry  : ATOM
  Coordinates
    Atom         X           Y           Z   (Angstrom)
    1.C         0.000000    0.000000    0.000000
 <Apr24-2019> <16:49:24>  >>>> CORORT
 <Apr24-2019> <16:49:24>  >>>> CLSMAT
 <Apr24-2019> <16:49:24>  >>>> ORTHON
 <Apr24-2019> <16:49:24>  >>>> GENPT
 <Apr24-2019> <16:49:24>  Block Length=  72
 <Apr24-2019> <16:49:24>  >>>> PTBAS
 <Apr24-2019> <16:49:24>  >>>> CYCLE
 <Apr24-2019> <16:49:24>              |Error|         MaxErr       Wt(A-DIIS)
 <Apr24-2019> <16:49:24>      1      0.00000000      0.00000000
 <Apr24-2019> <16:49:24>      2      4.48324754      3.31969244    100.0
 <Apr24-2019> <16:49:24>      3      1.61537707      1.30410194    100.0
 <Apr24-2019> <16:49:24>      4      0.72706284      0.59053131    100.0
 <Apr24-2019> <16:49:24>      5      0.40898688      0.33263800    100.0
 <Apr24-2019> <16:49:24>      6      0.13548919      0.10594416    100.0
 <Apr24-2019> <16:49:24>      7      0.11406432      0.09088019     90.8
 <Apr24-2019> <16:49:24>      8      0.01170325      0.00926551      8.3
 <Apr24-2019> <16:49:24>      9      0.00078015      0.00061791      0.0
 <Apr24-2019> <16:49:24>     10      0.00000178      0.00000107      0.0
 <Apr24-2019> <16:49:24>     11      0.00000024      0.00000019      0.0
 <Apr24-2019> <16:49:25>     12      0.00000000      0.00000000      0.0
 <Apr24-2019> <16:49:25>  SCF converged
 <Apr24-2019> <16:49:25>     13      0.00000000      0.00000000      0.0
 <Apr24-2019> <16:49:25>  >>>> POPAN
 <Apr24-2019> <16:49:25>  >>>> DEBYE
 <Apr24-2019> <16:49:25>  NORMAL TERMINATION
 <Apr24-2019> <16:49:25>  END

Create Fe   file=TZ2P-Fe
XC
  GGA BP86
End
End Input

 *******************************************************************************
 *                                                                             *
 *  -------------------------------------                                      *
 *   Amsterdam Density Functional  (ADF)         development version           *
 *  -------------------------------------                                      *
 *                                               r61132 2017-09-08             *
 *                                                                             *
 *                                                                             *
 *                              =================                              *
 *                              |               |                              *
 *                              |     A D F     |                              *
 *                              |               |                              *
 *                              =================                              *
 *                                                                             *
 *                                                                             *
 *   Online information and documentation:  https://www.scm.com/support/       *
 *   E-mail:  support@scm.com   info@scm.com                                   *
 *                                                                             *
 *   Scientific publications using ADF results must be properly referenced     *
 *   See the User Manuals (or the web site) for recommended citations          *
 *   The terms and conditions of the End User License Agreement apply to       *
 *   the use of ADF, https://www.scm.com/license-terms/                        *
 *                                                                             *
 **********************  x86_64_linux_intel / intelmpi  ************************
 
 Licensed to: VU/FEW (+ SARA) / ALGEMEEN / Amsterdam / THE NETHERLANDS
 SCM User ID: u7668
  
 ADF development version  RunTime: Apr24-2019 16:49:25  Nodes: 1  Procs: 1

 Temporary files are created in /local/datastore0/tcst25/187593/kid_0.QE10rB

 Iron (TZ2P)



 ===========================
 A T T A C H E D   F I L E S
 ===========================
  
 CREATE - Data File:    TZ2P-Fe
                        Iron (TZ2P)



 ===============================
 M O D E L   P A R A M E T E R S
 ===============================
  
 DENSITY FUNCTIONAL POTENTIAL (scf)
    LDA:                               VWN                                      
    Gradient Corrections:              Becke88 Perdew86                        == Not Default ==

 SPIN  (restricted / unrestr.)
    Molecule:                          Restricted                               

 OTHER ASPECTS
    Relativistic Corrections:          ---                                      

    Nuclear Charge Density Model:      Point Charge Nuclei                      
    Core Treatment:                    Frozen Orbital(s)                        

    Hyperfine or Zeeman Interaction:   ---                                      



 =====================================
 S Y M M E T R Y ,   E L E C T R O N S
 =====================================
  
 Symmetry: ATOM

 Irreducible Representations, including subspecies
 -------------------------------------------------
 S
 P:x  P:y  P:z
 D:z2  D:x2-y2  D:xy  D:xz  D:yz
 F:z3  F:z  F:xyz  F:z2x  F:z2y  F:x  F:y


 Configuration of Valence Electrons
 ==================================

          Occupation Numbers
          -------------------------------------------------
 S        4*2
 P        2*6
 D        6
 F        0
          -------------------------------------------------

 Total:   26

 Net Charge: 0 (Nuclei minus Electrons)

 Preset values for MO occupations will be applied through SCF cycle no. 1000000
 Thereafter, the program will assign electrons to MOs that are spatially
 similar to the occupied MOs in a "reference" cycle ("KeepOrbitals").
 The reference cycle is always the PREVIOUS cycle: it will evolve with
 the SCF procedure.



 ================================
 (Slater-type)  F U N C T I O N S  ***  (Basis and Fit)  ***
 ================================
  

 Atom Type    1  (Fe)
 ==============

 Valence Basis Sets:  19
 -----------------------
   1 S   30.450000
   1 S   23.900000
   2 S   10.050000
   2 S    6.350000
   2 P   14.600000
   2 P    9.200000
   3 S    6.100000
   3 S    3.700000
   3 P    6.250000
   3 P    4.150000
   3 P    2.800000
   3 D    6.400000
   3 D    3.050000
   3 D    1.400000
   4 S    2.300000
   4 S    1.400000
   4 S    0.900000
   4 P    1.390000
   4 F    2.500000


 BAS: List of all Elementary Cartesian Basis Functions
 =====================================================

 The numbering in the list below (to the right of the function characteristics) is referred
 to in print-outs of MO eigenvectors and Mulliken populations in the BAS representation
 (as contrasted to the SFO representation).

 Notes:
 1. The functions are characterized by a polynomial prefactor (powers of x,y,z and r) and
    an exponential decay factor alpha.
 2. Since the basis sets are specific for an atom TYPE, the individual functions occur on
    all atoms of that type.
 3. The word 'Core' in the left margin signals that it is a Core Function (CF) : not a
    degree of freedom in the valence set, but only used to ensure orthogonalization of
    the other valence basis functions on the frozen Core Orbitals.


 (power of) X  Y  Z  R     Alpha  on Atom
            ==========     =====     ==========

 Fe                                   1
                                  ---------------------------------------------------------------------------
            0  0  0  0    30.450      1
            0  0  0  0    23.900      2
            0  0  0  1    10.050      3
            0  0  0  1     6.350      4
            1  0  0  0    14.600      5
            0  1  0  0    14.600      6
            0  0  1  0    14.600      7
            1  0  0  0     9.200      8
            0  1  0  0     9.200      9
            0  0  1  0     9.200     10
            0  0  0  2     6.100     11
            0  0  0  2     3.700     12
            1  0  0  1     6.250     13
            0  1  0  1     6.250     14
            0  0  1  1     6.250     15
            1  0  0  1     4.150     16
            0  1  0  1     4.150     17
            0  0  1  1     4.150     18
            1  0  0  1     2.800     19
            0  1  0  1     2.800     20
            0  0  1  1     2.800     21
            2  0  0  0     6.400     22
            1  1  0  0     6.400     23
            1  0  1  0     6.400     24
            0  2  0  0     6.400     25
            0  1  1  0     6.400     26
            0  0  2  0     6.400     27
            2  0  0  0     3.050     28
            1  1  0  0     3.050     29
            1  0  1  0     3.050     30
            0  2  0  0     3.050     31
            0  1  1  0     3.050     32
            0  0  2  0     3.050     33
            2  0  0  0     1.400     34
            1  1  0  0     1.400     35
            1  0  1  0     1.400     36
            0  2  0  0     1.400     37
            0  1  1  0     1.400     38
            0  0  2  0     1.400     39
            0  0  0  3     2.300     40
            0  0  0  3     1.400     41
            0  0  0  3     0.900     42
            1  0  0  2     1.390     43
            0  1  0  2     1.390     44
            0  0  1  2     1.390     45
            3  0  0  0     2.500     46
            2  1  0  0     2.500     47
            2  0  1  0     2.500     48
            1  2  0  0     2.500     49
            1  1  1  0     2.500     50
            1  0  2  0     2.500     51
            0  3  0  0     2.500     52
            0  2  1  0     2.500     53
            0  1  2  0     2.500     54
            0  0  3  0     2.500     55

 Total number of charge fitting functions (nprimf)       170
 Total number of Cartesian basis functions (naos)         55
 Total number of Cartesian core functions  (ncos)          0



 BAS: List of all Elementary Cartesian Basis Functions
 =====================================================

 The numbering in the list below (to the right of the function characteristics) is referred
 to in print-outs of MO eigenvectors and Mulliken populations in the BAS representation
 (as contrasted to the SFO representation).

 Notes:
 1. The functions are characterized by a polynomial prefactor (powers of x,y,z and r) and
    an exponential decay factor alpha.
 2. Since the basis sets are specific for an atom TYPE, the individual functions occur on
    all atoms of that type.
 3. The word 'Core' in the left margin signals that it is a Core Function (CF) : not a
    degree of freedom in the valence set, but only used to ensure orthogonalization of
    the other valence basis functions on the frozen Core Orbitals.


 (power of) X  Y  Z  R     Alpha  on Atom
            ==========     =====     ==========

 Fe                                   1
                                  ---------------------------------------------------------------------------
            0  0  0  0    30.450      1
            0  0  0  0    23.900      2
            0  0  0  1    10.050      3
            0  0  0  1     6.350      4
            1  0  0  0    14.600      5
            0  1  0  0    14.600      6
            0  0  1  0    14.600      7
            1  0  0  0     9.200      8
            0  1  0  0     9.200      9
            0  0  1  0     9.200     10
            0  0  0  2     6.100     11
            0  0  0  2     3.700     12
            1  0  0  1     6.250     13
            0  1  0  1     6.250     14
            0  0  1  1     6.250     15
            1  0  0  1     4.150     16
            0  1  0  1     4.150     17
            0  0  1  1     4.150     18
            1  0  0  1     2.800     19
            0  1  0  1     2.800     20
            0  0  1  1     2.800     21
            2  0  0  0     6.400     22
            1  1  0  0     6.400     23
            1  0  1  0     6.400     24
            0  2  0  0     6.400     25
            0  1  1  0     6.400     26
            0  0  2  0     6.400     27
            2  0  0  0     3.050     28
            1  1  0  0     3.050     29
            1  0  1  0     3.050     30
            0  2  0  0     3.050     31
            0  1  1  0     3.050     32
            0  0  2  0     3.050     33
            2  0  0  0     1.400     34
            1  1  0  0     1.400     35
            1  0  1  0     1.400     36
            0  2  0  0     1.400     37
            0  1  1  0     1.400     38
            0  0  2  0     1.400     39
            0  0  0  3     2.300     40
            0  0  0  3     1.400     41
            0  0  0  3     0.900     42
            1  0  0  2     1.390     43
            0  1  0  2     1.390     44
            0  0  1  2     1.390     45
            3  0  0  0     2.500     46
            2  1  0  0     2.500     47
            2  0  1  0     2.500     48
            1  2  0  0     2.500     49
            1  1  1  0     2.500     50
            1  0  2  0     2.500     51
            0  3  0  0     2.500     52
            0  2  1  0     2.500     53
            0  1  2  0     2.500     54
            0  0  3  0     2.500     55
1
 ***************************************************************************************************



                                              ***********************
                                              *  T E C H N I C A L  *
                                              ***********************
  



 =============================================================
 P A R A L L E L I Z A T I O N  and  V E C T O R I Z A T I O N
 =============================================================
  
 Nr of parallel processes:                                1
 Maximum vector length in NumInt loops:                 128

 IO buffersize (Mb):                                     64.000000



 =====================
 S C F   U P D A T E S
 =====================
  
 Max. nr. of cycles:                               300
 Convergence criterion:                              0.0000000100
   secondary criterion:                              0.0000000100

 Mix parameter (when DIIS does not apply):           0.2000000000
 Special mix parameter for the first cycle:          1.0000000000
 Mixed ADIIS+DIIS will be used
    Max number of expansion vectors:                10
    Pure ADIIS when Max([F,P]) is above              0.1000000000
    Pure DIIS when Max([F,P]) is below               0.0010000000
 Automatic ElectronSmearing (in case of problematic SCF convergence) disabled



 =================
 P R E C I S I O N  ***  (General: NumInt, NeglectFunctionTails, ...)  ***
 =================
  

 NumInt:           Target precision:                12.0000000000
 -------           Initial precision:               10.0000000000
                   Min. precision (optimization):   10.0000000000

 Neglect Functions:          Basis functions:        0.1000000000E-13
 ------------------          Fit functions:          0.1000000000E-13



 ===========================
 L I N E A R   S C A L I N G
 ===========================
  

 Cut-off radii density fit:                        0.1000000000E-97
 Overlap cut-off criterion AO matrix elements:     0.1000000000E-97
 Cut-offs for Coulomb potential and fitted density:0.1000000000E-97
 Cut-off criterion for Coulomb multipole terms:    0.1000000000E-97
 Progressive Convergence parameter:                 0.000000000    
1
 ***************************************************************************************************



                                            ***************************
                                            *  C O M P U T A T I O N  *
                                            ***************************
  

 Number of elements of the density matrix on this node (used, total):      1540      1540



 ===========================================
 Numerical Integration : Fuzzy Cells (Becke)
 ===========================================
  
 Becke grid quality: VERYGOOD       
  
 Lebedev angular grid order:             min:  13 max:  41
 Nr. of radial points:                   min: 106 max: 106

 Total nr. of points:        106
 Nr. of blocks:                1
 Block length:               106
 Nr. of dummy points:          0


 Test of Precision of the Numerical Integration Grid
 ===================================================

 Integral of the Total Core Density:                   0.00000000000000



 ========================
 Density Fitting (zlmFit)
 ========================
  
 ZlmFit Fit Quality: VERYGOOD       
  
 Max L-expansion:                        min:   0 max:   0
 Nr. of radial interpolation points:     min: 220 max: 220



 =====
 S C F  ***  ScaSCF  ***
 =====
  

 CYCLE    1
 SCF Error: norm([F,P])=      0.000000000000, max([F,P])=      0.000000000000
 orbitals (Q,E):
 ---------------
 S :1...9            ( 2.00  -337.9898)  ( 2.00   -84.4797)  ( 2.00   -37.4823)  ( 2.00   -20.7982)
                     ( 0.00   -12.5461)  ( 0.00    -7.9344)  ( 0.00    -5.5989)  ( 0.00    -3.7734)
                     ( 0.00   442.8473)
 P :1...6            ( 6.00   -84.4643)  ( 6.00   -37.3006)  ( 0.00   -20.7308)  ( 0.00   -12.7517)
                     ( 0.00    -7.0559)  ( 0.00    14.0542)
 D :1...3            ( 6.00   -35.6393)  ( 0.00   -18.1031)  ( 0.00    -8.8555)
 F :1...1            ( 0.00   -13.1250)

 CYCLE    2
  SDIIS (wt  0.000):  1.0000  0.0000
 A-DIIS (wt  1.000):  0.0000  1.0000
  DIIS coefficients:  0.0000  1.0000
 SCF Error: norm([F,P])=     75.547033264825, max([F,P])=     22.788679629810
 orbitals (Q,E):
 ---------------
 S :1...5            ( 2.00  -230.1053)  ( 2.00   -14.5901)  ( 2.00    -0.0355)  ( 2.00     0.1020)
                     ( 0.00     0.5308)
 P :1...3            ( 6.00    -9.4757)  ( 6.00     0.1763)  ( 0.00     1.0662)
 D :1...2            ( 6.00     0.6692)  ( 0.00     3.4646)
 F :1...1            ( 0.00     2.7603)

 CYCLE    3
  SDIIS (wt  0.000):  0.1450  0.8550
 A-DIIS (wt  1.000):  0.3739  0.6261
  DIIS coefficients:  0.3739  0.6261
 SCF Error: norm([F,P])=     27.760495436909, max([F,P])=      7.781568778292
 orbitals (Q,E):
 ---------------
 S :1...5            ( 2.00  -257.4849)  ( 2.00   -33.0898)  ( 2.00    -6.8473)  ( 2.00    -1.5873)
                     ( 0.00    -0.2035)
 P :1...3            ( 6.00   -28.9536)  ( 6.00    -5.6129)  ( 0.00    -1.1898)
 D :1...2            ( 6.00    -3.5661)  ( 0.00    -0.5000)
 F :1...1            ( 0.00    -0.1166)

 CYCLE    4
  SDIIS (wt  0.000): -0.0043  0.0355  0.9688
 A-DIIS (wt  1.000):  0.0000  0.0000  1.0000
  DIIS coefficients:  0.0000  0.0000  1.0000
 SCF Error: norm([F,P])=      5.815799090389, max([F,P])=      1.686975061209
 orbitals (Q,E):
 ---------------
 S :1...5            ( 2.00  -251.4616)  ( 2.00   -26.5557)  ( 2.00    -1.7458)  ( 2.00    -0.0185)
                     ( 0.00     0.1648)
 P :1...3            ( 6.00   -22.4342)  ( 6.00    -0.6768)  ( 0.00     0.2037)
 D :1...2            ( 6.00     0.4614)  ( 0.00     1.5009)
 F :1...1            ( 0.00     2.1986)

 CYCLE    5
  SDIIS (wt  0.000):  0.0007 -0.0347  0.6579  0.3761
 A-DIIS (wt  1.000):  0.0000  0.0000  0.7296  0.2704
  DIIS coefficients:  0.0000  0.0000  0.7296  0.2704
 SCF Error: norm([F,P])=      9.482461630328, max([F,P])=      2.711835418361
 orbitals (Q,E):
 ---------------
 S :1...5            ( 2.00  -254.3099)  ( 2.00   -29.0999)  ( 2.00    -3.1942)  ( 2.00    -0.1719)
                     ( 0.00     0.0311)
 P :1...3            ( 6.00   -25.0310)  ( 6.00    -2.0216)  ( 0.00     0.0010)
 D :1...2            ( 6.00    -0.1610)  ( 0.00     0.5258)
 F :1...1            ( 0.00     1.6496)

 CYCLE    6
  SDIIS (wt  0.000):  0.0023 -0.0026  0.1747 -0.0879  0.9135
 A-DIIS (wt  1.000):  0.0000  0.0000  0.0000  0.0000  1.0000
  DIIS coefficients:  0.0000  0.0000  0.0000  0.0000  1.0000
 SCF Error: norm([F,P])=      1.952882197554, max([F,P])=      0.568705873462
 orbitals (Q,E):
 ---------------
 S :1...5            ( 2.00  -256.0399)  ( 2.00   -30.6516)  ( 2.00    -3.9255)  ( 2.00    -0.2671)
                     ( 0.00     0.0274)
 P :1...3            ( 6.00   -26.6223)  ( 6.00    -2.7222)  ( 0.00    -0.0801)
 D :1...2            ( 6.00    -0.7515)  ( 0.00     0.3368)
 F :1...1            ( 0.00     1.4917)

 CYCLE    7
  SDIIS (wt  0.000): -0.0011  0.0022 -0.0264 -0.0236  0.6371  0.4119
 A-DIIS (wt  1.000):  0.0000  0.0000  0.0000  0.0000  0.6671  0.3329
  DIIS coefficients:  0.0000  0.0000  0.0000  0.0000  0.6671  0.3329
 SCF Error: norm([F,P])=      2.978077751052, max([F,P])=      0.852353761923
 orbitals (Q,E):
 ---------------
 S :1...5            ( 2.00  -255.0561)  ( 2.00   -29.8072)  ( 2.00    -3.4733)  ( 2.00    -0.2036)
                     ( 0.00     0.0473)
 P :1...3            ( 6.00   -25.7541)  ( 6.00    -2.2840)  ( 0.00    -0.0346)
 D :1...2            ( 6.00    -0.3598)  ( 0.00     0.4327)
 F :1...1            ( 0.00     1.6205)

 CYCLE    8
  SDIIS (wt  0.000): -0.0000  0.0000 -0.0048  0.0009  0.1824 -0.0318  0.8533
 A-DIIS (wt  1.000):  0.0000  0.0000  0.0000  0.0000  0.1035  0.0000  0.8965
  DIIS coefficients:  0.0000  0.0000  0.0000  0.0000  0.1035  0.0000  0.8965
 SCF Error: norm([F,P])=      0.563020002749, max([F,P])=      0.154724123618
 orbitals (Q,E):
 ---------------
 S :1...5            ( 2.00  -254.6788)  ( 2.00   -29.4713)  ( 2.00    -3.2841)  ( 2.00    -0.1827)
                     ( 0.00     0.0548)
 P :1...3            ( 6.00   -25.4107)  ( 6.00    -2.1024)  ( 0.00    -0.0194)
 D :1...2            ( 6.00    -0.2118)  ( 0.00     0.4836)
 F :1...1            ( 0.00     1.6755)

 CYCLE    9
  SDIIS (wt  0.000):  0.0000 -0.0001 -0.0008 -0.0001 -0.0046 -0.0388  0.6434  0.4010
 A-DIIS (wt  1.000):  0.0000  0.0000  0.0000  0.0000  0.0000  0.0000  0.5589  0.4411
  DIIS coefficients:  0.0000  0.0000  0.0000  0.0000  0.0000  0.0000  0.5589  0.4411
 SCF Error: norm([F,P])=      0.639991892996, max([F,P])=      0.174021118297
 orbitals (Q,E):
 ---------------
 S :1...5            ( 2.00  -254.8632)  ( 2.00   -29.6364)  ( 2.00    -3.3809)  ( 2.00    -0.1972)
                     ( 0.00     0.0492)
 P :1...3            ( 6.00   -25.5792)  ( 6.00    -2.1955)  ( 0.00    -0.0311)
 D :1...2            ( 6.00    -0.2875)  ( 0.00     0.4530)
 F :1...1            ( 0.00     1.6425)

 CYCLE   10
  SDIIS (wt  0.871):  0.0000 -0.0000 -0.0008  0.0001 -0.0133  0.0111 -0.0416 -0.0282  1.0726
 A-DIIS (wt  0.129):  0.0000  0.0000  0.0000  0.0000  0.0000  0.0000  0.0000  0.0000  1.0000
  DIIS coefficients:  0.0000 -0.0000 -0.0007  0.0001 -0.0116  0.0096 -0.0362 -0.0245  1.0633
 SCF Error: norm([F,P])=      0.045606163090, max([F,P])=      0.013759922392
 orbitals (Q,E):
 ---------------
 S :1...5            ( 2.00  -254.8822)  ( 2.00   -29.6516)  ( 2.00    -3.3865)  ( 2.00    -0.1972)
                     ( 0.00     0.0494)
 P :1...3            ( 6.00   -25.5951)  ( 6.00    -2.2009)  ( 0.00    -0.0311)
 D :1...2            ( 6.00    -0.2916)  ( 0.00     0.4519)
 F :1...1            ( 0.00     1.6421)

 CYCLE   11
  SDIIS (wt  0.985): -0.0000 -0.0000 -0.0000  0.0000 -0.0003  0.0004 -0.0099  0.0012  0.0785  0.9300
 A-DIIS (wt  0.015):  0.0000  0.0000  0.0000  0.0000  0.0000  0.0000  0.0000  0.0000  0.0000  1.0000
  DIIS coefficients: -0.0000 -0.0000 -0.0000  0.0000 -0.0003  0.0004 -0.0097  0.0012  0.0773  0.9311
 SCF Error: norm([F,P])=      0.008718443027, max([F,P])=      0.002473177488
 orbitals (Q,E):
 ---------------
 S :1...5            ( 2.00  -254.8793)  ( 2.00   -29.6492)  ( 2.00    -3.3853)  ( 2.00    -0.1972)
                     ( 0.00     0.0493)
[...]
              ------------------------      ------------------------      ------------------------
    1.Fe         0.004  -0.001   0.003        -0.000   0.000  -0.000        -0.000  -0.000  -0.000
    2.C         -0.007  -0.014   0.012        -0.189  -0.243   0.163         0.172   0.222  -0.149
    3.O          0.006   0.010  -0.007         0.133   0.170  -0.115        -0.120  -0.155   0.104
    4.C          0.003   0.018   0.009        -0.012   0.335   0.107         0.011  -0.303  -0.097
    5.O         -0.001  -0.013  -0.005         0.008  -0.235  -0.075        -0.007   0.211   0.068
    6.C         -0.452   0.105  -0.368        -0.272   0.063  -0.222        -0.328   0.076  -0.267
    7.O          0.330  -0.076   0.268         0.191  -0.044   0.155         0.228  -0.053   0.185
    8.C         -0.419   0.095  -0.341         0.321  -0.073   0.261         0.329  -0.075   0.268
    9.O          0.306  -0.070   0.249        -0.226   0.051  -0.184        -0.228   0.052  -0.186
   10.C          0.014  -0.006  -0.012         0.200  -0.090  -0.270        -0.183   0.082   0.247
   11.O         -0.009   0.004   0.009        -0.141   0.063   0.189         0.128  -0.057  -0.172




 List of All Frequencies:


 Intensities
 ===========

               Frequency       Dipole Strength        Absorption Intensity (degeneracy not counted)
                 cm-1           1e-40 esu2 cm2          km/mole
              ----------          ----------          ----------
               66.670727            0.007613            0.000127
               66.938872            0.036351            0.000610
              101.183656            0.004702            0.000119
              101.779904            0.013128            0.000335
              112.952724            7.606066            0.215345
              113.011837            7.580150            0.214724
              114.944394           25.062739            0.722095
              372.497065            0.005374            0.000502
              382.993442            0.004780            0.000459
              383.138256            0.030699            0.002948
              401.739279            0.005723            0.000576
              425.052192            0.083611            0.008908
              432.925010          126.229639           13.697840
              433.501782          126.359336           13.730182
              457.361625           68.676521            7.873106
              466.863505            4.460369            0.521962
              467.533163            4.091517            0.479485
              551.095465            0.000105            0.000015
              551.302887            0.002951            0.000408
              607.266096          817.522617          124.439106
              651.032401          758.087001          123.708552
              651.191917          759.623416          123.989645
             1975.403426         2290.766357         1134.265360
             1975.547161         2301.402751         1139.614850
             1995.382881         2645.957249         1323.387825
             1996.362566            8.206703            4.106636
             2076.737243            0.004701            0.002447



 ============================
 Statistical Thermal Analysis  ***  ideal gas assumed  ***
 ============================
  
 Pressure:                  1.000000 atm.
 Temperature:             298.150000 K



 Moments of Inertia (and direction vectors)
 ==========================================

        1965.3042       2289.2218       2293.3930
 ------------------------------------------------
           0.7652          0.0477         -0.6420
          -0.1780          0.9740         -0.1399
           0.6187          0.2214          0.7538


 The rotational contribution to the molecular entropy includes
 a term, dependent on the symmetry number sigma. The results 
 reported below were computed using sigma = 1, determined from
 the point group symmetry of the input geometry (NOSYM). 
 If this is not the correct symmetry, please contact SCM to report a bug.
 Contributions from frequencies below 20 1/cm are not included in
 the vibrational sums. Their contributions, if any, are reported separately.


     Temp                                                       Transl     Rotat    Vibrat     Total
     ----                                                       ------     -----    ------     -----

     298.15   Entropy (cal/mole-K):                             41.723    30.713    36.143   108.578
              Internal Energy (Kcal/mole):                       0.889     0.889    31.215    32.993
              Constant Volume Heat Capacity (cal/mole-K):        2.981     2.981    33.061    39.023

              Summary of energy terms
                                                   hartree              eV         kcal/mol           kJ/mol
                                      --------------------     -----------       ----------      -----------
              Bond Energy:              -3.208586032494029        -87.3101         -2013.42         -8424.14
              Internal Energy:           0.052577071985959          1.4307            32.99           138.04
              pV/n = RT:                 0.000944186013486          0.0257             0.59             2.48
              Enthalpy H:               -3.155064774494583        -85.8537         -1979.83         -8283.62
              -T*S:                     -0.051588765633322         -1.4038           -32.37          -135.45
              Gibbs free energy:        -3.206653540127906        -87.2575         -2012.21         -8419.07
 

 ***************************************************************************************************
 


====================================================================
*** DONE CALCULATING ANALYTICAL SECOND DERIVATIVES OF THE ENERGY ***
====================================================================

 
 
 ========================
 No memory problems found
 ========================
 
 Maximum number of active allocate calls:        2490
 
 *******************************************************************************

                             A D F   E X I T
 NORMAL TERMINATION



 =================
 Timing Statistics
 =================
  
 Total Used :                     CPU=      241.85      System=        3.35     Elapsed=      245.73

 Calls  Section                     ( Mean, Percentage )
 ---------------------------------------------------------------------------------------------------
     3  ><      ................      0.00    0.00             0.00    0.00             0.00    0.00
     1  INIT    ................      0.45    0.18             0.02    0.60             0.47    0.19
     1  GEOMET  ................      0.03    0.01             0.01    0.18             0.04    0.02
     1  FRAGM   ................      0.02    0.01             0.02    0.54             0.04    0.02
     1  INPUTA  ................      0.00    0.00             0.00    0.00             0.00    0.00
     1  ATDEN   ................      0.01    0.01             0.00    0.00             0.01    0.01
     1  MAINSY  ................      0.01    0.00             0.02    0.48             0.03    0.01
     1  SYMFIT  ................      0.00    0.00             0.00    0.00             0.00    0.00
     1  CORORT  ................      0.00    0.00             0.00    0.00             0.00    0.00
     1  SYMORB  ................      0.01    0.00             0.00    0.00             0.01    0.00
     1  CLSMAT  ................      0.01    0.01             0.00    0.09             0.02    0.01
     1  ORTHON  ................      0.02    0.01             0.01    0.45             0.04    0.02
     1  GENPT   ................      0.14    0.06             0.01    0.18             0.15    0.06
     1  PTBAS   ................      0.35    0.15             0.01    0.18             0.36    0.15
    17  FOCKY   ................      0.66    4.61             0.00    1.70             0.66    4.57
    17  FOCKTR  ................      0.01    0.04             0.00    0.92             0.01    0.05
    17  SDIIS   ................      0.00    0.03             0.00    0.30             0.01    0.04
     1  COREPS  ................      0.50    0.21             0.00    0.12             0.50    0.21
     1  TOTEN   ................      1.62    0.67             0.02    0.66             1.64    0.67
     1  POPAN   ................      0.01    0.00             0.00    0.06             0.01    0.00
     1  DEBYE   ................      0.01    0.00             0.00    0.09             0.02    0.01
     1  INPUTE  ................      0.00    0.00             0.00    0.00             0.00    0.00
     1  SYMORE  ................      0.00    0.00             0.00    0.00             0.00    0.00
     1  METS    ................      0.00    0.00             0.00    0.00             0.00    0.00
     1  CETS    ................      0.01    0.01             0.00    0.09             0.02    0.01
     2  ELNRGY  ................      0.70    0.58             0.01    0.36             0.70    0.57
     1  POPUL   ................      0.04    0.02             0.00    0.12             0.05    0.02
     1  ENGRAD  ................      0.00    0.00             0.00    0.06             0.00    0.00
     1  ENHESS  ................    225.84   93.38             3.10   92.45           229.41   93.36
     1  EXIT PROCEDURE .........      0.03    0.01             0.01    0.39             0.05    0.02


 Currently Open Files (EXIT00)
 ====================

 Unit    Access Format  Status   Type       Ident (file)
 -------------------------------------------------------
   3      SEQ    FORM   TRANSP  NORMAL      LOGFILE
                                          ( logfile )


 Buffered I/O statistics
 =======================
 Memory available:                     67108864
 Number of records fitting in memory:     16131
 Input :   0.1% of                      1492016  *4k bytes
 Output:   6.1% of                        51715  *4k bytes
 Records from serial files evicted:           0
                    others evicted:           0
 Hash table lookups:    4003960 with     108239 conflicts (  2.70%)

 ***************************************************************************************************
 (LOGFILE)
 <Apr24-2019> <16:49:23>  ADF development version  RunTime: Apr24-2019 16:49:23  Nodes: 1  Procs: 1
 <Apr24-2019> <16:49:23>  Oxygen (TZ2P)
 <Apr24-2019> <16:49:23>  RunType   : CREATE
 <Apr24-2019> <16:49:24>  Net Charge: 0 (Nuclei minus Electrons)
 <Apr24-2019> <16:49:24>  Symmetry  : ATOM
  Coordinates
    Atom         X           Y           Z   (Angstrom)
    1.O         0.000000    0.000000    0.000000
 <Apr24-2019> <16:49:24>  >>>> CORORT
 <Apr24-2019> <16:49:24>  >>>> CLSMAT
 <Apr24-2019> <16:49:24>  >>>> ORTHON
 <Apr24-2019> <16:49:24>  >>>> GENPT
 <Apr24-2019> <16:49:24>  Block Length=  68
 <Apr24-2019> <16:49:24>  >>>> PTBAS
 <Apr24-2019> <16:49:24>  >>>> CYCLE
 <Apr24-2019> <16:49:24>              |Error|         MaxErr       Wt(A-DIIS)
 <Apr24-2019> <16:49:24>      1      0.00000000      0.00000000
 <Apr24-2019> <16:49:24>      2      8.76372386      5.50404708    100.0
 <Apr24-2019> <16:49:24>      3      3.55050355      2.50794093    100.0
 <Apr24-2019> <16:49:24>      4      1.16281649      0.58938545    100.0
 <Apr24-2019> <16:49:24>      5      1.41734471      0.79826275    100.0
 <Apr24-2019> <16:49:24>      6      0.11574194      0.06959067     69.3
 <Apr24-2019> <16:49:24>      7      0.06987877      0.04082871     40.2
 <Apr24-2019> <16:49:24>      8      0.00571053      0.00303876      2.1
 <Apr24-2019> <16:49:24>      9      0.00016063      0.00009082      0.0
 <Apr24-2019> <16:49:24>     10      0.00000038      0.00000015      0.0
 <Apr24-2019> <16:49:24>     11      0.00000001      0.00000000      0.0
 <Apr24-2019> <16:49:24>  SCF converged
 <Apr24-2019> <16:49:24>     12      0.00000000      0.00000000      0.0
 <Apr24-2019> <16:49:24>  >>>> POPAN
 <Apr24-2019> <16:49:24>  >>>> DEBYE
 <Apr24-2019> <16:49:24>  NORMAL TERMINATION
 <Apr24-2019> <16:49:24>  END
 <Apr24-2019> <16:49:24>  ADF development version  RunTime: Apr24-2019 16:49:24  Nodes: 1  Procs: 1
 <Apr24-2019> <16:49:24>  Carbon (TZ2P)
 <Apr24-2019> <16:49:24>  RunType   : CREATE
 <Apr24-2019> <16:49:24>  Net Charge: 0 (Nuclei minus Electrons)
 <Apr24-2019> <16:49:24>  Symmetry  : ATOM
  Coordinates
    Atom         X           Y           Z   (Angstrom)
    1.C         0.000000    0.000000    0.000000
 <Apr24-2019> <16:49:24>  >>>> CORORT
 <Apr24-2019> <16:49:24>  >>>> CLSMAT
 <Apr24-2019> <16:49:24>  >>>> ORTHON
 <Apr24-2019> <16:49:24>  >>>> GENPT
 <Apr24-2019> <16:49:24>  Block Length=  72
 <Apr24-2019> <16:49:24>  >>>> PTBAS
 <Apr24-2019> <16:49:24>  >>>> CYCLE
 <Apr24-2019> <16:49:24>              |Error|         MaxErr       Wt(A-DIIS)
 <Apr24-2019> <16:49:24>      1      0.00000000      0.00000000
 <Apr24-2019> <16:49:24>      2      4.48324754      3.31969244    100.0
 <Apr24-2019> <16:49:24>      3      1.61537707      1.30410194    100.0
 <Apr24-2019> <16:49:24>      4      0.72706284      0.59053131    100.0
 <Apr24-2019> <16:49:24>      5      0.40898688      0.33263800    100.0
 <Apr24-2019> <16:49:24>      6      0.13548919      0.10594416    100.0
 <Apr24-2019> <16:49:24>      7      0.11406432      0.09088019     90.8
 <Apr24-2019> <16:49:24>      8      0.01170325      0.00926551      8.3
 <Apr24-2019> <16:49:24>      9      0.00078015      0.00061791      0.0
 <Apr24-2019> <16:49:24>     10      0.00000178      0.00000107      0.0
 <Apr24-2019> <16:49:24>     11      0.00000024      0.00000019      0.0
 <Apr24-2019> <16:49:25>     12      0.00000000      0.00000000      0.0
 <Apr24-2019> <16:49:25>  SCF converged
 <Apr24-2019> <16:49:25>     13      0.00000000      0.00000000      0.0
 <Apr24-2019> <16:49:25>  >>>> POPAN
 <Apr24-2019> <16:49:25>  >>>> DEBYE
 <Apr24-2019> <16:49:25>  NORMAL TERMINATION
 <Apr24-2019> <16:49:25>  END
 <Apr24-2019> <16:49:25>  ADF development version  RunTime: Apr24-2019 16:49:25  Nodes: 1  Procs: 1
 <Apr24-2019> <16:49:25>  Iron (TZ2P)
 <Apr24-2019> <16:49:25>  RunType   : CREATE
 <Apr24-2019> <16:49:25>  Net Charge: 0 (Nuclei minus Electrons)
 <Apr24-2019> <16:49:25>  Symmetry  : ATOM
  Coordinates
    Atom         X           Y           Z   (Angstrom)
    1.Fe        0.000000    0.000000    0.000000
 <Apr24-2019> <16:49:25>  >>>> CORORT
 <Apr24-2019> <16:49:25>  >>>> CLSMAT
 <Apr24-2019> <16:49:25>  >>>> ORTHON
 <Apr24-2019> <16:49:25>  >>>> GENPT
 <Apr24-2019> <16:49:25>  Block Length= 106
 <Apr24-2019> <16:49:25>  >>>> PTBAS
 <Apr24-2019> <16:49:25>  >>>> CYCLE
 <Apr24-2019> <16:49:25>              |Error|         MaxErr       Wt(A-DIIS)
 <Apr24-2019> <16:49:25>      1      0.00000000      0.00000000
 <Apr24-2019> <16:49:25>      2     75.54703326     22.78867963    100.0
 <Apr24-2019> <16:49:25>      3     27.76049544      7.78156878    100.0
 <Apr24-2019> <16:49:25>      4      5.81579909      1.68697506    100.0
 <Apr24-2019> <16:49:25>      5      9.48246163      2.71183542    100.0
 <Apr24-2019> <16:49:25>      6      1.95288220      0.56870587    100.0
 <Apr24-2019> <16:49:25>      7      2.97807775      0.85235376    100.0
 <Apr24-2019> <16:49:25>      8      0.56302000      0.15472412    100.0
 <Apr24-2019> <16:49:25>      9      0.63999189      0.17402112    100.0
 <Apr24-2019> <16:49:25>     10      0.04560616      0.01375992     12.9
 <Apr24-2019> <16:49:25>     11      0.00871844      0.00247318      1.5
 <Apr24-2019> <16:49:25>     12      0.00022678      0.00006308      0.0
 <Apr24-2019> <16:49:25>     13      0.00000335      0.00000089      0.0
 <Apr24-2019> <16:49:25>     14      0.00000007      0.00000002      0.0
 <Apr24-2019> <16:49:25>     15      0.00000000      0.00000000      0.0
 <Apr24-2019> <16:49:25>  SCF converged
 <Apr24-2019> <16:49:25>     16      0.00000000      0.00000000      0.0
 <Apr24-2019> <16:49:25>  >>>> POPAN
 <Apr24-2019> <16:49:25>  >>>> DEBYE
 <Apr24-2019> <16:49:26>  NORMAL TERMINATION
 <Apr24-2019> <16:49:26>  END
 <Apr24-2019> <16:49:26>  ADF development version  RunTime: Apr24-2019 16:49:26  Nodes: 1  Procs: 12
 <Apr24-2019> <16:49:26>  *** (NO TITLE) ***
 <Apr24-2019> <16:49:26>  RunType   : SINGLE POINT
 <Apr24-2019> <16:49:26>  Net Charge: 0 (Nuclei minus Electrons)
 <Apr24-2019> <16:49:26>  Symmetry  : NOSYM
 <Apr24-2019> <16:49:26>  >>>> FRAGM
  Coordinates
    Atom         X           Y           Z   (Angstrom)
    1.Fe        0.934676    4.178710   -4.888426
    2.C        -0.060916    2.901074   -4.026433
    3.O        -0.687373    2.094938   -3.484809
    4.C         0.876844    5.924693   -4.327347
    5.O         0.838601    7.024668   -3.974941
    6.C         2.335507    3.856438   -3.746554
    7.O         3.215456    3.652998   -3.030489
    8.C        -0.465751    4.499450   -6.030040
    9.O        -1.346019    4.699706   -6.746648
   10.C         1.989995    3.705936   -6.313062
   11.O         2.655636    3.407603   -7.209479
 <Apr24-2019> <16:49:26>  >>>> CORORT
 <Apr24-2019> <16:49:26>  >>>> CLSMAT
 <Apr24-2019> <16:49:26>  >>>> ORTHON
 <Apr24-2019> <16:49:26>  >>>> GENPT
 <Apr24-2019> <16:49:26>  Block Length= 128
 <Apr24-2019> <16:49:27>  >>>> PTBAS
 <Apr24-2019> <16:49:27>  >>>> CYCLE
 <Apr24-2019> <16:49:28>              |Error|         MaxErr       Wt(A-DIIS)
 <Apr24-2019> <16:49:28>      1      8.56250455      1.70647248
 <Apr24-2019> <16:49:28>      2      1.56842861      0.23231191    100.0
 <Apr24-2019> <16:49:29>      3      2.20218212      0.40147000    100.0
 <Apr24-2019> <16:49:30>      4      2.76450870      0.40946403    100.0
 <Apr24-2019> <16:49:30>      5      0.87630783      0.15209644    100.0
 <Apr24-2019> <16:49:31>      6      0.77406153      0.14024956    100.0
 <Apr24-2019> <16:49:32>      7      0.39230782      0.06651260     66.2
 <Apr24-2019> <16:49:32>      8      0.34146485      0.05080636     50.3
 <Apr24-2019> <16:49:33>      9      0.24630496      0.03931802     38.7
 <Apr24-2019> <16:49:34>     10      0.04994673      0.00878039      7.9
 <Apr24-2019> <16:49:34>     11      0.01430128      0.00244111      1.5
 <Apr24-2019> <16:49:35>     12      0.00164988      0.00027948      0.0
 <Apr24-2019> <16:49:36>     13      0.00030598      0.00004309      0.0
 <Apr24-2019> <16:49:36>     14      0.00001902      0.00000370      0.0
 <Apr24-2019> <16:49:37>     15      0.00001392      0.00000144      0.0
 <Apr24-2019> <16:49:38>     16      0.00000372      0.00000056      0.0
 <Apr24-2019> <16:49:38>  SCF converged
 <Apr24-2019> <16:49:38>     17      0.00000188      0.00000040      0.0
 <Apr24-2019> <16:49:39>  >>>> TOTEN
 <Apr24-2019> <16:49:40>  >>>> POPAN
 <Apr24-2019> <16:49:40>  >>>> DEBYE
 <Apr24-2019> <16:49:40>  >>>> AMETS
 <Apr24-2019> <16:49:41>   Bond Energy          -3.20858603 a.u.
 <Apr24-2019> <16:49:41>   Bond Energy         -87.31006831 eV
 <Apr24-2019> <16:49:41>   Bond Energy       -2013.42       kcal/mol
 <Apr24-2019> <16:49:41>  >>>> POPUL
 <Apr24-2019> <16:49:41>  >>>> ENGRAD
 <Apr24-2019> <16:49:42>  >>>> ENHESS
 <Apr24-2019> <16:49:42>  === NUCLEUS:     1
 <Apr24-2019> <16:50:03>  === NUCLEUS:     2
 <Apr24-2019> <16:50:24>  === NUCLEUS:     3
 <Apr24-2019> <16:50:44>  === NUCLEUS:     4
 <Apr24-2019> <16:51:03>  === NUCLEUS:     5
 <Apr24-2019> <16:51:23>  === NUCLEUS:     6
 <Apr24-2019> <16:51:43>  === NUCLEUS:     7
 <Apr24-2019> <16:52:04>  === NUCLEUS:     8
 <Apr24-2019> <16:52:25>  === NUCLEUS:     9
 <Apr24-2019> <16:52:46>  === NUCLEUS:    10
 <Apr24-2019> <16:53:06>  === NUCLEUS:    11
 <Apr24-2019> <16:53:27>  >>>> CALC_HESS_PMAT
 <Apr24-2019> <16:53:30>  >>>> CALC_HESS_WMAT
 <Apr24-2019> <16:53:31>  NORMAL TERMINATION
 <Apr24-2019> <16:53:31>  END
