

 Parallel Execution: Process Information
 ==============================================================================
 Rank   Node Name                              NodeID   MyNodeRank  NodeMaster
    0   BAZIS-cn025                               0          0          0
    1   BAZIS-cn025                               0          1         -1
    2   BAZIS-cn025                               0          2         -1
    3   BAZIS-cn025                               0          3         -1
    4   BAZIS-cn025                               0          4         -1
    5   BAZIS-cn025                               0          5         -1
    6   BAZIS-cn025                               0          6         -1
    7   BAZIS-cn025                               0          7         -1
    8   BAZIS-cn025                               0          8         -1
    9   BAZIS-cn025                               0          9         -1
   10   BAZIS-cn025                               0         10         -1
   11   BAZIS-cn025                               0         11         -1
 ==============================================================================


May use up to 30771MB of RAM as shared memory on node 0


XC
    GGA BP86
END

SCF
    iterations 250
END

EPRINT
    SFO Eig Ovl
END

ZLMFIT
    Quality normal
END

BECKEGRID
    Quality good
End

SYMMETRY nosym
CHARGE -1

ATOMS
1.F        -3.731236    0.202277   -0.041456 f=FH
2.H        -2.925328    0.331447    0.521548 f=FH
3.Br       -1.223931    0.604145    1.710137 f=Br
END

Fragments
FH /home/tcst25/advanced_comp_chemistry/exercise2/hydrogen/FHBr/frag1_FH.t21
Br /home/tcst25/advanced_comp_chemistry/exercise2/hydrogen/FHBr/frag2_Br.t21
End
end input

 *******************************************************************************
 *                                                                             *
 *  -------------------------------------                                      *
 *   Amsterdam Density Functional  (ADF)         2017                          *
 *  -------------------------------------                                      *
 *                                               r58813 2017-04-12             *
 *                                                                             *
 *                                                                             *
 *                              =================                              *
 *                              |               |                              *
 *                              |     A D F     |                              *
 *                              |               |                              *
 *                              =================                              *
 *                                                                             *
 *                                                                             *
 *   Online information and documentation:  https://www.scm.com/support/       *
 *   E-mail:  support@scm.com   info@scm.com                                   *
 *                                                                             *
 *   Scientific publications using ADF results must be properly referenced     *
 *   See the User Manuals (or the web site) for recommended citations          *
 *   The terms and conditions of the End User License Agreement apply to       *
 *   the use of ADF, https://www.scm.com/license-terms/                        *
 *                                                                             *
 **********************  x86_64_linux_intel / intelmpi  ************************
 
 Licensed to: VU/FEW (+ SARA) / ALGEMEEN / Amsterdam / THE NETHERLANDS
 SCM User ID: u7668
  
 ADF 2017  RunTime: May09-2019 17:23:36  Nodes: 1  Procs: 12

 Temporary files are created in /local/datastore0/tcst25/189816/kid_0.OQfLHu


Communication costs MPI_COMM_WORLD:      3.869 usec per message,   0.0179 usec per 8-byte item
Communication costs for intra-node:      3.839 usec per message,   0.0178 usec per 8-byte item

 *** (NO TITLE) ***



 ===========================
 A T T A C H E D   F I L E S
 ===========================
  



 ===============================
 M O D E L   P A R A M E T E R S
 ===============================
  
 DENSITY FUNCTIONAL POTENTIAL (scf)
    LDA:                               VWN                                      
    Gradient Corrections:              Becke88 Perdew86                        == Not Default ==

 SPIN  (restricted / unrestr.)
    Molecule:                          Restricted                               
    Fragments:                         Restricted                               

 OTHER ASPECTS
    Relativistic Corrections:          ---                                      

    Nuclear Charge Density Model:      Point Charge Nuclei                      
    Core Treatment:                    Frozen Orbital(s)                        

    Hyperfine or Zeeman Interaction:   ---                                      


 Fragment File(s)
 ----------------
 FH:
         file : /home/tcst25/advanced_comp_chemistry/exercise2/hydrogen/FHBr/frag1_FH.t21
         jobid: ADF 2017  RunTime: May09-2019 17:12:36  Nodes: 1  Procs: 12
         title: *** (NO TITLE) ***
 Br:
         file : /home/tcst25/advanced_comp_chemistry/exercise2/hydrogen/FHBr/frag2_Br.t21
         jobid: ADF 2017  RunTime: May09-2019 17:12:36  Nodes: 1  Procs: 12
         title: *** (NO TITLE) ***



                                        ************************************
                                        *  R U N   T Y P E : SINGLE POINT  *
                                        ************************************
  



 ===============
 G E O M E T R Y  ***  Linear Molecule  ***
 ===============
  

 ATOMS
 =====                            X Y Z                    CHARGE
                                (Angstrom)             Nucl     +Core       At.Mass
                       --------------------------    ----------------       -------
    1  F              -3.7312    0.2023   -0.0415      9.00      9.00       18.9984
    2  H              -2.9253    0.3314    0.5215      1.00      1.00        1.0078
    3  Br             -1.2239    0.6041    1.7101     35.00     35.00       78.9183


 FRAGMENTS
 =========                                     Atoms in this Fragment     Cart. coord.s (Angstrom)
                                               -------------------------------------------------------
    1  FH                                                1  F           -3.7312    0.2023   -0.0415
                                                         2  H           -2.9253    0.3314    0.5215
    2  Br                                                3  Br          -1.2239    0.6041    1.7101


 Interatomic Distance Matrix (Angstrom)
 --------------------------------------

   1)     0.000
   2)     0.992   0.000
   3)     3.085   2.093   0.000

 Min. Distance =    0.9915
 Max. Distance =    3.0848



 =====================================
 S Y M M E T R Y ,   E L E C T R O N S
 =====================================
  
 Symmetry: NOSYM

 Irreducible Representations, including subspecies
 -------------------------------------------------
 A


 Configuration of Valence Electrons
 ==================================
 ( determined in the SCF procedure )

 Total:   46

 Net Charge: -1 (Nuclei minus Electrons)

 Aufbau principle for MO occupations will be applied through SCF cycle no.     125
 Thereafter, the program will assign electrons to MOs that are spatially
 similar to the occupied MOs in a "reference" cycle ("KeepOrbitals").
 The reference cycle is always the PREVIOUS cycle: it will evolve with
 the SCF procedure.
1
 ***************************************************************************************************



                                      ****************************************
                                      *  B U I L D : (Fragments, Functions)  *
                                      ****************************************
  

 The individual fragments are copies of the corresponding 'Master' fragments defined on the fragment files.
 However, they may have been rotated (and translated) with respect to the Master. The local coordinate axes
 of each fragment (which define for instance the spatial orientation in the current molecule of a fragment
 P:x orbital) are not necessarily those of the molecule.
 The local frame (if different from the molecular one) is printed to enable an interpretation of the expan-
 sion of an MO in Fragment Orbitals.



                                              ************************
                                              *  Fragment Type : FH  *
                                              ************************
  

 Fragment no.    1   (in the list of all fragments)
 -----------------
 The local coordinate frame is identical to the molecular frame.

 Check Atomic Coordinates:

                  Master (on file)          After Computed Tranformation               As specified on Input
           ----------------------------     ----------------------------     ---------------------------------
     1)    -3.73124   0.20228  -0.04146     -3.73124   0.20228  -0.04146       1  -3.73124   0.20228  -0.04146
     2)    -2.92533   0.33145   0.52155     -2.92533   0.33145   0.52155       2  -2.92533   0.33145   0.52155



                                              ************************
                                              *  Fragment Type : Br  *
                                              ************************
  

 Fragment no.    2   (in the list of all fragments)
 -----------------
 The local coordinate frame is identical to the molecular frame.

 Check Atomic Coordinates:

                  Master (on file)          After Computed Tranformation               As specified on Input
           ----------------------------     ----------------------------     ---------------------------------
     1)    -1.22393   0.60415   1.71014     -1.22393   0.60415   1.71014       3  -1.22393   0.60415   1.71014



 =======
 S F O s  ***  (Symmetrized Fragment Orbitals)  ***
 =======
  
 SFOs are linear combinations of (valence) Fragment Orbitals (FOs), such that the SFOs transform as the
 irreducible representations of the (molecular) symmetry group. Each SFO is therefore characterized by
 an irrep of the molecule and by a few (or only one) generating FOs.
 The SFOs constitute a symmetry-adapted basis for the Fock matrix. The MO eigenvector coefficients in
 this basis provide a direct interpretation of the MOs in terms of Frontier Orbital Theory.

 The SFOs are combined with auxiliary Core Functions (CFs) to ensure orthogonalization on the (frozen)
 Core Orbitals (COs). The Core-orthogonalized SFOs (CSFOs) constitute the true Fock basis.

 The FOs, and hence also the (C)SFOs are combinations of the elementary basis functions (BAS). The basis
 functions that participate in the description of the SFOs depend on the irrep. The indices of the
 involved functions are printed below for each irrep.
 (The complete list of primitive basis functions is printed in another section)

 Total nr. of (C)SFOs (summation over all irreps) :    93

 NOTE: a (C)SFO that is defined as a combination of more than one FO is usually NOT normalized.



                                       === A ===
 Nr. of SFOs :   93
 Cartesian basis functions that participate in this irrep (total number =   105) :
      1     2     3     4     5     6     9    12     7    10
     13     8    11    14    15    16    17    18    19    20
     21    22    23    24    25    26    27    28    29    30
     31    32    33    34    35    36    37    38    39    40
     41    42    43    44    45    52    53    78    79    80
     46    49    54    57    81    84    87    47    50    55
     58    82    85    88    48    51    56    59    83    86
     89    60    66    72    90    61    67    73    91    62
     68    74    92    63    69    75    93    64    70    76
     94    65    71    77    95    96    97    98    99   100
    101   102   103   104   105

    SFO  (index         Fragment          Generating    Expansion in Fragment Orbitals
  indx  incl.CFs)   Occup   Orb.Energy   FragmentType  Coeff.   Orbital     on Fragment
 --------------------------------------------------------------------------------------
     1       1      2.000     -24.284 au  FH            1.00      1 A               1
                        (    -660.803 eV)
     2       2      2.000      -1.080 au  FH            1.00      2 A               1
                        (     -29.385 eV)
     3       3      2.000      -0.481 au  FH            1.00      3 A               1
                        (     -13.076 eV)
     4       4      2.000      -0.349 au  FH            1.00      4 A               1
                        (      -9.495 eV)
     5       5      2.000      -0.349 au  FH            1.00      5 A               1
                        (      -9.495 eV)
     6       6       --        -0.049 au  FH            1.00      6 A               1
                        (      -1.336 eV)
     7       7       --         0.070 au  FH            1.00      7 A               1
                        (       1.904 eV)
     8       8       --         0.182 au  FH            1.00      8 A               1
                        (       4.951 eV)
     9       9       --         0.400 au  FH            1.00      9 A               1
                        (      10.877 eV)
    10      10       --         0.400 au  FH            1.00     10 A               1
                        (      10.877 eV)
    11      11       --         0.638 au  FH            1.00     11 A               1
                        (      17.361 eV)
    12      12       --         0.638 au  FH            1.00     12 A               1
                        (      17.361 eV)
    13      13       --         0.643 au  FH            1.00     13 A               1
                        (      17.487 eV)
    14      14       --         0.791 au  FH            1.00     14 A               1
                        (      21.520 eV)
    15      15       --         1.138 au  FH            1.00     15 A               1
                        (      30.972 eV)
    16      16       --         1.138 au  FH            1.00     16 A               1
                        (      30.972 eV)
    17      17       --         1.151 au  FH            1.00     17 A               1
                        (      31.322 eV)
    18      18       --         1.609 au  FH            1.00     18 A               1
                        (      43.774 eV)
    19      19       --         1.609 au  FH            1.00     19 A               1
                        (      43.774 eV)
    20      20       --         2.012 au  FH            1.00     20 A               1
                        (      54.742 eV)
    21      21       --         2.598 au  FH            1.00     21 A               1
                        (      70.682 eV)
    22      22       --         2.598 au  FH            1.00     22 A               1
                        (      70.684 eV)
    23      23       --         3.181 au  FH            1.00     23 A               1
                        (      86.557 eV)
    24      24       --         3.401 au  FH            1.00     24 A               1
                        (      92.550 eV)
    25      25       --         3.401 au  FH            1.00     25 A               1
                        (      92.552 eV)
    26      26       --         3.471 au  FH            1.00     26 A               1
                        (      94.447 eV)
    27      27       --         3.471 au  FH            1.00     27 A               1
                        (      94.447 eV)
    28      28       --         3.846 au  FH            1.00     28 A               1
                        (     104.649 eV)
    29      29       --         4.195 au  FH            1.00     29 A               1
                        (     114.156 eV)
    30      30       --         4.195 au  FH            1.00     30 A               1
                        (     114.157 eV)
    31      31       --         4.486 au  FH            1.00     31 A               1
                        (     122.070 eV)
    32      32       --         4.486 au  FH            1.00     32 A               1
                        (     122.071 eV)
    33      33       --         4.600 au  FH            1.00     33 A               1
                        (     125.160 eV)
    34      34       --         5.558 au  FH            1.00     34 A               1
                        (     151.243 eV)
    35      35       --         5.558 au  FH            1.00     35 A               1
                        (     151.245 eV)
    36      36       --         5.670 au  FH            1.00     36 A               1
                        (     154.281 eV)
    37      37       --        53.478 au  FH            1.00     37 A               1
                        (    1455.215 eV)
    38      38      2.000    -480.688 au  Br            1.00      1 A               2
                        (  -13080.195 eV)
    39      39      2.000     -61.445 au  Br            1.00      2 A               2
                        (   -1672.008 eV)
    40      40      2.000     -55.375 au  Br            1.00      3 A               2
                        (   -1506.824 eV)
    41      41      2.000     -55.375 au  Br            1.00      4 A               2
                        (   -1506.824 eV)
    42      42      2.000     -55.375 au  Br            1.00      5 A               2
                        (   -1506.824 eV)
    43      43      2.000      -8.066 au  Br            1.00      6 A               2
                        (    -219.480 eV)
    44      44      2.000      -5.966 au  Br            1.00      7 A               2
                        (    -162.330 eV)
    45      45      2.000      -5.966 au  Br            1.00      8 A               2
                        (    -162.330 eV)
    46      46      2.000      -5.966 au  Br            1.00      9 A               2
                        (    -162.330 eV)
    47      47      2.000      -2.173 au  Br            1.00     10 A               2
                        (     -59.143 eV)
    48      48      2.000      -2.173 au  Br            1.00     11 A               2
                        (     -59.143 eV)
    49      49      2.000      -2.173 au  Br            1.00     12 A               2
                        (     -59.143 eV)
    50      50      2.000      -2.173 au  Br            1.00     13 A               2
                        (     -59.143 eV)
    51      51      2.000      -2.173 au  Br            1.00     14 A               2
                        (     -59.143 eV)
    52      52      2.000      -0.386 au  Br            1.00     15 A               2
                        (     -10.500 eV)
    53      53      2.000       0.016 au  Br            1.00     16 A               2
                        (       0.447 eV)
    54      54      2.000       0.016 au  Br            1.00     17 A               2
                        (       0.447 eV)
    55      55      2.000       0.016 au  Br            1.00     18 A               2
                        (       0.447 eV)
    56      56       --         0.352 au  Br            1.00     19 A               2
                        (       9.589 eV)
    57      57       --         0.352 au  Br            1.00     20 A               2
                        (       9.589 eV)
    58      58       --         0.352 au  Br            1.00     21 A               2
                        (       9.589 eV)
    59      59       --         0.501 au  Br            1.00     22 A               2
                        (      13.634 eV)
    60      60       --         0.551 au  Br            1.00     23 A               2
                        (      15.005 eV)
    61      61       --         0.551 au  Br            1.00     24 A               2
                        (      15.005 eV)
    62      62       --         0.551 au  Br            1.00     25 A               2
                        (      15.005 eV)
    63      63       --         0.551 au  Br            1.00     26 A               2
                        (      15.005 eV)
    64      64       --         0.551 au  Br            1.00     27 A               2
                        (      15.005 eV)
    65      65       --         1.141 au  Br            1.00     28 A               2
                        (      31.038 eV)
    66      66       --         1.141 au  Br            1.00     29 A               2
                        (      31.038 eV)
    67      67       --         1.141 au  Br            1.00     30 A               2
                        (      31.038 eV)
    68      68       --         1.141 au  Br            1.00     31 A               2
                        (      31.038 eV)
    69      69       --         1.141 au  Br            1.00     32 A               2
                        (      31.038 eV)
    70      70       --         1.141 au  Br            1.00     33 A               2
                        (      31.038 eV)
    71      71       --         1.141 au  Br            1.00     34 A               2
                        (      31.038 eV)
    72      72       --         1.505 au  Br            1.00     35 A               2
                        (      40.949 eV)
    73      73       --         1.505 au  Br            1.00     36 A               2
                        (      40.949 eV)
    74      74       --         1.505 au  Br            1.00     37 A               2
                        (      40.949 eV)
    75      75       --         2.776 au  Br            1.00     38 A               2
                        (      75.551 eV)
    76      76       --         3.002 au  Br            1.00     39 A               2
                        (      81.690 eV)
    77      77       --         3.002 au  Br            1.00     40 A               2
                        (      81.690 eV)
    78      78       --         3.002 au  Br            1.00     41 A               2
                        (      81.690 eV)
    79      79       --         3.002 au  Br            1.00     42 A               2
                        (      81.690 eV)
    80      80       --         3.002 au  Br            1.00     43 A               2
                        (      81.690 eV)
    81      81       --         9.163 au  Br            1.00     44 A               2
                        (     249.341 eV)
    82      82       --         9.163 au  Br            1.00     45 A               2
                        (     249.341 eV)
    83      83       --         9.163 au  Br            1.00     46 A               2
                        (     249.341 eV)
    84      84       --        14.623 au  Br            1.00     47 A               2
                        (     397.911 eV)
    85      85       --        20.941 au  Br            1.00     48 A               2
                        (     569.821 eV)
    86      86       --        20.941 au  Br            1.00     49 A               2
                        (     569.821 eV)
    87      87       --        20.941 au  Br            1.00     50 A               2
                        (     569.821 eV)
    88      88       --        20.941 au  Br            1.00     51 A               2
                        (     569.821 eV)
    89      89       --        20.941 au  Br            1.00     52 A               2
                        (     569.821 eV)
    90      90       --       101.209 au  Br            1.00     53 A               2
                        (    2754.029 eV)
    91      91       --       101.209 au  Br            1.00     54 A               2
                        (    2754.029 eV)
    92      92       --       101.209 au  Br            1.00     55 A               2
                        (    2754.029 eV)
    93      93       --       746.807 au  Br            1.00     56 A               2
                        (   20321.657 eV)



 ================================
 (Slater-type)  F U N C T I O N S  ***  (Basis and Fit)  ***
 ================================
  

 Atom Type    1  (F)
 ==============

 Valence Basis Sets:  10
 -----------------------
   1 S   10.880000
   1 S    7.700000
   2 S    3.240000
   2 S    1.940000
   2 S    0.740000
   2 P    4.540000
   2 P    2.300000
   2 P    1.240000
   3 D    2.000000
   4 F    3.000000

 Atom Type    2  (H)
 ==============

 Valence Basis Sets:   5
 -----------------------
   1 S    0.690000
   1 S    0.920000
   1 S    1.580000
   2 P    1.250000
   3 D    2.500000

 Atom Type    3  (Br)
 ==============

 Valence Basis Sets:  20
 -----------------------
   1 S   41.300000
   1 S   32.800000
   2 S   13.900000
   2 P   19.450000
   2 P   13.100000
   3 S    7.200000
   3 S    4.950000
   3 P    7.900000
   3 P    5.050000
   3 D   10.900000
   3 D    6.050000
   3 D    3.500000
   4 S    4.500000
   4 S    2.800000
   4 S    1.800000
   4 P    3.250000
   4 P    1.950000
   4 P    1.200000
   4 D    1.800000
   4 F    1.800000


 BAS: List of all Elementary Cartesian Basis Functions
 =====================================================

 The numbering in the list below (to the right of the function characteristics) is referred
 to in print-outs of MO eigenvectors and Mulliken populations in the BAS representation
 (as contrasted to the SFO representation).

 Notes:
 1. The functions are characterized by a polynomial prefactor (powers of x,y,z and r) and
    an exponential decay factor alpha.
 2. Since the basis sets are specific for an atom TYPE, the individual functions occur on
    all atoms of that type.
 3. The word 'Core' in the left margin signals that it is a Core Function (CF) : not a
    degree of freedom in the valence set, but only used to ensure orthogonalization of
    the other valence basis functions on the frozen Core Orbitals.


 (power of) X  Y  Z  R     Alpha  on Atom
            ==========     =====     ==========

 F                                    1
                                  ---------------------------------------------------------------------------
            0  0  0  0    10.880      1
            0  0  0  0     7.700      2
            0  0  0  1     3.240      3
            0  0  0  1     1.940      4
            0  0  0  1     0.740      5
            1  0  0  0     4.540      6
            0  1  0  0     4.540      7
            0  0  1  0     4.540      8
            1  0  0  0     2.300      9
            0  1  0  0     2.300     10
            0  0  1  0     2.300     11
            1  0  0  0     1.240     12
            0  1  0  0     1.240     13
            0  0  1  0     1.240     14
            2  0  0  0     2.000     15
            1  1  0  0     2.000     16
            1  0  1  0     2.000     17
            0  2  0  0     2.000     18
            0  1  1  0     2.000     19
            0  0  2  0     2.000     20
            3  0  0  0     3.000     21
            2  1  0  0     3.000     22
            2  0  1  0     3.000     23
            1  2  0  0     3.000     24
            1  1  1  0     3.000     25
            1  0  2  0     3.000     26
            0  3  0  0     3.000     27
            0  2  1  0     3.000     28
            0  1  2  0     3.000     29
            0  0  3  0     3.000     30

 H                                    2
                                  ---------------------------------------------------------------------------
            0  0  0  0     0.690     31
            0  0  0  0     0.920     32
            0  0  0  0     1.580     33
            1  0  0  0     1.250     34
            0  1  0  0     1.250     35
            0  0  1  0     1.250     36
            2  0  0  0     2.500     37
            1  1  0  0     2.500     38
            1  0  1  0     2.500     39
            0  2  0  0     2.500     40
            0  1  1  0     2.500     41
            0  0  2  0     2.500     42

 Br                                   3
                                  ---------------------------------------------------------------------------
            0  0  0  0    41.300     43
            0  0  0  0    32.800     44
            0  0  0  1    13.900     45
            1  0  0  0    19.450     46
            0  1  0  0    19.450     47
            0  0  1  0    19.450     48
            1  0  0  0    13.100     49
            0  1  0  0    13.100     50
            0  0  1  0    13.100     51
            0  0  0  2     7.200     52
            0  0  0  2     4.950     53
            1  0  0  1     7.900     54
            0  1  0  1     7.900     55
            0  0  1  1     7.900     56
            1  0  0  1     5.050     57
            0  1  0  1     5.050     58
            0  0  1  1     5.050     59
            2  0  0  0    10.900     60
            1  1  0  0    10.900     61
            1  0  1  0    10.900     62
            0  2  0  0    10.900     63
            0  1  1  0    10.900     64
            0  0  2  0    10.900     65
            2  0  0  0     6.050     66
            1  1  0  0     6.050     67
            1  0  1  0     6.050     68
            0  2  0  0     6.050     69
            0  1  1  0     6.050     70
            0  0  2  0     6.050     71
            2  0  0  0     3.500     72
            1  1  0  0     3.500     73
            1  0  1  0     3.500     74
            0  2  0  0     3.500     75
            0  1  1  0     3.500     76
            0  0  2  0     3.500     77
            0  0  0  3     4.500     78
            0  0  0  3     2.800     79
            0  0  0  3     1.800     80
            1  0  0  2     3.250     81
            0  1  0  2     3.250     82
            0  0  1  2     3.250     83
            1  0  0  2     1.950     84
            0  1  0  2     1.950     85
            0  0  1  2     1.950     86
            1  0  0  2     1.200     87
            0  1  0  2     1.200     88
            0  0  1  2     1.200     89
            2  0  0  1     1.800     90
            1  1  0  1     1.800     91
            1  0  1  1     1.800     92
            0  2  0  1     1.800     93
            0  1  1  1     1.800     94
            0  0  2  1     1.800     95
            3  0  0  0     1.800     96
            2  1  0  0     1.800     97
            2  0  1  0     1.800     98
            1  2  0  0     1.800     99
            1  1  1  0     1.800    100
            1  0  2  0     1.800    101
            0  3  0  0     1.800    102
            0  2  1  0     1.800    103
            0  1  2  0     1.800    104
            0  0  3  0     1.800    105

 Total number of charge fitting functions (nprimf)       305
 Total number of Cartesian basis functions (naos)        105
 Total number of Cartesian core functions  (ncos)          0

1
 ***************************************************************************************************



                                              ***********************
                                              *  T E C H N I C A L  *
                                              ***********************
  



 =============================================================
 P A R A L L E L I Z A T I O N  and  V E C T O R I Z A T I O N
 =============================================================
  
 Nr of parallel processes:                               12
 Maximum vector length in NumInt loops:                 128

 IO buffersize (Mb):                                     64.000000



 =====================
 S C F   U P D A T E S
 =====================
  
 Max. nr. of cycles:                               250
 Convergence criterion:                              0.0000010000
   secondary criterion:                              0.0010000000

 Mix parameter (when DIIS does not apply):           0.2000000000
 Mixed ADIIS+DIIS will be used
    Max number of expansion vectors:                10
    Pure ADIIS when Max([F,P]) is above              0.1000000000
    Pure DIIS when Max([F,P]) is below               0.0010000000
 Automatic ElectronSmearing (in case of problematic SCF convergence) disabled



 =================
 P R E C I S I O N  ***  (General: NumInt, NeglectFunctionTails, ...)  ***
 =================
  

 NumInt:           Target precision:                 6.0000000000
 -------           Initial precision:                6.0000000000
                   Min. precision (optimization):    6.0000000000

 Neglect Functions:          Basis functions:        0.1000000000E-07
 ------------------          Fit functions:          0.1000000000E-07



 ===========================
 L I N E A R   S C A L I N G
 ===========================
  

 Cut-off radii density fit:                        0.1000000000E-09
 Overlap cut-off criterion AO matrix elements:     0.1000000000E-07
 Cut-offs for Coulomb potential and fitted density:0.1000000000E-09
 Cut-off criterion for Coulomb multipole terms:    0.1000000000E-09
 Progressive Convergence parameter:                 0.000000000    
1
 ***************************************************************************************************



                                            ***************************
                                            *  C O M P U T A T I O N  *
                                            ***************************
  

 Number of elements of the density matrix on this node (used, total):      2016      5565



 ===========================================
 Numerical Integration : Fuzzy Cells (Becke)
 ===========================================
  
 Becke grid quality: GOOD           
  
 Lebedev angular grid order:             min:  11 max:  31
 Nr. of radial points:                   min:  54 max:  90

 Total nr. of points:      45217
 Nr. of blocks:              354
 Block length:               128
 Nr. of dummy points:         95


 Test of Precision of the Numerical Integration Grid
 ===================================================

 Integral of the Total Core Density:                   0.00000000000000



 ========================
 Density Fitting (zlmFit)
 ========================
  
 ZlmFit Fit Quality: NORMAL         
  
 Max L-expansion:                        min:   6 max:   7
 Nr. of radial interpolation points:     min:  39 max:  72



 =====
 S C F  ***  ScaSCF  ***
 =====
  
 Initial density matrix is calculated as sum of fragments

 CYCLE    1
 SCF Error: norm([F,P])=      0.462891036317, max([F,P])=      0.193700228006
 orbitals (Q,E):
 ---------------
 A :14...33          ( 2.00    -2.2261)  ( 2.00    -2.2261)  ( 2.00    -0.9161)  ( 2.00    -0.4398)
                     ( 2.00    -0.3137)  ( 2.00    -0.1877)  ( 2.00    -0.1877)  ( 2.00    -0.0459)
                     ( 2.00    -0.0277)  ( 2.00    -0.0277)  ( 0.00     0.1685)  ( 0.00     0.2295)
                     ( 0.00     0.3240)  ( 0.00     0.3280)  ( 0.00     0.3281)  ( 0.00     0.3497)
                     ( 0.00     0.4601)  ( 0.00     0.4602)  ( 0.00     0.5087)  ( 0.00     0.5087)

 CYCLE    2
   MIX coefficients:  0.8000  0.2000
 SCF Error: norm([F,P])=      0.141494919661, max([F,P])=      0.037589945938
 orbitals (Q,E):
 ---------------
 A :14...24          ( 2.00    -2.2262)  ( 2.00    -2.2262)  ( 2.00    -0.8982)  ( 2.00    -0.4400)
                     ( 2.00    -0.2972)  ( 2.00    -0.1704)  ( 2.00    -0.1704)  ( 2.00    -0.0454)
                     ( 2.00    -0.0287)  ( 2.00    -0.0287)  ( 0.00     0.1730)

 CYCLE    3
  SDIIS (wt  0.000): -0.6802  1.6802
 A-DIIS (wt  1.000):  0.0000  1.0000
  DIIS coefficients:  0.0000  1.0000
 SCF Error: norm([F,P])=      0.063825078050, max([F,P])=      0.015652926078
 orbitals (Q,E):
 ---------------
 A :14...24          ( 2.00    -2.2220)  ( 2.00    -2.2220)  ( 2.00    -0.8535)  ( 2.00    -0.4392)
                     ( 2.00    -0.2550)  ( 2.00    -0.1276)  ( 2.00    -0.1276)  ( 2.00    -0.0421)
                     ( 2.00    -0.0302)  ( 2.00    -0.0302)  ( 0.00     0.1858)

 CYCLE    4
  SDIIS (wt  0.000):  1.2124 -1.1070  0.8946
 A-DIIS (wt  1.000):  0.0000  0.6586  0.3414
  DIIS coefficients:  0.0000  0.6586  0.3414
 SCF Error: norm([F,P])=      0.118489422771, max([F,P])=      0.033279860930
 orbitals (Q,E):
 ---------------
 A :14...24          ( 2.00    -2.2210)  ( 2.00    -2.2210)  ( 2.00    -0.8736)  ( 2.00    -0.4379)
                     ( 2.00    -0.2724)  ( 2.00    -0.1470)  ( 2.00    -0.1470)  ( 2.00    -0.0423)
                     ( 2.00    -0.0288)  ( 2.00    -0.0288)  ( 0.00     0.1821)

 CYCLE    5
  SDIIS (wt  0.966): -0.3162  0.6549 -0.0691  0.7305
 A-DIIS (wt  0.034):  0.0000  0.0000  0.0000  1.0000
  DIIS coefficients: -0.3054  0.6325 -0.0667  0.7397
 SCF Error: norm([F,P])=      0.015486208510, max([F,P])=      0.004387557128
 orbitals (Q,E):
 ---------------
 A :14...24          ( 2.00    -2.2229)  ( 2.00    -2.2229)  ( 2.00    -0.8745)  ( 2.00    -0.4385)
                     ( 2.00    -0.2738)  ( 2.00    -0.1478)  ( 2.00    -0.1478)  ( 2.00    -0.0427)
                     ( 2.00    -0.0290)  ( 2.00    -0.0290)  ( 0.00     0.1812)

 CYCLE    6
  SDIIS (wt  0.991): -0.1352  0.2409 -0.0683  0.3963  0.5663
 A-DIIS (wt  0.009):  0.0000  0.0000  0.0000  0.0358  0.9642
  DIIS coefficients: -0.1341  0.2388 -0.0677  0.3933  0.5697
 SCF Error: norm([F,P])=      0.007508428227, max([F,P])=      0.001844266281
 orbitals (Q,E):
 ---------------
 A :14...24          ( 2.00    -2.2229)  ( 2.00    -2.2229)  ( 2.00    -0.8752)  ( 2.00    -0.4384)
                     ( 2.00    -0.2745)  ( 2.00    -0.1486)  ( 2.00    -0.1486)  ( 2.00    -0.0427)
                     ( 2.00    -0.0290)  ( 2.00    -0.0290)  ( 0.00     0.1812)

 CYCLE    7
  SDIIS (wt  1.000):  0.0095  0.0156  0.0088  0.1238  0.2179  0.6245
  DIIS coefficients:  0.0095  0.0156  0.0088  0.1238  0.2179  0.6245
 SCF Error: norm([F,P])=      0.000885515887, max([F,P])=      0.000156349835
 orbitals (Q,E):
 ---------------
 A :14...24          ( 2.00    -2.2227)  ( 2.00    -2.2227)  ( 2.00    -0.8753)  ( 2.00    -0.4384)
                     ( 2.00    -0.2746)  ( 2.00    -0.1486)  ( 2.00    -0.1486)  ( 2.00    -0.0427)
                     ( 2.00    -0.0289)  ( 2.00    -0.0289)  ( 0.00     0.1812)

 CYCLE    8
  SDIIS (wt  1.000): -0.0010  0.0070 -0.0005  0.0328  0.0559  0.2203  0.6855
  DIIS coefficients: -0.0010  0.0070 -0.0005  0.0328  0.0559  0.2203  0.6855
 SCF Error: norm([F,P])=      0.000187205782, max([F,P])=      0.000038724492
 orbitals (Q,E):
 ---------------
 A :14...24          ( 2.00    -2.2227)  ( 2.00    -2.2227)  ( 2.00    -0.8753)  ( 2.00    -0.4383)
                     ( 2.00    -0.2746)  ( 2.00    -0.1487)  ( 2.00    -0.1486)  ( 2.00    -0.0426)
                     ( 2.00    -0.0289)  ( 2.00    -0.0289)  ( 0.00     0.1812)

 CYCLE    9
  SDIIS (wt  1.000): -0.0010  0.0017 -0.0005  0.0032  0.0057  0.0499  0.1804  0.7606
  DIIS coefficients: -0.0010  0.0017 -0.0005  0.0032  0.0057  0.0499  0.1804  0.7606
 SCF Error: norm([F,P])=      0.000050220143, max([F,P])=      0.000011787793
 orbitals (Q,E):
 ---------------
 A :14...24          ( 2.00    -2.2227)  ( 2.00    -2.2227)  ( 2.00    -0.8753)  ( 2.00    -0.4384)
                     ( 2.00    -0.2746)  ( 2.00    -0.1486)  ( 2.00    -0.1486)  ( 2.00    -0.0427)
                     ( 2.00    -0.0289)  ( 2.00    -0.0289)  ( 0.00     0.1812)

 CYCLE   10
  SDIIS (wt  1.000): -0.0001  0.0002  0.0000  0.0004  0.0009  0.0121  0.0699  0.3094  0.6070
  DIIS coefficients: -0.0001  0.0002  0.0000  0.0004  0.0009  0.0121  0.0699  0.3094  0.6070
 SCF Error: norm([F,P])=      0.000013070670, max([F,P])=      0.000003773393
 orbitals (Q,E):
 ---------------
 A :14...24          ( 2.00    -2.2227)  ( 2.00    -2.2227)  ( 2.00    -0.8753)  ( 2.00    -0.4384)
                     ( 2.00    -0.2746)  ( 2.00    -0.1486)  ( 2.00    -0.1486)  ( 2.00    -0.0427)
                     ( 2.00    -0.0289)  ( 2.00    -0.0289)  ( 0.00     0.1812)

 CYCLE   11
  SDIIS (wt  1.000):  0.0000 -0.0000  0.0000 -0.0000  0.0000  0.0003  0.0033  0.0241  0.0772  0.8951
  DIIS coefficients:  0.0000 -0.0000  0.0000 -0.0000  0.0000  0.0003  0.0033  0.0241  0.0772  0.8951
 SCF Error: norm([F,P])=      0.000000824027, max([F,P])=      0.000000243331
 orbitals (Q,E):
 ---------------
 A :14...24          ( 2.00    -2.2227)  ( 2.00    -2.2227)  ( 2.00    -0.8753)  ( 2.00    -0.4384)
                     ( 2.00    -0.2746)  ( 2.00    -0.1486)  ( 2.00    -0.1486)  ( 2.00    -0.0427)
                     ( 2.00    -0.0289)  ( 2.00    -0.0289)  ( 0.00     0.1812)

 SCF CONVERGED

 CYCLE   12
1
 ***************************************************************************************************



                                                *******************
                                                *  R E S U L T S  *
                                                *******************
  
 *** Setting up for NEW gradients in Focky
 *** Using FIT density in Focky

 Orbital Energies, per Irrep and Spin:
 ======================================
                        Occup              E (au)              E (eV)       Diff (eV) with prev. cycle
                        -----      --------------------        ------       --------------------------
 A
              14        2.000     -0.22226747995239E+01       -60.482               2.99E-07
              15        2.000     -0.22226728870408E+01       -60.482               2.99E-07
              16        2.000     -0.87530682255064E+00       -23.818               2.52E-07
              17        2.000     -0.43835667911589E+00       -11.928               2.17E-07
              18        2.000     -0.27456077336719E+00        -7.471               3.33E-07
              19        2.000     -0.14864651586565E+00        -4.045               2.19E-07
              20        2.000     -0.14864099197684E+00        -4.045               2.19E-07
              21        2.000     -0.42654634234020E-01        -1.161               1.70E-07
              22        2.000     -0.28888269194786E-01        -0.786               1.88E-07
              23        2.000     -0.28880914666214E-01        -0.786               1.88E-07
              24        0.000      0.18115546909935E+00         4.929
              25        0.000      0.23449630682946E+00         6.381
              26        0.000      0.32864874939984E+00         8.943
              27        0.000      0.32868614683835E+00         8.944
              28        0.000      0.33690366140679E+00         9.168
              29        0.000      0.35367096025942E+00         9.624
              30        0.000      0.46434160744797E+00        12.635
              31        0.000      0.46435924326793E+00        12.636
              32        0.000      0.50610193004913E+00        13.772
              33        0.000      0.50610555190760E+00        13.772
  
 HOMO :       23 A                -0.28880914666214E-01
 LUMO :       24 A                 0.18115546909935E+00
  


 All Electron Calculation, thus no Orbital Energies of the Core Orbitals are calculated


 Fit test: (difference of exact and fit density, squared integrated, result summed over spins)
         Sum-of-Fragments:                             0.00078925932954
         Orthogonalized Fragments:                     0.00079851132270
         SCF:                                          0.00079924473193



 ==========================
 Electron Density at Nuclei
 ==========================
  
 The electron density is calculated at points on a small sphere around the center of a nucleus.
 The printed electron density is the average electron density on these points.
 The radius of the sphere is the printed approximate finite nuclear radius.

         Atom        Nuclear Radius (Angstrom)             Electron Density (a.u.)
         ----        -------------------------             -----------------------
     1)   F                 0.0000361580                              447.13346
     2)   H                 0.0000181514                                0.38561
     3)   Br                0.0000536685                            29312.44489



 =======================================
 M U L L I K E N   P O P U L A T I O N S
 =======================================
  
 The survey below gives for each atom:
 a) the total charge (Z minus electrons)
 b) the net spin polarization (nr of electrons spin-A minus spin-B)
 c) for each spin the atomic electron valence density (integrated) per L-value.

 Atom              Charge    Spin density          S         P         D         F
 ----              ------    ------------       ------    ------    ------    ------
 1 F              -0.5744                       3.9610    5.5933    0.0179    0.0022
 2 H               0.4491                       0.3822    0.1596    0.0092    0.0000
 3 Br             -0.8747                       7.9893   17.8739   10.0092    0.0023

 Populations of individual BAS functions
 ----------------------------------------
 1 F            0.5761  1.4004  1.0772  0.8645  0.0428  0.3570  0.4034  0.3814  0.9274  0.9999
                0.9655  0.4816  0.5563  0.5209  0.0123  0.0013  0.0099 -0.0067  0.0007  0.0003
                0.0062  0.0044  0.0070 -0.0062  0.0002  0.0006 -0.0054 -0.0039  0.0011 -0.0018
 2 H           -0.2073  0.2087  0.3808  0.0704  0.0366  0.0526  0.0062  0.0019  0.0027 -0.0036
                0.0009  0.0011
 3 Br           0.3611  1.5681  2.0732  0.7130  0.7131  0.7131  1.2650  1.2649  1.2649  1.4351
                0.6005  1.1361  1.1375  1.1368  0.8919  0.8902  0.8910  0.2677  0.4014  0.4015
                0.2676  0.4015  0.2676  0.7759  1.1649  1.1647  0.7772  1.1650  0.7766  0.2899
                0.4335  0.4337  0.2882  0.4334  0.2889  0.2641  1.1821  0.5051  0.5822  0.6072
                0.5953  0.9331  0.9438  0.9388  0.4005  0.4363  0.4193  0.0057  0.0007  0.0055
               -0.0026  0.0005  0.0002  0.0045  0.0033  0.0051 -0.0042  0.0002  0.0003 -0.0039
               -0.0027  0.0008 -0.0011

 Gross Charges per Atom (Z minus electrons)
 ==========================================
            -0.5744    0.4491   -0.8747
 Net Total: -1.00000000


 Atom-Atom Population Matrix (off-diagonal elements not doubled)
 ===============================================================

     1 :     9.2756
     2 :     0.2952    0.1903
     3 :     0.0035    0.0654   35.8058


 Frag-Frag Population Matrix (off-diagonal elements not doubled)
 ===============================================================

     1 :    10.0564
     2 :     0.0689   35.8058



 =================================================
 H I R S H F E L D   C H A R G E   A N A L Y S I S
 =================================================
  
 For each fragment: the (numerical) integral of rho(scf) * rho(fragment)/rho(sum-of-fragments)
 (nuclear charges are included, electrons are counted negative)

 The fragments and their ordering are defined in the early G E O M E T R Y output section.
 If you use single-atom fragments, this usually implies that all atoms of the same
 chemical type are grouped together. This may not be the order in which you listed them
 in the input file!

    1  FH                       -0.0814
    2  Br                       -0.9186

 Sum of these charges (accuracy NumInt/Tails) =          -1.00000166



 =============================
 V O R O N O I   C H A R G E S
 =============================
  
 For each atom: the (numerical) integral of the total electronic charge density in its Voronoi cell,
 i.e. the region of space that is closer to that atom than to any other atom.
 (cf. Wigner-Seitz cells in crystals)

 Within the Voronoi cell the subintegrals over the atomic sphere and the remaining part are evaluated
 separately to give the numbers of electrons (negative charge) in these regions.
 The net total charge in the cell (including the nuclear charge) is also given.

 Values are provided for
    a) the Initial (sum-of-fragments) density
    b) the Orthogonalized-Fragments density
    c) the SCF density
    d) the Voronoi Deformation Density (VDD): the difference SCF-Initial for the complete atomic cell
 ---------------------------------------------------------------------------------------------------
 Total NetCharge:              -1.000                     -1.000                     -1.000    0.000
 (accuracy NumInt/Tails)

 Remark: the 'NetTotal' Voronoi charges often do not match the Mulliken and/or Hirshfeld charges very
 well. This is caused by the fact that chemically different atoms are not treated in accordance with
 their relative sizes. (Voronoi cells are defined by boundary planes halfway between the atoms.)
 However, the CHANGES in charge, comparing 'Initial' to 'SCF' for instance, do give a fair indication
 of the flow of charge caused by the relaxation from sum-of-fragments to self-consistency.

 Warning: the absolute accuracy of the VDD charges obtained using the Fuzzy Cells (Becke) integration
 scheme is much poorer than the one obtained with an 'equivalent' Voronoi integration grid. 



 =================================================================
 M U L T I P O L E   D E R I V E D   C H A R G E   A N A L Y S I S
 =================================================================

 This charge analysis uses the atomic multipoles (obtained from the fitted density) up to some level X,
 and reconstructs these multipoles exactly (up to level X) by distributing charges over all atoms.
 This is achieved by using Lagrange multipliers and a weight function to keep the multipoles local.

 Dummy atoms can be included (by setting INCDUM in MDC-block to 1) to obtain a fractional charge.
 This is generally useful and necessary only for small symmetrical molecules, when there are not
 enough degrees of freedom to reconstruct the multipoles.

 Since the atomic multipoles are reconstructed up to level X,
 the molecular multipoles are represented also up to level X.
 The recommended level is to reconstruct up to quadrupole : -> MDC-q charges.

 See: M. Swart, P.Th. van Duijnen, J.G. Snijders, J.Comput.Chem., (2001), p. 79-88.

 ------------------------------------------------------------- 
 Atomic electronic multipole moments from SCF equations (a.u.)
 ------------------------------------------------------------- 

   atom        charge        dip-x     dip-y     dip-z      quad-xx   quad-xy   quad-xz   quad-yy   quad-yz   quad-zz
 --------------------------------------------------------------------------------------------------------------------
    1 F     -0.381952     0.119691  0.019165  0.083604     0.240201  0.051712  0.225858 -0.232243  0.036256 -0.007958
    2 H     -0.064125    -0.223322 -0.035815 -0.156009     0.012513  0.003011  0.011562 -0.012505  0.001651 -0.000007
    3 Br    -0.553923    -0.633338 -0.101509 -0.442321     1.042165  0.224855  0.979491 -1.007329  0.156895 -0.034836

 --------------------------------------- 
 Multipole derived atomic charges (a.u.)
 --------------------------------------- 

 The MDC-m charges are just the Monopole terms in the multipole expansion, while for the MDC-d charges
 also the Dipoles are reconstructed. The usually preferred charges are the MDC-q charges.
 These reconstruct the Monopoles, Dipoles and Quadrupoles (both atomic AND molecular).

        Atom    Level:     MDC-m        MDC-d        MDC-q
 ---------------------------------------------------------
     1     F           -0.381952    -0.286035    -0.558341
     2     H           -0.064125     0.023724     0.425015
     3     Br          -0.553923    -0.737690    -0.866674

 ------------------------------------------------ 
 Average absolute deviations in atomic multipoles
 ------------------------------------------------ 

 Stated here are the average differences between the atomic multipoles
 and the reconstructed atomic multipoles (from the distributed charges).
 If these values are not zero, this means there are not enough degrees of freedom,
 to be able to reconstruct the atomic multipoles. (This usually happens only
 for small and/or highly symmetric molecules). If this is the case, one could add
 dummy atoms as extra point charges (and setting INCDUM in MDC-block to 1).

 Level:                                 MDC-d        MDC-q
 ---------------------------------------------------------
 Charge   (a.u.)                       0.0000       0.0000
 Dipole   (Debye)                      0.0001       0.0001
 Quad.    (a.u.)                       0.2823       0.0956

 --------------------------------------- 
 Represented molecular multipole moments
 --------------------------------------- 

 Given here are the Molecular multipole moments from the atomic charges, and from the Fit Density.
 Note that the atomic charges represent the latter, NOT the ones from the Exact density.

            Q (a.u.)             Dipole moment (Debye)                                          Quadrupole moment (a.u.)
                                 x         y         z              xx        xy        xz        yy        yz        zz
------------------------------------------------------------------------------------------------------------------------
MDC-m        -1.0000       11.0027   -2.0806   -4.6346        -20.5859    4.0712    6.4181   14.0780   -3.1078    6.5079
MDC-d        -1.0000        9.1297   -2.3808   -5.9431        -13.1035    3.9550    7.8400   11.5685   -4.0478    1.5350
MDC-q        -1.0000        9.1297   -2.3808   -5.9431        -14.5637    3.4826    5.7809   12.9800   -4.3778    1.5837
 
Fit.Dens.    -1.0000        9.1295   -2.3809   -5.9429        -13.8594    3.5715    6.1646   12.2983   -4.3164    1.5611



 =============
 Dipole Moment  ***  (Debye)  ***
 =============
  
 Vector   :         9.11588826     -2.38302854     -5.95240770
 Magnitude:        11.14492715

 This molecular dipole moment is calculated with analytic integration
 ************************************************************************************
 Since the molecule is NOT NEUTRAL, the dipole moment depends on the choice of origin
 ************************************************************************************



 =========================================
 Quadrupole Moment (Buckingham convention)  ***  (a.u.)  ***
 =========================================
  
      quad-xx        quad-xy        quad-xz        quad-yy        quad-yz        quad-zz
    -13.80863444     3.70860927     6.77841657    12.28401059    -4.22625864     1.52462385

 This molecular quadrupole moment is calculated with analytic integration
1



                                             *************************
                                             *  SFO MO coefficients  *
                                             *************************
  


                                       === A ===
 MOs expanded in CFs+SFOs
 ========================

 The SFOs have been characterized in an earlier part of output.
 To deduce the bonding / antibonding nature of SFO combinations in an MO, consider the products
 of the coefficients AND THE OVERLAP between the SFOs (may be NEGATIVE). The SFO overlap matrix
 is printed later, in the SFO Populations section.

 (The CF coefficients are not printed)

 MOs :      1        2        3        4        5        6        7        8        9       10
 occup:   2.00     2.00     2.00     2.00     2.00     2.00     2.00     2.00     2.00     2.00
 CF+SFO
     1   0.0000   0.0000  -0.0000   0.0000  -0.0000  -1.0000   0.0001   0.0000   0.0000   0.0000
     2   0.0000   0.0000  -0.0000   0.0000  -0.0000   0.0001   0.0024  -0.0000   0.0000   0.0000
     3   0.0000   0.0000  -0.0000   0.0000  -0.0000   0.0001   0.0030  -0.0002  -0.0000   0.0000
     4  -0.0000  -0.0000  -0.0000  -0.0000  -0.0000  -0.0000  -0.0000   0.0000  -0.0000   0.0000
     5  -0.0000  -0.0000   0.0000   0.0000  -0.0000   0.0000  -0.0000   0.0000   0.0000   0.0000
     6  -0.0000  -0.0000   0.0000  -0.0000   0.0000  -0.0001  -0.0095   0.0005  -0.0000  -0.0000
     7  -0.0000   0.0000   0.0000  -0.0000   0.0000  -0.0001  -0.0027   0.0004   0.0000  -0.0000
     8   0.0000   0.0000   0.0000   0.0000   0.0000   0.0001   0.0026   0.0002   0.0000   0.0000
     9  -0.0000  -0.0000   0.0000  -0.0000  -0.0000  -0.0000  -0.0000   0.0000  -0.0000   0.0000
    10   0.0000   0.0000  -0.0000  -0.0000   0.0000   0.0000  -0.0000  -0.0000  -0.0000  -0.0000
    11  -0.0000  -0.0000   0.0000  -0.0000  -0.0000  -0.0000  -0.0000   0.0000   0.0000  -0.0001
    12   0.0000   0.0000  -0.0000  -0.0000   0.0000  -0.0000   0.0000  -0.0000   0.0001   0.0000
    13   0.0000   0.0000  -0.0000   0.0000  -0.0000   0.0001   0.0008  -0.0000   0.0000  -0.0000
    14  -0.0000   0.0000   0.0000  -0.0000   0.0000  -0.0001  -0.0003   0.0002   0.0000  -0.0000
    15  -0.0000   0.0000   0.0000  -0.0000   0.0000  -0.0000  -0.0000   0.0000   0.0000  -0.0000
    16   0.0000  -0.0000  -0.0000  -0.0000  -0.0000   0.0000   0.0000  -0.0000  -0.0000  -0.0000
    17  -0.0000   0.0000   0.0000  -0.0000   0.0000  -0.0001  -0.0011   0.0003   0.0000  -0.0000
    18  -0.0000   0.0000   0.0000  -0.0000  -0.0000  -0.0000  -0.0000  -0.0000   0.0000  -0.0000
    19  -0.0000  -0.0000   0.0000   0.0000  -0.0000   0.0000  -0.0000   0.0000  -0.0000  -0.0000
    20  -0.0000  -0.0000  -0.0000  -0.0000   0.0000  -0.0001  -0.0005   0.0001   0.0000  -0.0000
    21   0.0000  -0.0000   0.0000  -0.0000  -0.0000   0.0000   0.0000  -0.0000  -0.0000   0.0000
    22   0.0000  -0.0000  -0.0000  -0.0000   0.0000   0.0000   0.0000  -0.0000   0.0000  -0.0000
    23  -0.0000  -0.0000  -0.0000   0.0000  -0.0000  -0.0001  -0.0000  -0.0000  -0.0000   0.0000
    24   0.0000  -0.0000   0.0000  -0.0000   0.0000   0.0000   0.0000   0.0000  -0.0000  -0.0000
    25  -0.0000  -0.0000  -0.0000   0.0000   0.0000  -0.0000  -0.0000  -0.0000   0.0000  -0.0000
    26  -0.0000  -0.0000  -0.0000   0.0000   0.0000  -0.0000   0.0000  -0.0000   0.0000  -0.0000
    27  -0.0000  -0.0000  -0.0000   0.0000   0.0000  -0.0000   0.0000  -0.0000   0.0000  -0.0000
    28  -0.0000  -0.0000  -0.0000   0.0000  -0.0000   0.0000  -0.0003   0.0000  -0.0000  -0.0000
    29  -0.0000  -0.0000  -0.0000   0.0000   0.0000  -0.0000  -0.0000   0.0000   0.0000   0.0000
    30   0.0000   0.0000   0.0000  -0.0000   0.0000  -0.0000   0.0000  -0.0000   0.0000  -0.0000
    31  -0.0000   0.0000  -0.0000  -0.0000   0.0000   0.0000  -0.0000  -0.0000   0.0000   0.0000
    32   0.0000   0.0000   0.0000  -0.0000  -0.0000  -0.0000   0.0000   0.0000   0.0000  -0.0000
    33   0.0000   0.0000   0.0000  -0.0000   0.0000   0.0000   0.0002   0.0000   0.0000   0.0000
    34   0.0000   0.0000  -0.0000  -0.0000   0.0000  -0.0000   0.0000  -0.0000  -0.0000  -0.0000
    35  -0.0000  -0.0000   0.0000  -0.0000  -0.0000   0.0000  -0.0000   0.0000  -0.0000   0.0000
    36  -0.0000   0.0000   0.0000  -0.0000   0.0000   0.0001  -0.0004   0.0000   0.0000  -0.0000
    37   0.0000   0.0000   0.0000  -0.0000   0.0000  -0.0002   0.0000  -0.0000  -0.0000   0.0000
    38   1.0000   0.0000   0.0000   0.0000  -0.0000  -0.0000  -0.0001   0.0000  -0.0000  -0.0000
    39   0.0000  -1.0000  -0.0001  -0.0000   0.0000   0.0000   0.0002  -0.0000   0.0000   0.0000
    40   0.0000   0.0001  -0.8207   0.1132  -0.5601  -0.0000  -0.0000  -0.0000  -0.0000   0.0000
    41   0.0000   0.0000  -0.1129  -0.9930  -0.0354  -0.0000  -0.0000  -0.0000  -0.0000  -0.0000
    42   0.0000   0.0001  -0.5602   0.0342   0.8277  -0.0000  -0.0000  -0.0000   0.0000  -0.0000
    43  -0.0000   0.0001   0.0000   0.0000  -0.0000   0.0000  -0.9988   0.0007   0.0000   0.0000
    44  -0.0000   0.0000  -0.0000   0.0000  -0.0000  -0.0000   0.0003   0.7336  -0.4108  -0.5415
    45  -0.0000   0.0000  -0.0000  -0.0000   0.0000  -0.0000   0.0002   0.5297  -0.1537   0.8341
    46   0.0000  -0.0000   0.0000   0.0000   0.0000   0.0000  -0.0002  -0.4259  -0.8987   0.1049
    47   0.0000  -0.0000   0.0000  -0.0000  -0.0000   0.0000  -0.0000  -0.0000   0.0003  -0.0000
    48  -0.0000   0.0000  -0.0000  -0.0000  -0.0000  -0.0000   0.0000   0.0002   0.0001  -0.0002
    49  -0.0000   0.0000  -0.0000  -0.0000   0.0000  -0.0000   0.0001   0.0003   0.0000   0.0002
    50   0.0000  -0.0000   0.0000   0.0000  -0.0000   0.0000  -0.0000  -0.0001  -0.0000  -0.0000
    51   0.0000  -0.0000   0.0000  -0.0000   0.0000   0.0000  -0.0000  -0.0001   0.0001   0.0002
    52   0.0000  -0.0000  -0.0000   0.0000  -0.0000   0.0002   0.0061  -0.0004  -0.0000   0.0000
    53   0.0000   0.0000  -0.0000  -0.0000   0.0000   0.0000   0.0017  -0.0001  -0.0000   0.0003
    54   0.0000   0.0000  -0.0000  -0.0000  -0.0000   0.0001   0.0023  -0.0001   0.0003  -0.0000
    55  -0.0000  -0.0000   0.0000  -0.0000   0.0000  -0.0001  -0.0039   0.0001   0.0001   0.0001
    56   0.0000   0.0000   0.0000  -0.0000   0.0000   0.0000   0.0031  -0.0002   0.0000   0.0001
    57  -0.0000  -0.0000  -0.0000  -0.0000  -0.0000  -0.0000  -0.0005   0.0000   0.0002   0.0000
    58  -0.0000  -0.0000  -0.0000  -0.0000   0.0000  -0.0000  -0.0021   0.0001  -0.0000   0.0001
    59  -0.0000  -0.0000   0.0000  -0.0000   0.0000  -0.0001  -0.0053   0.0002  -0.0000  -0.0000
    60   0.0000  -0.0000  -0.0000   0.0000   0.0000   0.0000   0.0005  -0.0001   0.0000  -0.0000
    61  -0.0000   0.0000   0.0000  -0.0000   0.0000  -0.0000  -0.0011   0.0002  -0.0000  -0.0000
    62  -0.0000   0.0000   0.0000   0.0000   0.0000  -0.0000  -0.0008   0.0001   0.0000  -0.0000
    63  -0.0000   0.0000   0.0000   0.0000  -0.0000  -0.0000  -0.0012   0.0002   0.0000   0.0000
    64   0.0000  -0.0000  -0.0000   0.0000  -0.0000   0.0000   0.0004  -0.0001   0.0000   0.0000
    65  -0.0000   0.0000   0.0000  -0.0000   0.0000  -0.0000  -0.0003   0.0001   0.0000   0.0000
    66   0.0000  -0.0000  -0.0000   0.0000  -0.0000   0.0000   0.0001  -0.0001   0.0000  -0.0000
    67  -0.0000   0.0000   0.0000   0.0000   0.0000  -0.0000  -0.0001   0.0000  -0.0000  -0.0000
    68   0.0000  -0.0000  -0.0000   0.0000   0.0000   0.0000   0.0001  -0.0000  -0.0000   0.0000
    69  -0.0000   0.0000   0.0000   0.0000   0.0000  -0.0000  -0.0003   0.0001  -0.0000   0.0000
    70  -0.0000   0.0000   0.0000   0.0000  -0.0000  -0.0000  -0.0002   0.0001   0.0000  -0.0000
    71  -0.0000   0.0000   0.0000  -0.0000  -0.0000  -0.0000  -0.0001   0.0001   0.0000  -0.0000
    72   0.0000  -0.0000   0.0000   0.0000   0.0000   0.0001   0.0008  -0.0006  -0.0000   0.0000
    73  -0.0000   0.0000  -0.0000   0.0000  -0.0000  -0.0000  -0.0001   0.0000  -0.0004  -0.0002
    74  -0.0000   0.0000  -0.0000   0.0000   0.0000  -0.0000  -0.0001   0.0000  -0.0002   0.0004
    75  -0.0000   0.0000  -0.0000   0.0000  -0.0000   0.0000  -0.0012   0.0000  -0.0000   0.0000
    76  -0.0000   0.0000  -0.0000  -0.0000  -0.0000  -0.0000  -0.0003   0.0000  -0.0000   0.0000
    77   0.0000  -0.0000   0.0000  -0.0000   0.0000   0.0000   0.0002  -0.0000  -0.0000  -0.0000
    78  -0.0000   0.0000  -0.0000   0.0000   0.0000  -0.0000  -0.0004   0.0000   0.0000  -0.0000
    79   0.0000  -0.0000   0.0000   0.0000  -0.0000   0.0000   0.0001  -0.0000  -0.0000   0.0000
    80   0.0000  -0.0000   0.0000   0.0000   0.0000   0.0000   0.0000  -0.0000   0.0000   0.0000
    81   0.0000   0.0000  -0.0000   0.0000   0.0000  -0.0000  -0.0000   0.0001  -0.0000   0.0001
    82  -0.0000  -0.0000   0.0000   0.0000   0.0000   0.0000   0.0000  -0.0001  -0.0000   0.0000
    83  -0.0000  -0.0000   0.0000  -0.0000   0.0000   0.0000   0.0000  -0.0000   0.0001   0.0000
    84   0.0000  -0.0001  -0.0000  -0.0000   0.0000  -0.0000  -0.0003  -0.0000  -0.0000  -0.0000
    85  -0.0000  -0.0000   0.0000  -0.0000  -0.0000   0.0000  -0.0000   0.0000  -0.0000   0.0000
    86  -0.0000  -0.0000   0.0000  -0.0000   0.0000   0.0000  -0.0000   0.0000  -0.0000  -0.0000
    87  -0.0000  -0.0000   0.0000   0.0000   0.0000   0.0000  -0.0000   0.0000   0.0000   0.0000
    88  -0.0000  -0.0000   0.0000   0.0000  -0.0000   0.0000  -0.0000   0.0000  -0.0000   0.0000
    89  -0.0000  -0.0000   0.0000   0.0000   0.0000   0.0000  -0.0000   0.0000   0.0000  -0.0000
    90   0.0000  -0.0000   0.0001  -0.0000   0.0000   0.0000   0.0000   0.0001  -0.0000  -0.0001
    91   0.0000  -0.0000   0.0000   0.0001   0.0000   0.0000   0.0000   0.0000   0.0001   0.0000
    92  -0.0000   0.0000  -0.0000  -0.0000   0.0001  -0.0000  -0.0000  -0.0001   0.0000  -0.0001
    93  -0.0001   0.0000  -0.0000   0.0000  -0.0000  -0.0000  -0.0000   0.0000  -0.0000  -0.0000

 MOs :     11       12       13       14       15       16       17       18       19       20
 occup:   2.00     2.00     2.00     2.00     2.00     2.00     2.00     2.00     2.00     2.00
 CF+SFO
     1   0.0000   0.0000   0.0000   0.0000   0.0000  -0.0000  -0.0005   0.0003   0.0000   0.0000
     2   0.0003   0.0000   0.0000  -0.0000   0.0000   0.9962  -0.0271  -0.0146   0.0000   0.0000
     3   0.0004  -0.0000   0.0000  -0.0000   0.0000  -0.0275   0.0884  -0.9749   0.0000  -0.0000
     4  -0.0000  -0.0000  -0.0000   0.0000  -0.0000  -0.0000  -0.0000   0.0000   0.9978   0.0319
     5   0.0000   0.0000  -0.0000   0.0000  -0.0000  -0.0000  -0.0000   0.0000   0.0319  -0.9978
     6  -0.0009  -0.0000  -0.0000   0.0000  -0.0000   0.0122  -0.0159  -0.0383  -0.0000  -0.0000
     7  -0.0003   0.0000  -0.0000   0.0000  -0.0000   0.0070  -0.0051  -0.0024  -0.0000   0.0000
     8  -0.0003   0.0000  -0.0000   0.0000  -0.0000  -0.0011  -0.0141  -0.0089   0.0000   0.0000
     9   0.0000  -0.0001  -0.0001   0.0000  -0.0000  -0.0000   0.0000   0.0000   0.0048  -0.0054
    10  -0.0000  -0.0001   0.0001   0.0000   0.0000   0.0000  -0.0000  -0.0000   0.0054   0.0048
    11   0.0000  -0.0000  -0.0001  -0.0000  -0.0000  -0.0000   0.0000  -0.0000  -0.0070   0.0104
    12  -0.0000  -0.0001   0.0000   0.0000  -0.0000   0.0000  -0.0000   0.0000  -0.0104  -0.0070
    13   0.0000  -0.0000  -0.0000   0.0000   0.0000   0.0003  -0.0024   0.0096  -0.0000   0.0000
    14  -0.0002   0.0000  -0.0000   0.0000  -0.0000   0.0045  -0.0051  -0.0053  -0.0000   0.0000
    15  -0.0000   0.0000   0.0000  -0.0000  -0.0000   0.0000   0.0000  -0.0000   0.0000  -0.0000
    16   0.0000  -0.0000  -0.0000  -0.0000   0.0000  -0.0000   0.0000  -0.0000   0.0000  -0.0000
    17  -0.0004   0.0000  -0.0000   0.0000  -0.0000   0.0031   0.0010  -0.0012   0.0000  -0.0000
    18   0.0000  -0.0001  -0.0001   0.0000  -0.0000   0.0000  -0.0000   0.0000   0.0019  -0.0008
    19   0.0000   0.0001  -0.0001  -0.0000  -0.0000   0.0000   0.0000  -0.0000  -0.0008  -0.0019
    20  -0.0000  -0.0000   0.0000  -0.0000  -0.0000   0.0016   0.0038  -0.0001  -0.0000  -0.0000
    21   0.0000  -0.0000   0.0000  -0.0000  -0.0000   0.0000   0.0000  -0.0000   0.0000   0.0000
    22   0.0000   0.0000   0.0000   0.0000  -0.0000  -0.0000  -0.0000   0.0000   0.0000   0.0000
    23   0.0000  -0.0000   0.0000  -0.0000   0.0000   0.0012  -0.0002   0.0012  -0.0000  -0.0000
    24   0.0000   0.0000  -0.0000  -0.0000  -0.0000   0.0000   0.0000  -0.0000   0.0001   0.0003
    25   0.0000  -0.0000  -0.0000   0.0000  -0.0000   0.0000  -0.0000   0.0000  -0.0003   0.0001
    26   0.0000  -0.0000  -0.0000   0.0000   0.0000   0.0000  -0.0000  -0.0000   0.0000  -0.0000
    27   0.0000  -0.0000  -0.0000  -0.0000   0.0000   0.0000  -0.0000  -0.0000   0.0000   0.0000
    28   0.0001  -0.0000   0.0000  -0.0000   0.0000  -0.0005   0.0013  -0.0013  -0.0000   0.0000
    29   0.0000  -0.0000  -0.0000   0.0000   0.0000   0.0000   0.0000  -0.0000  -0.0000  -0.0000
    30  -0.0000   0.0000   0.0000   0.0000  -0.0000   0.0000  -0.0000   0.0000   0.0000  -0.0000
    31  -0.0000   0.0000  -0.0000  -0.0000   0.0000   0.0000   0.0000  -0.0000   0.0025   0.0011
    32   0.0000   0.0000   0.0000  -0.0000   0.0000   0.0000   0.0000  -0.0000   0.0011  -0.0025
    33  -0.0000   0.0000  -0.0000   0.0000  -0.0000   0.0002   0.0006  -0.0011   0.0000  -0.0000
    34   0.0000   0.0000  -0.0000  -0.0000   0.0000   0.0000   0.0000  -0.0000  -0.0008  -0.0007
    35   0.0000   0.0000   0.0000  -0.0000   0.0000   0.0000   0.0000  -0.0000  -0.0007   0.0008
    36   0.0000  -0.0000   0.0000  -0.0000  -0.0000   0.0002   0.0008   0.0012   0.0000  -0.0000
    37  -0.0000  -0.0000  -0.0000  -0.0000  -0.0000   0.0001   0.0000  -0.0000  -0.0000  -0.0000
    38  -0.0000  -0.0000  -0.0000  -0.0000  -0.0000   0.0001  -0.0000   0.0001  -0.0000  -0.0000
    39   0.0000   0.0000   0.0000  -0.0000   0.0000  -0.0004   0.0002  -0.0005   0.0000   0.0000
    40  -0.0000   0.0000  -0.0000   0.0000  -0.0000   0.0000  -0.0000   0.0001   0.0000  -0.0000
    41  -0.0000  -0.0000   0.0000   0.0000   0.0000   0.0000  -0.0000   0.0000   0.0000   0.0000
    42  -0.0000   0.0000   0.0000  -0.0000   0.0000   0.0000  -0.0000   0.0001  -0.0000   0.0000
    43   0.0003  -0.0000   0.0000  -0.0000   0.0000  -0.0017   0.0007  -0.0028   0.0000   0.0000
    44  -0.0003   0.0002  -0.0002   0.0000  -0.0000   0.0004  -0.0006   0.0020  -0.0002  -0.0004
    45  -0.0002   0.0000   0.0003  -0.0000   0.0000   0.0003  -0.0004   0.0014  -0.0002   0.0005
    46   0.0002   0.0003   0.0001  -0.0000  -0.0000  -0.0002   0.0004  -0.0012  -0.0006  -0.0000
    47  -0.1186   0.8535   0.2020  -0.3989  -0.2401   0.0000   0.0001  -0.0004   0.0007   0.0000
    48   0.5449   0.2075   0.6071   0.3339   0.4243  -0.0002  -0.0007   0.0017   0.0003  -0.0004
    49   0.7246   0.1252  -0.5941  -0.3096   0.1018  -0.0003  -0.0009   0.0023  -0.0000   0.0005
    50  -0.3006  -0.0702   0.0277  -0.5242   0.7932   0.0001   0.0004  -0.0010  -0.0001  -0.0000
    51  -0.2712   0.4560  -0.4868   0.5990   0.3504   0.0001   0.0003  -0.0009   0.0003   0.0005
    52  -0.0001   0.0000  -0.0000   0.0000   0.0000  -0.0177  -0.9859  -0.1370   0.0000   0.0000
    53   0.0001  -0.0000   0.0001  -0.0000   0.0000  -0.0056  -0.0059   0.0364  -0.0063   0.0280
    54   0.0001  -0.0001  -0.0000   0.0000   0.0000  -0.0076  -0.0081   0.0496   0.0269   0.0004
    55  -0.0002  -0.0000   0.0000  -0.0000  -0.0000   0.0127   0.0135  -0.0829   0.0133   0.0125
    56   0.0003  -0.0000   0.0001  -0.0000   0.0000  -0.0021   0.0039  -0.0067  -0.0001   0.0009
    57  -0.0001  -0.0001  -0.0000   0.0000  -0.0000   0.0003  -0.0007   0.0011   0.0014   0.0004
    58  -0.0002   0.0000   0.0001  -0.0000   0.0000   0.0014  -0.0027   0.0045  -0.0004   0.0012
    59  -0.0005  -0.0000  -0.0000   0.0000  -0.0000   0.0072  -0.0009  -0.0091  -0.0000  -0.0000
    60   0.0001  -0.0002  -0.0001  -0.0001  -0.0001  -0.0020  -0.0019   0.0052  -0.0035   0.0012
    61  -0.0002   0.0001  -0.0001  -0.0002  -0.0000   0.0044   0.0042  -0.0117   0.0008   0.0018
    62  -0.0002  -0.0001  -0.0000   0.0001   0.0002   0.0033   0.0031  -0.0087  -0.0019  -0.0002
    63  -0.0002  -0.0001   0.0001   0.0001  -0.0002   0.0049   0.0046  -0.0128  -0.0009  -0.0020
    64   0.0001  -0.0000   0.0002  -0.0002   0.0001  -0.0016  -0.0015   0.0043  -0.0001  -0.0029
    65   0.0000   0.0000  -0.0000   0.0000  -0.0000   0.0016   0.0016  -0.0039  -0.0001  -0.0004
    66  -0.0000  -0.0000   0.0000  -0.0000   0.0001  -0.0006  -0.0006   0.0014  -0.0001   0.0003
    67   0.0000  -0.0001   0.0000  -0.0000   0.0000   0.0003   0.0003  -0.0007   0.0006   0.0002
    68  -0.0000  -0.0001  -0.0000  -0.0000  -0.0001  -0.0005  -0.0005   0.0013   0.0006   0.0000
    69   0.0000  -0.0000  -0.0000  -0.0000   0.0000   0.0015   0.0015  -0.0037   0.0004   0.0000
    70   0.0000  -0.0000   0.0001   0.0000  -0.0000   0.0008   0.0007  -0.0019  -0.0002   0.0008
    71   0.0000   0.0000   0.0000  -0.0001  -0.0000   0.0007   0.0006  -0.0016  -0.0003   0.0001
    72   0.0002   0.0000   0.0000  -0.0000   0.0000  -0.0035  -0.0004   0.0024  -0.0000   0.0000
    73  -0.0000   0.0001  -0.0000  -0.0000  -0.0000   0.0002   0.0000  -0.0002  -0.0003  -0.0002
    74  -0.0000   0.0000   0.0001   0.0000   0.0000   0.0003   0.0000  -0.0002  -0.0002   0.0003
    75   0.0000  -0.0000   0.0000  -0.0000  -0.0000  -0.0006  -0.0021   0.0002  -0.0000   0.0000
    76   0.0002   0.0003   0.0001  -0.0001   0.0003   0.0004  -0.0002   0.0003   0.0002  -0.0000
    77  -0.0002   0.0002  -0.0003  -0.0003   0.0001  -0.0003   0.0002  -0.0002   0.0001   0.0002
    78   0.0003  -0.0001  -0.0002  -0.0003  -0.0002   0.0005  -0.0003   0.0004  -0.0001   0.0001
    79  -0.0001  -0.0000   0.0003  -0.0004  -0.0002  -0.0002   0.0001  -0.0001   0.0001  -0.0002
    80  -0.0000  -0.0003  -0.0000  -0.0002   0.0004  -0.0001   0.0000  -0.0000  -0.0002  -0.0001
    81   0.0000  -0.0000  -0.0000   0.0000  -0.0000   0.0001  -0.0000  -0.0000  -0.0000   0.0000
    82  -0.0000  -0.0000  -0.0000   0.0000  -0.0000  -0.0001   0.0000   0.0000  -0.0000   0.0000
    83  -0.0000   0.0000  -0.0000  -0.0000  -0.0000  -0.0000   0.0000   0.0000   0.0000   0.0000
    84  -0.0000  -0.0000   0.0000  -0.0000   0.0000  -0.0001  -0.0001  -0.0000  -0.0000   0.0000
    85   0.0003  -0.0001  -0.0001  -0.0002   0.0000   0.0000  -0.0000   0.0000  -0.0000   0.0000
    86   0.0002  -0.0001   0.0003   0.0002  -0.0000   0.0000  -0.0000   0.0000  -0.0000  -0.0000
    87   0.0001   0.0003   0.0000   0.0000  -0.0001   0.0000  -0.0000   0.0000   0.0000   0.0000
    88   0.0001  -0.0000  -0.0002   0.0003   0.0001   0.0000  -0.0000   0.0000  -0.0000   0.0000
    89   0.0000   0.0002   0.0001  -0.0000   0.0004   0.0000  -0.0000   0.0000   0.0000  -0.0000
    90   0.0000  -0.0000  -0.0000   0.0000  -0.0000  -0.0000  -0.0000   0.0000  -0.0000  -0.0000
    91   0.0000  -0.0000   0.0000  -0.0000   0.0000  -0.0000  -0.0000   0.0000   0.0000   0.0000
    92  -0.0000   0.0000  -0.0000   0.0000  -0.0000   0.0000   0.0000  -0.0000   0.0000  -0.0000
    93  -0.0000  -0.0000   0.0000   0.0000   0.0000   0.0000  -0.0000   0.0000  -0.0000  -0.0000

 MOs :     21       22       23       24       25       26       27       28       29       30
 occup:   2.00     2.00     2.00     0.00     0.00     0.00     0.00     0.00     0.00     0.00
 CF+SFO
     1  -0.0042  -0.0000  -0.0000   0.0044  -0.0169   0.0000  -0.0000   0.0039  -0.0186   0.0000
     2  -0.0882  -0.0000  -0.0000   0.0675  -0.2508   0.0001  -0.0000   0.0266  -0.2220   0.0000
     3  -0.2085  -0.0000  -0.0001   0.1059  -0.2719  -0.0000  -0.0000  -0.0204  -0.1162  -0.0000
     4   0.0000  -0.0563   0.0253  -0.0000   0.0000   0.0590   0.0403  -0.0001   0.0000   0.0285
     5  -0.0000   0.0253   0.0563   0.0000  -0.0000  -0.0403   0.0590   0.0001  -0.0000  -0.0177
     6  -0.1023  -0.0000  -0.0000  -0.9746   1.2101  -0.0002  -0.0000  -0.0421   0.0001   0.0000
     7  -0.0149   0.0000  -0.0000   0.5532   0.8636   0.0001  -0.0000   0.0161  -0.4558   0.0000
     8  -0.0941   0.0000  -0.0000   0.1527  -0.4679  -0.0013  -0.0001  -0.7915  -0.1553  -0.0000
     9   0.0000   0.0023  -0.0080  -0.0000   0.0000  -0.0051  -0.0520   0.0000  -0.0000  -0.0505
    10  -0.0000   0.0080   0.0022   0.0000  -0.0000  -0.0521   0.0051   0.0001  -0.0000  -0.3532
    11   0.0000   0.0012  -0.0083   0.0000   0.0000  -0.0007   0.0184  -0.0000   0.0000  -0.0007
    12  -0.0000   0.0083   0.0012  -0.0000   0.0000   0.0184   0.0007  -0.0000  -0.0000  -0.0861
    13  -0.0066  -0.0000  -0.0000  -0.0026  -0.0519   0.0000   0.0000   0.0039  -0.0250   0.0000
    14  -0.0253  -0.0000  -0.0000   0.0045  -0.0702   0.0001   0.0000   0.0228  -0.0117  -0.0000
    15   0.0000   0.0000   0.0000  -0.0000   0.0000  -0.0000  -0.0000   0.0000   0.0000  -0.0000
    16  -0.0000   0.0000   0.0000  -0.0000  -0.0000  -0.0000  -0.0000  -0.0000  -0.0000  -0.0000
    17   0.0109   0.0000   0.0000  -0.0019   0.0554   0.0000   0.0000   0.0141   0.0658  -0.0000
    18  -0.0000   0.0004  -0.0005  -0.0000   0.0000   0.0063   0.0104  -0.0000  -0.0000  -0.0057
    19   0.0000  -0.0005  -0.0004   0.0000  -0.0000  -0.0104   0.0063   0.0000   0.0000   0.0086
    20   0.0138   0.0000   0.0000  -0.0094   0.0379  -0.0000  -0.0000  -0.0043   0.0256   0.0000
    21  -0.0000  -0.0000   0.0000   0.0000  -0.0000  -0.0000   0.0000  -0.0000  -0.0000   0.0000
    22  -0.0000  -0.0000   0.0000   0.0000  -0.0000  -0.0000  -0.0000  -0.0000   0.0000   0.0000
    23  -0.0022   0.0000  -0.0000   0.0039  -0.0112  -0.0000  -0.0000  -0.0017  -0.0105   0.0000
    24  -0.0000  -0.0002  -0.0001  -0.0000  -0.0000  -0.0008   0.0006   0.0000  -0.0000   0.0009
    25  -0.0000   0.0001  -0.0002  -0.0000  -0.0000   0.0006   0.0008  -0.0000  -0.0000  -0.0007
    26  -0.0000   0.0000   0.0000  -0.0000  -0.0000   0.0000   0.0000  -0.0000  -0.0000   0.0000
    27  -0.0000  -0.0000  -0.0000   0.0000  -0.0000   0.0000  -0.0000  -0.0000  -0.0000   0.0000
    28   0.0031  -0.0000   0.0000  -0.0038   0.0052  -0.0000   0.0000  -0.0020   0.0076   0.0000
    29  -0.0000   0.0000  -0.0000  -0.0000   0.0000   0.0000  -0.0000   0.0000   0.0000  -0.0000
    30  -0.0000  -0.0000   0.0000   0.0000  -0.0000   0.0000  -0.0000  -0.0000  -0.0000   0.0000
    31   0.0000  -0.0006   0.0000  -0.0000   0.0000   0.0028   0.0006  -0.0000  -0.0000   0.0008
    32   0.0000   0.0000   0.0006   0.0000  -0.0000  -0.0006   0.0028   0.0000   0.0000  -0.0001
    33   0.0020   0.0000   0.0000  -0.0014   0.0092  -0.0000  -0.0000   0.0002   0.0034  -0.0000
    34   0.0000  -0.0005  -0.0002   0.0000  -0.0000  -0.0002   0.0000   0.0000  -0.0000  -0.0018
    35   0.0000  -0.0002   0.0005   0.0000  -0.0000  -0.0000  -0.0002   0.0000   0.0000  -0.0003
    36   0.0039  -0.0000   0.0000  -0.0032   0.0095   0.0000   0.0000   0.0018   0.0093  -0.0000
    37   0.0002  -0.0000   0.0000  -0.0004   0.0010  -0.0000   0.0000  -0.0002   0.0011  -0.0000
    38  -0.0000  -0.0000  -0.0000  -0.0019   0.0062   0.0000   0.0000   0.0022  -0.0004   0.0000
    39   0.0002   0.0000   0.0000   0.0129  -0.0426  -0.0000  -0.0000  -0.0150   0.0029  -0.0000
    40  -0.0001  -0.0000  -0.0000  -0.0008   0.0025   0.0000   0.0000   0.0002  -0.0002   0.0000
    41  -0.0000   0.0000  -0.0000  -0.0001   0.0003   0.0000   0.0000   0.0000  -0.0000  -0.0002
    42  -0.0001   0.0000   0.0000  -0.0006   0.0017   0.0000  -0.0000   0.0001  -0.0001  -0.0000
    43   0.0011   0.0000   0.0000   0.0583  -0.1893  -0.0001  -0.0000  -0.0638   0.0130  -0.0000
    44  -0.0010   0.0001   0.0001  -0.0119   0.0354   0.0001  -0.0000   0.0011  -0.0032   0.0018
    45  -0.0007  -0.0000  -0.0002  -0.0086   0.0255  -0.0000   0.0001   0.0008  -0.0023  -0.0006
    46   0.0006   0.0002  -0.0001   0.0069  -0.0205   0.0001   0.0001  -0.0006   0.0019   0.0022
    47   0.0002   0.0002  -0.0001   0.0006  -0.0016   0.0000   0.0000   0.0012   0.0002  -0.0025
    48  -0.0009   0.0000  -0.0001  -0.0028   0.0073  -0.0000   0.0000  -0.0055  -0.0011  -0.0000
    49  -0.0012   0.0001   0.0001  -0.0038   0.0096   0.0000  -0.0000  -0.0073  -0.0015  -0.0010
    50   0.0005  -0.0000  -0.0000   0.0016  -0.0040   0.0000   0.0000   0.0030   0.0006   0.0003
    51   0.0005   0.0001   0.0001   0.0014  -0.0036   0.0000  -0.0000   0.0027   0.0005  -0.0020
    52   0.0257   0.0000   0.0000   0.3066  -0.8392  -0.0003  -0.0000  -0.1917   0.0548  -0.0000
    53  -0.3358   0.2136   0.9085   0.1282  -0.2280  -0.0076   0.0179   0.0626   0.0103   0.0268
    54  -0.4579   0.7917  -0.3716   0.1750  -0.3112  -0.0148  -0.0106   0.0854   0.0140   0.0591
    55   0.7651   0.5675   0.1764  -0.2925   0.5199  -0.0126   0.0015  -0.1426  -0.0234   0.0471
    56   0.0272   0.0054   0.0134   0.1144  -0.5644   0.3048  -0.4821   0.1951  -0.7913  -0.0303
    57  -0.0045   0.0245  -0.0047  -0.0191   0.0938   0.9171   0.3523  -0.0341   0.1315  -0.0999
    58  -0.0186   0.0020   0.0208  -0.0781   0.3854   0.2225  -0.7918  -0.1338   0.5403  -0.0201
[...]
   81   -2.26865201776754E-18 -1.85838691137904E-16  8.00821433616674E-16 -2.83056582503203E-16
   82   -3.76567233997135E-16 -5.94314182344977E-17  7.25023009500618E-16  8.26847469697225E-16
   83   -1.02824751347958E-15 -8.42495067501059E-16 -2.10208751336793E-16 -1.20150820933995E-15
   84   -2.19833081309089E-16 -2.98333924338690E-16  5.39349764411393E-16  7.52471777209606E-17
   85    7.47159064141697E-16  2.41842577316447E-16 -1.44780405183003E-16  9.34135864812606E-16
   86    5.42521244363092E-16 -6.66370117115043E-16  5.52772897358601E-16  6.05019091438676E-16
   87    2.23207442195269E-16 -6.53910173125426E-16 -5.46560190277538E-16 -7.69265590296063E-16
   88   -1.37881005679187E-15 -2.14398081168142E-16  6.83348887579672E-16  2.71074557828920E-16
   89    7.85147628973276E-16 -2.95090219111806E-16  2.09847257279085E-17  1.46787375693008E-16
   90    1.85252850395230E-16 -4.38415121424863E-17 -1.35026640469996E-16 -8.22443558875222E-16
   91   -3.98967178278772E-16  7.13558321779400E-16  5.37699890020724E-16  1.17004610646905E-15
   92   -2.56534938677099E-16  3.73276554010444E-16  6.35124813733202E-16 -1.16221462367963E-15
   93    1.49186218934005E-16  5.88721779659629E-17  5.19495470946429E-16  1.00248043373441E-16

 column          81                    82                    83                    84
 row
   81    1.00000000000000E+00
   82    1.67486757181300E-15  1.00000000000000E+00
   83   -2.40791376341680E-16  1.38406895514348E-15  1.00000000000000E+00
   84   -1.41523217739314E-16  1.15953603873466E-15  9.05362018282396E-16  9.99999999999983E-01
   85   -6.94181451321403E-17 -5.28217389056642E-17  4.50074184182323E-16 -7.17508229145529E-16
   86   -1.89033897938294E-17 -5.92351762516144E-16 -9.47640567694379E-17 -7.26087369264570E-16
   87    1.98407940428024E-16 -1.27226994001195E-16 -1.35622194794603E-16 -1.27869456911159E-16
   88    4.82931796581289E-16  1.15930916294497E-16  1.12250297576784E-15 -2.50253918885148E-16
   89   -5.33484655787722E-16  1.01151777483734E-16 -3.24438749269189E-16 -5.46191965864776E-16
   90    2.08521224305026E-16  4.50576077011606E-15  7.25280787103631E-16  3.94507606886940E-16
   91   -2.83417440045429E-16 -2.77123603917067E-17 -2.33910901075917E-15 -3.57504191727638E-16
   92    1.62435158066686E-15  1.22755312685195E-15 -5.27077389002346E-16 -1.09363891361131E-16
   93   -1.32055824608734E-16  1.26417973311810E-16  1.88014209236143E-16 -1.23056946577105E-15

 column          85                    86                    87                    88
 row
   85    1.00000000000000E+00
   86   -5.40834235973570E-16  9.99999999999999E-01
   87    2.92946991663139E-16 -7.00452191739882E-16  9.99999999999999E-01
   88    1.31109405414574E-15 -1.66038562948375E-15  9.53437428747636E-17  9.99999999999998E-01
   89   -7.04650710410463E-16  7.94157709098351E-16 -7.81508967079279E-16 -7.46841526306644E-16
   90    7.16752864353758E-16 -1.57547056163226E-16 -5.44559385132379E-16 -9.58327517869799E-17
   91   -1.16267172575407E-15  5.22739096763975E-16  9.72729329972340E-17  1.01087199720787E-15
   92    6.08589284853336E-18  3.26718373113999E-16 -4.68283515675480E-16  3.53956665956894E-16
   93   -1.71059997763900E-16  1.46284622869891E-15 -1.76833374332386E-16  3.14960731107039E-16

 column          89                    90                    91                    92
 row
   89    1.00000000000000E+00
   90    1.30960250667380E-16  1.00000000000000E+00
   91    2.85415701791150E-16 -5.73846309462680E-16  1.00000000000000E+00
   92    1.04995290858055E-15  1.58937416574699E-15  4.58904028269367E-16  1.00000000000001E+00
   93    3.01077861101541E-17 -3.08794331251028E-16 -3.50739402799061E-17  1.69928361746369E-16

 column          93
 row
   93    9.99999999999991E-01


 SFO contributions (%) per orbital
 (multiplication by the orbital occupation yields the SFO Gross Populations)

 Orb.:       14     15     16     17     18     19     20     21     22     23     24     25     26     27
 occup:     2.00   2.00   2.00   2.00   2.00   2.00   2.00   2.00   2.00   2.00   0.00   0.00   0.00   0.00
 CF+SFO     ----   ----   ----   ----   ----   ----   ----   ----   ----   ----   ----   ----   ----   ----
 ------
      2:    0.00   0.00  99.59   0.02   0.03   0.00  -0.00   0.09   0.00   0.00   0.00   0.06  -0.00   0.00
      3:    0.00   0.00   0.06   1.35  95.90   0.00   0.00   1.77   0.00   0.00   0.24   0.00  -0.00  -0.00
      4:    0.00   0.00   0.00   0.00   0.00  99.67   0.10   0.00   0.16   0.03   0.00   0.00   0.00   0.00
      5:   -0.00   0.00   0.00   0.00   0.00   0.10  99.67   0.00   0.03   0.16   0.00   0.00   0.00   0.00
      6:    0.00   0.00  -0.01   0.65   0.18   0.00   0.00   4.65   0.00   0.00  64.46  31.36   0.00   0.00
      7:    0.00   0.00  -0.00   0.12   0.00  -0.00   0.00   0.19   0.00   0.00  36.38  52.56  -0.00   0.00
      8:    0.00   0.00  -0.00  -0.36  -0.04   0.00   0.00   1.64  -0.00   0.00   1.15  10.38   0.00   0.00
      9:    0.00   0.00   0.00   0.00  -0.00   0.00   0.01   0.00   0.01   0.12   0.00   0.00   0.01   1.36
     10:    0.00  -0.00   0.00   0.00  -0.00   0.01   0.00   0.00   0.12   0.01   0.00   0.00   1.36   0.01
     47:   15.91   5.76   0.00   0.00   0.00   0.00   0.00   0.00   0.00   0.00   0.00   0.00   0.00   0.00
     48:   11.15  18.01   0.00   0.00   0.00   0.00   0.00   0.00   0.00   0.00   0.00   0.00   0.00   0.00
     49:    9.59   1.04   0.00   0.00   0.00   0.00   0.00   0.00   0.00   0.00   0.00   0.00   0.00   0.00
     50:   27.48  62.92   0.00   0.00   0.00   0.00   0.00   0.00   0.00   0.00   0.00   0.00  -0.00   0.00
     51:   35.88  12.28   0.00   0.00   0.00   0.00   0.00   0.00   0.00   0.00   0.00   0.00   0.00   0.00
     52:    0.00   0.00   0.05  98.08   1.25  -0.00  -0.00   0.05  -0.00   0.00   0.20   0.41  -0.00  -0.00
     53:   -0.00   0.00   0.02   0.01   0.28   0.01   0.16  11.38   4.56  82.56   0.19   0.23   0.01   0.03
     54:    0.00  -0.00   0.03   0.01   0.52   0.15   0.00  21.16  62.70  13.81   0.35   0.43   0.02   0.01
     55:    0.00  -0.00   0.10   0.04   1.45   0.04   0.03  59.08  32.22   3.11   0.99   1.21   0.02   0.00
     56:    0.00   0.00   0.04  -0.00  -0.06  -0.00  -0.00   0.13   0.00   0.02  -2.91  12.17   9.33  23.33
     57:    0.00  -0.00   0.00  -0.00  -0.00  -0.01  -0.00   0.00   0.06   0.00  -0.08   0.34  84.43  12.46
     58:    0.00   0.00   0.02  -0.00  -0.03  -0.00  -0.01   0.06   0.00   0.05  -1.36   5.67   4.97  62.93
     59:    0.00   0.00   0.05  -0.00   0.10   0.00  -0.00  -0.00  -0.00   0.00  -0.20 -13.36  -0.00   0.00


 Summation over all MOs, multiplied by occupation: Total SFO Gross Populations in this Irrep
 ===========================================================================================

     2.00    1.99    1.98    2.00    2.00    0.11    0.01    0.03    0.00    0.00    0.00    0.00
    -0.00    0.01    0.00    0.00   -0.01    0.00    0.00   -0.00    0.00    0.00   -0.00    0.00
     0.00   -0.00    0.00    0.00    0.00    0.00   -0.00   -0.00   -0.00   -0.00   -0.00   -0.00
    -0.00    2.00    2.00    2.00    2.00    2.00    2.00    2.00    2.00    2.00    2.00    2.00
     2.00    2.00    2.00    1.99    1.98    1.97    1.92    0.00    0.00    0.00    0.00    0.00
     0.00    0.00    0.00    0.00    0.00    0.00    0.00    0.00    0.00    0.00    0.00   -0.00
     0.00    0.00   -0.00   -0.00   -0.00   -0.00   -0.00   -0.00   -0.00   -0.00   -0.00   -0.00
     0.00    0.00    0.00    0.00    0.00    0.00    0.00    0.00    0.00



 List of all MOs, ordered by energy, with the most significant SFO gross populations
 ===================================================================================

 Each percentage contribution in the table below corresponds to the indicated SFO.
 In general, a SFO may be a linear combination of several Fragment Orbitals on the same,
 or on symmetry-related Fragments. Only the first 'member' of such a combination is
 specified here. A full definition of all SFOs is given in an earlier part of the output.
 The numbering of the SFOs in this table does NOT include the Core Orbitals, and starts
 from one for each symmetry representation, as in the SFO definition list earlier.

       E(eV)  Occ       MO           %     SFO (first member)   E(eV)  Occ   Fragment
 -------------------------------------------------------------------------------------

     -11.928  2.00    17 A         98.08%    15 A             -10.500  2.00     2 Br
                                    1.35%     3 A             -13.076  2.00     1 FH
      -7.471  2.00    18 A         95.90%     3 A             -13.076  2.00     1 FH
                                    1.45%    18 A               0.447  2.00     2 Br
                                    1.25%    15 A             -10.500  2.00     2 Br
      -4.045  2.00    19 A         99.67%     4 A              -9.495  2.00     1 FH
                                    0.15%    17 A               0.447  2.00     2 Br
      -4.045  2.00    20 A         99.67%     5 A              -9.495  2.00     1 FH
                                    0.16%    16 A               0.447  2.00     2 Br
      -1.161  2.00    21 A         59.08%    18 A               0.447  2.00     2 Br
                                   21.16%    17 A               0.447  2.00     2 Br
                                   11.38%    16 A               0.447  2.00     2 Br
                                    4.65%     6 A              -1.336  0.00     1 FH
                                    1.77%     3 A             -13.076  2.00     1 FH
                                    1.64%     8 A               4.951  0.00     1 FH
      -0.786  2.00    22 A         62.70%    17 A               0.447  2.00     2 Br
                                   32.22%    18 A               0.447  2.00     2 Br
                                    4.56%    16 A               0.447  2.00     2 Br
      -0.786  2.00    23 A         82.56%    16 A               0.447  2.00     2 Br
                                   13.81%    17 A               0.447  2.00     2 Br
                                    3.11%    18 A               0.447  2.00     2 Br
       4.929  0.00    24 A         64.46%     6 A              -1.336  0.00     1 FH
                                   36.38%     7 A               1.904  0.00     1 FH
                                   -2.91%    19 A               9.589  0.00     2 Br
                                   -1.36%    21 A               9.589  0.00     2 Br
                                    1.15%     8 A               4.951  0.00     1 FH
       6.381  0.00    25 A         52.56%     7 A               1.904  0.00     1 FH
                                   31.36%     6 A              -1.336  0.00     1 FH
                                  -13.36%    22 A              13.634  0.00     2 Br
                                   12.17%    19 A               9.589  0.00     2 Br
                                   10.38%     8 A               4.951  0.00     1 FH
                                    5.67%    21 A               9.589  0.00     2 Br
                                    1.21%    18 A               0.447  2.00     2 Br
       8.943  0.00    26 A         84.43%    20 A               9.589  0.00     2 Br
                                    9.33%    19 A               9.589  0.00     2 Br
                                    4.97%    21 A               9.589  0.00     2 Br
                                    1.36%    10 A              10.877  0.00     1 FH
       8.944  0.00    27 A         62.93%    21 A               9.589  0.00     2 Br
                                   23.33%    19 A               9.589  0.00     2 Br
                                   12.46%    20 A               9.589  0.00     2 Br
                                    1.36%     9 A              10.877  0.00     1 FH
       9.168  0.00    28 A         66.67%     8 A               4.951  0.00     1 FH
                                   10.13%    26 A              15.005  0.00     2 Br
                                    8.40%    24 A              15.005  0.00     2 Br
                                    4.63%    25 A              15.005  0.00     2 Br
                                    3.93%    19 A               9.589  0.00     2 Br
                                    1.85%    21 A               9.589  0.00     2 Br
                                    1.67%    23 A              15.005  0.00     2 Br
                                    1.29%    18 A               0.447  2.00     2 Br
                                    1.15%    27 A              15.005  0.00     2 Br
       9.624  0.00    29 A         54.15%    19 A               9.589  0.00     2 Br
                                   25.25%    21 A               9.589  0.00     2 Br
                                   14.25%     7 A               1.904  0.00     1 FH
                                    2.65%     8 A               4.951  0.00     1 FH
                                    1.49%    20 A               9.589  0.00     2 Br



 =======================================================================
 Electrostatic potential at the Nuclei due to electrons and other nuclei
 =======================================================================
  
         Atom                  Potential
         ----                  ---------
     1)   F                  26.81085752
     2)   H                   1.14437868
     3)   Br                176.21701200
 
 
 ========================
 No memory problems found
 ========================
 
 Maximum number of active allocate calls:         590
 
 *******************************************************************************

                             A D F   E X I T
 NORMAL TERMINATION



 =================
 Timing Statistics
 =================
  
 Total Used :                     CPU=        4.85      System=        0.17     Elapsed=        5.71

 Calls  Section                     ( Mean, Percentage )
 ---------------------------------------------------------------------------------------------------
     3  ><      ................      0.00    0.02             0.00    0.00             0.00    0.03
     1  INIT    ................      0.44    9.01             0.02   12.87             0.46    8.10
     1  GEOMET  ................      0.04    0.74             0.01    3.51             0.66   11.53
     1  FRAGM   ................      0.01    0.25             0.00    2.34             0.02    0.34
     1  INPUTA  ................      0.00    0.00             0.00    0.00             0.00    0.01
     1  ATDEN   ................      0.01    0.10             0.00    0.58             0.03    0.51
     1  MAINSY  ................      0.01    0.12             0.00    2.34             0.01    0.22
     1  SYMFIT  ................      0.00    0.02             0.00    0.58             0.00    0.04
     1  CORORT  ................      0.00    0.02             0.00    0.00             0.00    0.01
     1  SYMORB  ................      0.00    0.06             0.00    0.00             0.00    0.06
     1  CLSMAT  ................      0.01    0.12             0.00    0.58             0.01    0.12
     1  ORTHON  ................      0.01    0.17             0.00    0.00             0.01    0.15
     1  GENPT   ................      0.10    2.15             0.01    3.51             0.11    1.93
     1  PTBAS   ................      0.03    0.58             0.00    0.58             0.03    0.51
    12  FOCKY   ................      0.10   25.97             0.00   11.11             0.11   22.44
    12  FOCKTR  ................      0.00    0.27             0.00    1.75             0.00    0.39
    12  SDIIS   ................      0.00    0.93             0.00    1.75             0.00    0.79
     1  COREPS  ................      0.09    1.84             0.00    0.58             0.09    1.59
     1  TOTEN   ................      0.26    5.40             0.01    5.85             0.27    4.78
     1  POPAN   ................      0.00    0.06             0.00    0.58             0.01    0.15
     1  DEBYE   ................      0.00    0.06             0.00    0.00             0.00    0.04
     1  INPUTE  ................      0.00    0.00             0.00    0.00             0.00    0.02
     1  SYMORE  ................      0.00    0.02             0.00    0.00             0.00    0.02
     1  METS    ................      0.00    0.02             0.00    0.00             0.00    0.01
     1  CETS    ................      0.01    0.19             0.00    0.58             0.02    0.33
     1  POPUL   ................      2.49   51.32             0.08   49.12             2.59   45.35
     1  EXIT PROCEDURE .........      0.03    0.56             0.00    1.75             0.03    0.54


 Currently Open Files (EXIT00)
 ====================

 Unit    Access Format  Status   Type       Ident (file)
 -------------------------------------------------------
   3      SEQ    FORM   TRANSP  NORMAL      LOGFILE
                                          ( logfile )


 Buffered I/O statistics
 =======================
 Memory available:                     67108864
 Number of records fitting in memory:     16131
 Input :   1.4% of                        44122  *4k bytes
 Output:  13.1% of                         3514  *4k bytes
 Records from serial files evicted:           0
                    others evicted:           0
 Hash table lookups:     124547 with          0 conflicts (  0.00%)

 ***************************************************************************************************
 (LOGFILE)
 <May09-2019> <17:23:36>  ADF 2017  RunTime: May09-2019 17:23:36  Nodes: 1  Procs: 12
 <May09-2019> <17:23:36>  *** (NO TITLE) ***
 <May09-2019> <17:23:36>  RunType   : SINGLE POINT
 <May09-2019> <17:23:37>  Net Charge: -1 (Nuclei minus Electrons)
 <May09-2019> <17:23:37>  Symmetry  : NOSYM
 <May09-2019> <17:23:37>  >>>> FRAGM
  Coordinates
    Atom         X           Y           Z   (Angstrom)
    1.F        -3.731236    0.202277   -0.041456
    2.H        -2.925328    0.331447    0.521548
    3.Br       -1.223931    0.604145    1.710137
 <May09-2019> <17:23:37>  >>>> CORORT
 <May09-2019> <17:23:37>  >>>> CLSMAT
 <May09-2019> <17:23:37>  >>>> ORTHON
 <May09-2019> <17:23:37>  >>>> GENPT
 <May09-2019> <17:23:37>  Block Length= 128
 <May09-2019> <17:23:37>  >>>> PTBAS
 <May09-2019> <17:23:37>  >>>> CYCLE
 <May09-2019> <17:23:37>              |Error|         MaxErr       Wt(A-DIIS)
 <May09-2019> <17:23:37>      1      0.46289104      0.19370023
 <May09-2019> <17:23:37>      2      0.14149492      0.03758995    100.0
 <May09-2019> <17:23:38>      3      0.06382508      0.01565293    100.0
 <May09-2019> <17:23:38>      4      0.11848942      0.03327986    100.0
 <May09-2019> <17:23:38>      5      0.01548621      0.00438756      3.4
 <May09-2019> <17:23:38>      6      0.00750843      0.00184427      0.9
 <May09-2019> <17:23:38>      7      0.00088552      0.00015635      0.0
 <May09-2019> <17:23:38>      8      0.00018721      0.00003872      0.0
 <May09-2019> <17:23:38>      9      0.00005022      0.00001179      0.0
 <May09-2019> <17:23:38>     10      0.00001307      0.00000377      0.0
 <May09-2019> <17:23:38>     11      0.00000082      0.00000024      0.0
 <May09-2019> <17:23:38>  SCF converged
 <May09-2019> <17:23:38>     12      0.00000006      0.00000001      0.0
 <May09-2019> <17:23:39>  >>>> TOTEN
 <May09-2019> <17:23:39>  >>>> POPAN
 <May09-2019> <17:23:39>  >>>> DEBYE
 <May09-2019> <17:23:39>  >>>> AMETS
 <May09-2019> <17:23:41>   Bond Energy          -0.03854032 a.u.
 <May09-2019> <17:23:41>   Bond Energy          -1.04873551 eV
 <May09-2019> <17:23:41>   Bond Energy         -24.18       kcal/mol
 <May09-2019> <17:23:41>  >>>> POPUL
 <May09-2019> <17:23:41>  NORMAL TERMINATION
 <May09-2019> <17:23:41>  END
