

 Parallel Execution: Process Information
 ==============================================================================
 Rank   Node Name                              NodeID   MyNodeRank  NodeMaster
    0   BAZIS-cn022                               0          0          0
    1   BAZIS-cn022                               0          1         -1
    2   BAZIS-cn022                               0          2         -1
    3   BAZIS-cn022                               0          3         -1
    4   BAZIS-cn022                               0          4         -1
    5   BAZIS-cn022                               0          5         -1
    6   BAZIS-cn022                               0          6         -1
    7   BAZIS-cn022                               0          7         -1
    8   BAZIS-cn022                               0          8         -1
    9   BAZIS-cn022                               0          9         -1
   10   BAZIS-cn022                               0         10         -1
   11   BAZIS-cn022                               0         11         -1
 ==============================================================================


May use up to 30771MB of RAM as shared memory on node 0


XC
    GGA BP86
END

SCF
    iterations 250
END

EPRINT
    SFO Eig Ovl
END

ZLMFIT
    Quality normal
END

BECKEGRID
    Quality good
End

SYMMETRY nosym
CHARGE -1

ATOMS
1.Cl       -4.925123    3.099633   -0.045733 f=ClCl
2.Cl       -3.775880    1.008846    0.168846 f=ClCl
3.Cl       -6.074378    5.190440   -0.260314 f=Cl
END

Fragments
ClCl /home/tcst25/advanced_comp_chemistry/exercise2/halogen/ClClCl/frag1_ClCl.t21
Cl /home/tcst25/advanced_comp_chemistry/exercise2/halogen/ClClCl/frag2_Cl.t21
End
end input

 *******************************************************************************
 *                                                                             *
 *  -------------------------------------                                      *
 *   Amsterdam Density Functional  (ADF)         2017                          *
 *  -------------------------------------                                      *
 *                                               r58813 2017-04-12             *
 *                                                                             *
 *                                                                             *
 *                              =================                              *
 *                              |               |                              *
 *                              |     A D F     |                              *
 *                              |               |                              *
 *                              =================                              *
 *                                                                             *
 *                                                                             *
 *   Online information and documentation:  https://www.scm.com/support/       *
 *   E-mail:  support@scm.com   info@scm.com                                   *
 *                                                                             *
 *   Scientific publications using ADF results must be properly referenced     *
 *   See the User Manuals (or the web site) for recommended citations          *
 *   The terms and conditions of the End User License Agreement apply to       *
 *   the use of ADF, https://www.scm.com/license-terms/                        *
 *                                                                             *
 **********************  x86_64_linux_intel / intelmpi  ************************
 
 Licensed to: VU/FEW (+ SARA) / ALGEMEEN / Amsterdam / THE NETHERLANDS
 SCM User ID: u7668
  
 ADF 2017  RunTime: May09-2019 17:12:04  Nodes: 1  Procs: 12

 Temporary files are created in /local/datastore0/tcst25/189778/kid_0.UwfsRg


Communication costs MPI_COMM_WORLD:      3.814 usec per message,   0.0174 usec per 8-byte item
Communication costs for intra-node:      3.830 usec per message,   0.0175 usec per 8-byte item

 *** (NO TITLE) ***



 ===========================
 A T T A C H E D   F I L E S
 ===========================
  



 ===============================
 M O D E L   P A R A M E T E R S
 ===============================
  
 DENSITY FUNCTIONAL POTENTIAL (scf)
    LDA:                               VWN                                      
    Gradient Corrections:              Becke88 Perdew86                        == Not Default ==

 SPIN  (restricted / unrestr.)
    Molecule:                          Restricted                               
    Fragments:                         Restricted                               

 OTHER ASPECTS
    Relativistic Corrections:          ---                                      

    Nuclear Charge Density Model:      Point Charge Nuclei                      
    Core Treatment:                    Frozen Orbital(s)                        

    Hyperfine or Zeeman Interaction:   ---                                      


 Fragment File(s)
 ----------------
 ClCl:
         file : /home/tcst25/advanced_comp_chemistry/exercise2/halogen/ClClCl/frag1_ClCl.t21
         jobid: ADF 2017  RunTime: May09-2019 16:32:23  Nodes: 1  Procs: 12
         title: *** (NO TITLE) ***
 Cl:
         file : /home/tcst25/advanced_comp_chemistry/exercise2/halogen/ClClCl/frag2_Cl.t21
         jobid: ADF 2017  RunTime: May09-2019 16:32:24  Nodes: 1  Procs: 12
         title: *** (NO TITLE) ***



                                        ************************************
                                        *  R U N   T Y P E : SINGLE POINT  *
                                        ************************************
  



 ===============
 G E O M E T R Y  ***  Linear Molecule  ***
 ===============
  

 ATOMS
 =====                            X Y Z                    CHARGE
                                (Angstrom)             Nucl     +Core       At.Mass
                       --------------------------    ----------------       -------
    1  Cl             -4.9251    3.0996   -0.0457     17.00     17.00       34.9689
    2  Cl             -3.7759    1.0088    0.1688     17.00     17.00       34.9689
    3  Cl             -6.0744    5.1904   -0.2603     17.00     17.00       34.9689


 FRAGMENTS
 =========                                     Atoms in this Fragment     Cart. coord.s (Angstrom)
                                               -------------------------------------------------------
    1  ClCl                                              1  Cl          -4.9251    3.0996   -0.0457
                                                         2  Cl          -3.7759    1.0088    0.1688
    2  Cl                                                3  Cl          -6.0744    5.1904   -0.2603


 Interatomic Distance Matrix (Angstrom)
 --------------------------------------

   1)     0.000
   2)     2.395   0.000
   3)     2.395   4.791   0.000

 Min. Distance =    2.3955
 Max. Distance =    4.7909



 =====================================
 S Y M M E T R Y ,   E L E C T R O N S
 =====================================
  
 Symmetry: NOSYM

 Irreducible Representations, including subspecies
 -------------------------------------------------
 A


 Configuration of Valence Electrons
 ==================================
 ( determined in the SCF procedure )

 Total:   52

 Net Charge: -1 (Nuclei minus Electrons)

 Aufbau principle for MO occupations will be applied through SCF cycle no.     125
 Thereafter, the program will assign electrons to MOs that are spatially
 similar to the occupied MOs in a "reference" cycle ("KeepOrbitals").
 The reference cycle is always the PREVIOUS cycle: it will evolve with
 the SCF procedure.
1
 ***************************************************************************************************



                                      ****************************************
                                      *  B U I L D : (Fragments, Functions)  *
                                      ****************************************
  

 The individual fragments are copies of the corresponding 'Master' fragments defined on the fragment files.
 However, they may have been rotated (and translated) with respect to the Master. The local coordinate axes
 of each fragment (which define for instance the spatial orientation in the current molecule of a fragment
 P:x orbital) are not necessarily those of the molecule.
 The local frame (if different from the molecular one) is printed to enable an interpretation of the expan-
 sion of an MO in Fragment Orbitals.



                                             **************************
                                             *  Fragment Type : ClCl  *
                                             **************************
  

 Fragment no.    1   (in the list of all fragments)
 -----------------
 The local coordinate frame is identical to the molecular frame.

 Check Atomic Coordinates:

                  Master (on file)          After Computed Tranformation               As specified on Input
           ----------------------------     ----------------------------     ---------------------------------
     1)    -4.92512   3.09963  -0.04573     -4.92512   3.09963  -0.04573       1  -4.92512   3.09963  -0.04573
     2)    -3.77588   1.00885   0.16885     -3.77588   1.00885   0.16885       2  -3.77588   1.00885   0.16885



                                              ************************
                                              *  Fragment Type : Cl  *
                                              ************************
  

 Fragment no.    2   (in the list of all fragments)
 -----------------
 The local coordinate frame is identical to the molecular frame.

 Check Atomic Coordinates:

                  Master (on file)          After Computed Tranformation               As specified on Input
           ----------------------------     ----------------------------     ---------------------------------
     1)    -6.07438   5.19044  -0.26031     -6.07438   5.19044  -0.26031       3  -6.07438   5.19044  -0.26031



 =======
 S F O s  ***  (Symmetrized Fragment Orbitals)  ***
 =======
  
 SFOs are linear combinations of (valence) Fragment Orbitals (FOs), such that the SFOs transform as the
 irreducible representations of the (molecular) symmetry group. Each SFO is therefore characterized by
 an irrep of the molecule and by a few (or only one) generating FOs.
 The SFOs constitute a symmetry-adapted basis for the Fock matrix. The MO eigenvector coefficients in
 this basis provide a direct interpretation of the MOs in terms of Frontier Orbital Theory.

 The SFOs are combined with auxiliary Core Functions (CFs) to ensure orthogonalization on the (frozen)
 Core Orbitals (COs). The Core-orthogonalized SFOs (CSFOs) constitute the true Fock basis.

 The FOs, and hence also the (C)SFOs are combinations of the elementary basis functions (BAS). The basis
 functions that participate in the description of the SFOs depend on the irrep. The indices of the
 involved functions are printed below for each irrep.
 (The complete list of primitive basis functions is printed in another section)

 Total nr. of (C)SFOs (summation over all irreps) :   102

 NOTE: a (C)SFO that is defined as a combination of more than one FO is usually NOT normalized.



                                       === A ===
 Nr. of SFOs :  102
 Cartesian basis functions that participate in this irrep (total number =   114) :
      1     2     3     4    11    12    13     5     8    14
     17    20     6     9    15    18    21     7    10    16
     19    22    23    24    25    26    27    28    29    30
     31    32    33    34    35    36    37    38    39    40
     41    42    49    50    51    43    46    52    55    58
     44    47    53    56    59    45    48    54    57    60
     61    62    63    64    65    66    67    68    69    70
     71    72    73    74    75    76    77    78    79    80
     87    88    89    81    84    90    93    96    82    85
     91    94    97    83    86    92    95    98    99   100
    101   102   103   104   105   106   107   108   109   110
    111   112   113   114

    SFO  (index         Fragment          Generating    Expansion in Fragment Orbitals
  indx  incl.CFs)   Occup   Orb.Energy   FragmentType  Coeff.   Orbital     on Fragment
 --------------------------------------------------------------------------------------
     1       1      2.000    -100.781 au  ClCl          1.00      1 A               1
                        (   -2742.381 eV)
     2       2      2.000    -100.781 au  ClCl          1.00      2 A               1
                        (   -2742.381 eV)
     3       3      2.000      -9.230 au  ClCl          1.00      3 A               1
                        (    -251.169 eV)
     4       4      2.000      -9.230 au  ClCl          1.00      4 A               1
                        (    -251.169 eV)
     5       5      2.000      -7.064 au  ClCl          1.00      5 A               1
                        (    -192.231 eV)
     6       6      2.000      -7.064 au  ClCl          1.00      6 A               1
                        (    -192.231 eV)
     7       7      2.000      -7.047 au  ClCl          1.00      7 A               1
                        (    -191.748 eV)
     8       8      2.000      -7.047 au  ClCl          1.00      8 A               1
                        (    -191.748 eV)
     9       9      2.000      -7.047 au  ClCl          1.00      9 A               1
                        (    -191.748 eV)
    10      10      2.000      -7.047 au  ClCl          1.00     10 A               1
                        (    -191.748 eV)
    11      11      2.000      -0.793 au  ClCl          1.00     11 A               1
                        (     -21.581 eV)
    12      12      2.000      -0.731 au  ClCl          1.00     12 A               1
                        (     -19.891 eV)
    13      13      2.000      -0.403 au  ClCl          1.00     13 A               1
                        (     -10.956 eV)
    14      14      2.000      -0.332 au  ClCl          1.00     14 A               1
                        (      -9.046 eV)
    15      15      2.000      -0.332 au  ClCl          1.00     15 A               1
                        (      -9.046 eV)
    16      16      2.000      -0.288 au  ClCl          1.00     16 A               1
                        (      -7.850 eV)
    17      17      2.000      -0.288 au  ClCl          1.00     17 A               1
                        (      -7.850 eV)
    18      18       --        -0.245 au  ClCl          1.00     18 A               1
                        (      -6.657 eV)
    19      19       --         0.176 au  ClCl          1.00     19 A               1
                        (       4.783 eV)
    20      20       --         0.181 au  ClCl          1.00     20 A               1
                        (       4.924 eV)
    21      21       --         0.205 au  ClCl          1.00     21 A               1
                        (       5.586 eV)
    22      22       --         0.205 au  ClCl          1.00     22 A               1
                        (       5.586 eV)
    23      23       --         0.217 au  ClCl          1.00     23 A               1
                        (       5.916 eV)
    24      24       --         0.263 au  ClCl          1.00     24 A               1
                        (       7.157 eV)
    25      25       --         0.263 au  ClCl          1.00     25 A               1
                        (       7.157 eV)
    26      26       --         0.302 au  ClCl          1.00     26 A               1
                        (       8.222 eV)
    27      27       --         0.302 au  ClCl          1.00     27 A               1
                        (       8.222 eV)
    28      28       --         0.342 au  ClCl          1.00     28 A               1
                        (       9.296 eV)
    29      29       --         0.372 au  ClCl          1.00     29 A               1
                        (      10.113 eV)
    30      30       --         0.372 au  ClCl          1.00     30 A               1
                        (      10.113 eV)
    31      31       --         0.394 au  ClCl          1.00     31 A               1
                        (      10.724 eV)
    32      32       --         0.409 au  ClCl          1.00     32 A               1
                        (      11.125 eV)
    33      33       --         0.409 au  ClCl          1.00     33 A               1
                        (      11.125 eV)
    34      34       --         0.490 au  ClCl          1.00     34 A               1
                        (      13.339 eV)
    35      35       --         0.490 au  ClCl          1.00     35 A               1
                        (      13.339 eV)
    36      36       --         0.757 au  ClCl          1.00     36 A               1
                        (      20.604 eV)
    37      37       --         1.063 au  ClCl          1.00     37 A               1
                        (      28.920 eV)
    38      38       --         1.063 au  ClCl          1.00     38 A               1
                        (      28.920 eV)
    39      39       --         1.117 au  ClCl          1.00     39 A               1
                        (      30.391 eV)
    40      40       --         1.117 au  ClCl          1.00     40 A               1
                        (      30.391 eV)
    41      41       --         1.158 au  ClCl          1.00     41 A               1
                        (      31.523 eV)
    42      42       --         1.158 au  ClCl          1.00     42 A               1
                        (      31.523 eV)
    43      43       --         1.207 au  ClCl          1.00     43 A               1
                        (      32.836 eV)
    44      44       --         1.238 au  ClCl          1.00     44 A               1
                        (      33.683 eV)
    45      45       --         1.238 au  ClCl          1.00     45 A               1
                        (      33.683 eV)
    46      46       --         1.361 au  ClCl          1.00     46 A               1
                        (      37.040 eV)
    47      47       --         1.361 au  ClCl          1.00     47 A               1
                        (      37.040 eV)
    48      48       --         1.380 au  ClCl          1.00     48 A               1
                        (      37.559 eV)
    49      49       --         1.436 au  ClCl          1.00     49 A               1
                        (      39.083 eV)
    50      50       --         1.436 au  ClCl          1.00     50 A               1
                        (      39.083 eV)
    51      51       --         2.000 au  ClCl          1.00     51 A               1
                        (      54.420 eV)
    52      52       --         2.072 au  ClCl          1.00     52 A               1
                        (      56.392 eV)
    53      53       --         2.076 au  ClCl          1.00     53 A               1
                        (      56.498 eV)
    54      54       --         2.076 au  ClCl          1.00     54 A               1
                        (      56.499 eV)
    55      55       --         2.131 au  ClCl          1.00     55 A               1
                        (      57.992 eV)
    56      56       --         2.219 au  ClCl          1.00     56 A               1
                        (      60.375 eV)
    57      57       --         2.219 au  ClCl          1.00     57 A               1
                        (      60.376 eV)
    58      58       --         2.701 au  ClCl          1.00     58 A               1
                        (      73.494 eV)
    59      59       --        12.686 au  ClCl          1.00     59 A               1
                        (     345.193 eV)
    60      60       --        13.456 au  ClCl          1.00     60 A               1
                        (     366.145 eV)
    61      61       --        18.741 au  ClCl          1.00     61 A               1
                        (     509.964 eV)
    62      62       --        18.741 au  ClCl          1.00     62 A               1
                        (     509.965 eV)
    63      63       --        18.824 au  ClCl          1.00     63 A               1
                        (     512.217 eV)
    64      64       --        19.052 au  ClCl          1.00     64 A               1
                        (     518.422 eV)
    65      65       --        19.052 au  ClCl          1.00     65 A               1
                        (     518.422 eV)
    66      66       --        19.522 au  ClCl          1.00     66 A               1
                        (     531.220 eV)
    67      67       --       214.521 au  ClCl          1.00     67 A               1
                        (    5837.404 eV)
    68      68       --       217.573 au  ClCl          1.00     68 A               1
                        (    5920.474 eV)
    69      69      2.000    -100.372 au  Cl            1.00      1 A               2
                        (   -2731.270 eV)
    70      70      2.000      -8.827 au  Cl            1.00      2 A               2
                        (    -240.193 eV)
    71      71      2.000      -6.649 au  Cl            1.00      3 A               2
                        (    -180.916 eV)
    72      72      2.000      -6.649 au  Cl            1.00      4 A               2
                        (    -180.916 eV)
    73      73      2.000      -6.649 au  Cl            1.00      5 A               2
                        (    -180.916 eV)
    74      74      2.000      -0.385 au  Cl            1.00      6 A               2
                        (     -10.473 eV)
    75      75      2.000       0.033 au  Cl            1.00      7 A               2
                        (       0.909 eV)
    76      76      2.000       0.033 au  Cl            1.00      8 A               2
                        (       0.909 eV)
    77      77      2.000       0.033 au  Cl            1.00      9 A               2
                        (       0.909 eV)
    78      78       --         0.475 au  Cl            1.00     10 A               2
                        (      12.914 eV)
    79      79       --         0.489 au  Cl            1.00     11 A               2
                        (      13.299 eV)
    80      80       --         0.489 au  Cl            1.00     12 A               2
                        (      13.299 eV)
    81      81       --         0.489 au  Cl            1.00     13 A               2
                        (      13.299 eV)
    82      82       --         0.741 au  Cl            1.00     14 A               2
                        (      20.162 eV)
    83      83       --         0.741 au  Cl            1.00     15 A               2
                        (      20.162 eV)
    84      84       --         0.741 au  Cl            1.00     16 A               2
                        (      20.162 eV)
    85      85       --         0.741 au  Cl            1.00     17 A               2
                        (      20.162 eV)
    86      86       --         0.741 au  Cl            1.00     18 A               2
                        (      20.162 eV)
    87      87       --         1.518 au  Cl            1.00     19 A               2
                        (      41.294 eV)
    88      88       --         1.518 au  Cl            1.00     20 A               2
                        (      41.294 eV)
    89      89       --         1.518 au  Cl            1.00     21 A               2
                        (      41.294 eV)
    90      90       --         1.518 au  Cl            1.00     22 A               2
                        (      41.294 eV)
    91      91       --         1.518 au  Cl            1.00     23 A               2
                        (      41.294 eV)
    92      92       --         1.518 au  Cl            1.00     24 A               2
                        (      41.294 eV)
    93      93       --         1.518 au  Cl            1.00     25 A               2
                        (      41.294 eV)
    94      94       --         2.351 au  Cl            1.00     26 A               2
                        (      63.962 eV)
    95      95       --         2.448 au  Cl            1.00     27 A               2
                        (      66.612 eV)
    96      96       --         2.448 au  Cl            1.00     28 A               2
                        (      66.612 eV)
    97      97       --         2.448 au  Cl            1.00     29 A               2
                        (      66.612 eV)
    98      98       --        13.113 au  Cl            1.00     30 A               2
                        (     356.814 eV)
    99      99       --        19.210 au  Cl            1.00     31 A               2
                        (     522.735 eV)
   100     100       --        19.210 au  Cl            1.00     32 A               2
                        (     522.735 eV)
   101     101       --        19.210 au  Cl            1.00     33 A               2
                        (     522.735 eV)
   102     102       --       215.062 au  Cl            1.00     34 A               2
                        (    5852.138 eV)



 ================================
 (Slater-type)  F U N C T I O N S  ***  (Basis and Fit)  ***
 ================================
  

 Atom Type    1  (Cl)
 ==============

 Valence Basis Sets:  14
 -----------------------
   1 S   20.300000
   1 S   15.250000
   2 S    6.250000
   2 S    4.450000
   2 P    8.850000
   2 P    5.050000
   3 S    3.450000
   3 S    2.300000
   3 S    1.600000
   3 P    3.350000
   3 P    2.050000
   3 P    1.200000
   3 D    2.000000
   4 F    2.000000

 Atom Type    2  (Cl)
 ==============

 Valence Basis Sets:  14
 -----------------------
   1 S   20.300000
   1 S   15.250000
   2 S    6.250000
   2 S    4.450000
   2 P    8.850000
   2 P    5.050000
   3 S    3.450000
   3 S    2.300000
   3 S    1.600000
   3 P    3.350000
   3 P    2.050000
   3 P    1.200000
   3 D    2.000000
   4 F    2.000000


 BAS: List of all Elementary Cartesian Basis Functions
 =====================================================

 The numbering in the list below (to the right of the function characteristics) is referred
 to in print-outs of MO eigenvectors and Mulliken populations in the BAS representation
 (as contrasted to the SFO representation).

 Notes:
 1. The functions are characterized by a polynomial prefactor (powers of x,y,z and r) and
    an exponential decay factor alpha.
 2. Since the basis sets are specific for an atom TYPE, the individual functions occur on
    all atoms of that type.
 3. The word 'Core' in the left margin signals that it is a Core Function (CF) : not a
    degree of freedom in the valence set, but only used to ensure orthogonalization of
    the other valence basis functions on the frozen Core Orbitals.


 (power of) X  Y  Z  R     Alpha  on Atom
            ==========     =====     ==========

 Cl                                   1    2
                                  ---------------------------------------------------------------------------
            0  0  0  0    20.300      1   39
            0  0  0  0    15.250      2   40
            0  0  0  1     6.250      3   41
            0  0  0  1     4.450      4   42
            1  0  0  0     8.850      5   43
            0  1  0  0     8.850      6   44
            0  0  1  0     8.850      7   45
            1  0  0  0     5.050      8   46
            0  1  0  0     5.050      9   47
            0  0  1  0     5.050     10   48
            0  0  0  2     3.450     11   49
            0  0  0  2     2.300     12   50
            0  0  0  2     1.600     13   51
            1  0  0  1     3.350     14   52
            0  1  0  1     3.350     15   53
            0  0  1  1     3.350     16   54
            1  0  0  1     2.050     17   55
            0  1  0  1     2.050     18   56
            0  0  1  1     2.050     19   57
            1  0  0  1     1.200     20   58
            0  1  0  1     1.200     21   59
            0  0  1  1     1.200     22   60
            2  0  0  0     2.000     23   61
            1  1  0  0     2.000     24   62
            1  0  1  0     2.000     25   63
            0  2  0  0     2.000     26   64
            0  1  1  0     2.000     27   65
            0  0  2  0     2.000     28   66
            3  0  0  0     2.000     29   67
            2  1  0  0     2.000     30   68
            2  0  1  0     2.000     31   69
            1  2  0  0     2.000     32   70
            1  1  1  0     2.000     33   71
            1  0  2  0     2.000     34   72
            0  3  0  0     2.000     35   73
            0  2  1  0     2.000     36   74
            0  1  2  0     2.000     37   75
            0  0  3  0     2.000     38   76

 Cl                                   3
                                  ---------------------------------------------------------------------------
            0  0  0  0    20.300     77
            0  0  0  0    15.250     78
            0  0  0  1     6.250     79
            0  0  0  1     4.450     80
            1  0  0  0     8.850     81
            0  1  0  0     8.850     82
            0  0  1  0     8.850     83
            1  0  0  0     5.050     84
            0  1  0  0     5.050     85
            0  0  1  0     5.050     86
            0  0  0  2     3.450     87
            0  0  0  2     2.300     88
            0  0  0  2     1.600     89
            1  0  0  1     3.350     90
            0  1  0  1     3.350     91
            0  0  1  1     3.350     92
            1  0  0  1     2.050     93
            0  1  0  1     2.050     94
            0  0  1  1     2.050     95
            1  0  0  1     1.200     96
            0  1  0  1     1.200     97
            0  0  1  1     1.200     98
            2  0  0  0     2.000     99
            1  1  0  0     2.000    100
            1  0  1  0     2.000    101
            0  2  0  0     2.000    102
            0  1  1  0     2.000    103
            0  0  2  0     2.000    104
            3  0  0  0     2.000    105
            2  1  0  0     2.000    106
            2  0  1  0     2.000    107
            1  2  0  0     2.000    108
            1  1  1  0     2.000    109
            1  0  2  0     2.000    110
            0  3  0  0     2.000    111
            0  2  1  0     2.000    112
            0  1  2  0     2.000    113
            0  0  3  0     2.000    114

 Total number of charge fitting functions (nprimf)       318
 Total number of Cartesian basis functions (naos)        114
 Total number of Cartesian core functions  (ncos)          0

1
 ***************************************************************************************************



                                              ***********************
                                              *  T E C H N I C A L  *
                                              ***********************
  



 =============================================================
 P A R A L L E L I Z A T I O N  and  V E C T O R I Z A T I O N
 =============================================================
  
 Nr of parallel processes:                               12
 Maximum vector length in NumInt loops:                 128

 IO buffersize (Mb):                                     64.000000



 =====================
 S C F   U P D A T E S
 =====================
  
 Max. nr. of cycles:                               250
 Convergence criterion:                              0.0000010000
   secondary criterion:                              0.0010000000

 Mix parameter (when DIIS does not apply):           0.2000000000
 Mixed ADIIS+DIIS will be used
    Max number of expansion vectors:                10
    Pure ADIIS when Max([F,P]) is above              0.1000000000
    Pure DIIS when Max([F,P]) is below               0.0010000000
 Automatic ElectronSmearing (in case of problematic SCF convergence) disabled



 =================
 P R E C I S I O N  ***  (General: NumInt, NeglectFunctionTails, ...)  ***
 =================
  

 NumInt:           Target precision:                 6.0000000000
 -------           Initial precision:                6.0000000000
                   Min. precision (optimization):    6.0000000000

 Neglect Functions:          Basis functions:        0.1000000000E-07
 ------------------          Fit functions:          0.1000000000E-07



 ===========================
 L I N E A R   S C A L I N G
 ===========================
  

 Cut-off radii density fit:                        0.1000000000E-09
 Overlap cut-off criterion AO matrix elements:     0.1000000000E-07
 Cut-offs for Coulomb potential and fitted density:0.1000000000E-09
 Cut-off criterion for Coulomb multipole terms:    0.1000000000E-09
 Progressive Convergence parameter:                 0.000000000    
1
 ***************************************************************************************************



                                            ***************************
                                            *  C O M P U T A T I O N  *
                                            ***************************
  

 Number of elements of the density matrix on this node (used, total):       741      6555



 ===========================================
 Numerical Integration : Fuzzy Cells (Becke)
 ===========================================
  
 Becke grid quality: GOOD           
  
 Lebedev angular grid order:             min:  11 max:  31
 Nr. of radial points:                   min:  80 max:  80

 Total nr. of points:      51744
 Nr. of blocks:              405
 Block length:               128
 Nr. of dummy points:         96


 Test of Precision of the Numerical Integration Grid
 ===================================================

 Integral of the Total Core Density:                   0.00000000000000



 ========================
 Density Fitting (zlmFit)
 ========================
  
 ZlmFit Fit Quality: NORMAL         
  
 Max L-expansion:                        min:   7 max:   7
 Nr. of radial interpolation points:     min:  60 max:  60



 =====
 S C F  ***  ScaSCF  ***
 =====
  
 Initial density matrix is calculated as sum of fragments

 CYCLE    1
 SCF Error: norm([F,P])=      1.170637397838, max([F,P])=      0.621438791557
 orbitals (Q,E):
 ---------------
 A :17...36          ( 2.00    -0.5660)  ( 2.00    -0.4222)  ( 2.00    -0.2654)  ( 2.00    -0.2183)
                     ( 2.00    -0.2183)  ( 2.00    -0.1177)  ( 2.00    -0.1177)  ( 2.00    -0.1060)
                     ( 2.00     0.0075)  ( 2.00     0.0075)  ( 0.00     0.0581)  ( 0.00     0.2710)
                     ( 0.00     0.3305)  ( 0.00     0.3319)  ( 0.00     0.3319)  ( 0.00     0.4049)
                     ( 0.00     0.4049)  ( 0.00     0.4269)  ( 0.00     0.4329)  ( 0.00     0.4329)

 CYCLE    2
  SDIIS (wt  0.000):  0.4208  0.5792
 A-DIIS (wt  1.000):  0.9005  0.0995
  DIIS coefficients:  0.9005  0.0995
 SCF Error: norm([F,P])=      0.988688481741, max([F,P])=      0.429456713004
 orbitals (Q,E):
 ---------------
 A :17...27          ( 2.00    -0.5515)  ( 2.00    -0.4649)  ( 2.00    -0.2351)  ( 2.00    -0.1783)
                     ( 2.00    -0.1783)  ( 2.00    -0.1069)  ( 2.00    -0.1069)  ( 2.00    -0.1033)
                     ( 2.00    -0.0319)  ( 2.00    -0.0319)  ( 0.00     0.0346)

 CYCLE    3
  SDIIS (wt  0.000):  0.0997 -1.0602  1.9605
 A-DIIS (wt  1.000):  0.8424  0.0000  0.1576
  DIIS coefficients:  0.8424  0.0000  0.1576
 SCF Error: norm([F,P])=      0.619048726844, max([F,P])=      0.299233866199
 orbitals (Q,E):
 ---------------
 A :17...27          ( 2.00    -0.5543)  ( 2.00    -0.4703)  ( 2.00    -0.2318)  ( 2.00    -0.1706)
                     ( 2.00    -0.1706)  ( 2.00    -0.1104)  ( 2.00    -0.1104)  ( 2.00    -0.1039)
                     ( 2.00    -0.0371)  ( 2.00    -0.0371)  ( 0.00     0.0299)

 CYCLE    4
  SDIIS (wt  0.000): -0.9952 -1.0048  3.0000
 A-DIIS (wt  1.000):  0.0000  0.0000  1.0000
  DIIS coefficients:  0.0000  0.0000  1.0000
 SCF Error: norm([F,P])=      0.578668167342, max([F,P])=      0.290851068498
 orbitals (Q,E):
 ---------------
 A :17...27          ( 2.00    -0.5404)  ( 2.00    -0.3404)  ( 2.00    -0.3021)  ( 2.00    -0.2993)
                     ( 2.00    -0.2993)  ( 2.00    -0.0868)  ( 2.00    -0.0868)  ( 2.00    -0.0723)
                     ( 2.00     0.0912)  ( 2.00     0.0912)  ( 0.00     0.1355)

 CYCLE    5
  SDIIS (wt  0.000): -0.6145 -1.5006  3.0000  0.1152
 A-DIIS (wt  1.000):  0.0000  0.0000  0.7818  0.2182
  DIIS coefficients:  0.0000  0.0000  0.7818  0.2182
 SCF Error: norm([F,P])=      1.574196308434, max([F,P])=      0.526064730734
 orbitals (Q,E):
 ---------------
 A :17...27          ( 2.00    -0.5210)  ( 2.00    -0.4655)  ( 2.00    -0.2109)  ( 2.00    -0.1608)
                     ( 2.00    -0.1608)  ( 2.00    -0.0934)  ( 2.00    -0.0802)  ( 2.00    -0.0802)
                     ( 2.00    -0.0358)  ( 2.00    -0.0358)  ( 0.00     0.0491)

 CYCLE    6
  SDIIS (wt  0.000): -0.0758 -2.0000  2.6270 -0.0122  0.4610
 A-DIIS (wt  1.000):  0.0000  0.0000  0.4404  0.0000  0.5596
  DIIS coefficients:  0.0000  0.0000  0.4404  0.0000  0.5596
 SCF Error: norm([F,P])=      0.525472561585, max([F,P])=      0.174839118166
 orbitals (Q,E):
 ---------------
 A :17...27          ( 2.00    -0.5297)  ( 2.00    -0.4986)  ( 2.00    -0.2245)  ( 2.00    -0.1582)
                     ( 2.00    -0.1582)  ( 2.00    -0.0911)  ( 2.00    -0.0901)  ( 2.00    -0.0901)
                     ( 2.00    -0.0692)  ( 2.00    -0.0692)  ( 0.00     0.0110)

 CYCLE    7
  SDIIS (wt  0.000): -0.2361  0.3327  0.1844 -0.0587  0.3079  0.4698
 A-DIIS (wt  1.000):  0.0000  0.0000  0.1567  0.0000  0.1745  0.6688
  DIIS coefficients:  0.0000  0.0000  0.1567  0.0000  0.1745  0.6688
 SCF Error: norm([F,P])=      0.281599298408, max([F,P])=      0.124126559669
 orbitals (Q,E):
 ---------------
 A :17...27          ( 2.00    -0.5451)  ( 2.00    -0.4878)  ( 2.00    -0.2013)  ( 2.00    -0.1294)
                     ( 2.00    -0.1294)  ( 2.00    -0.1047)  ( 2.00    -0.1032)  ( 2.00    -0.1032)
                     ( 2.00    -0.0553)  ( 2.00    -0.0553)  ( 0.00     0.0335)

 CYCLE    8
  SDIIS (wt  0.000): -0.0687 -0.3392  0.5332 -0.0139  0.1222  0.4740  0.2924
 A-DIIS (wt  1.000):  0.0000  0.0000  0.0000  0.0000  0.0000  0.5936  0.4064
  DIIS coefficients:  0.0000  0.0000  0.0000  0.0000  0.0000  0.5936  0.4064
 SCF Error: norm([F,P])=      0.359357544947, max([F,P])=      0.146626494017
 orbitals (Q,E):
 ---------------
 A :17...27          ( 2.00    -0.5397)  ( 2.00    -0.5010)  ( 2.00    -0.2116)  ( 2.00    -0.1355)
                     ( 2.00    -0.1355)  ( 2.00    -0.0991)  ( 2.00    -0.0989)  ( 2.00    -0.0989)
                     ( 2.00    -0.0701)  ( 2.00    -0.0701)  ( 0.00     0.0191)

 CYCLE    9
  SDIIS (wt  0.841):  0.0053 -0.2401  0.2669 -0.0040  0.0132  0.2090  0.0859  0.6637
 A-DIIS (wt  0.159):  0.0000  0.0000  0.0000  0.0000  0.0000  0.0000  0.0000  1.0000
  DIIS coefficients:  0.0045 -0.2019  0.2245 -0.0033  0.0111  0.1758  0.0722  0.7172
 SCF Error: norm([F,P])=      0.051200347701, max([F,P])=      0.016727490839
 orbitals (Q,E):
 ---------------
 A :17...27          ( 2.00    -0.5369)  ( 2.00    -0.5011)  ( 2.00    -0.2139)  ( 2.00    -0.1391)
                     ( 2.00    -0.1391)  ( 2.00    -0.0970)  ( 2.00    -0.0964)  ( 2.00    -0.0964)
                     ( 2.00    -0.0707)  ( 2.00    -0.0707)  ( 0.00     0.0172)

 CYCLE   10
  SDIIS (wt  0.914):  0.0010 -0.0387  0.0422 -0.0004 -0.0008 -0.0001  0.0235  0.1970  0.7762
 A-DIIS (wt  0.086):  0.0000  0.0000  0.0000  0.0000  0.0000  0.0000  0.0000  0.2229  0.7771
  DIIS coefficients:  0.0009 -0.0354  0.0386 -0.0004 -0.0007 -0.0001  0.0215  0.1992  0.7763
 SCF Error: norm([F,P])=      0.021346769010, max([F,P])=      0.009468543325
 orbitals (Q,E):
 ---------------
 A :17...27          ( 2.00    -0.5379)  ( 2.00    -0.5011)  ( 2.00    -0.2131)  ( 2.00    -0.1378)
                     ( 2.00    -0.1378)  ( 2.00    -0.0978)  ( 2.00    -0.0973)  ( 2.00    -0.0973)
                     ( 2.00    -0.0705)  ( 2.00    -0.0705)  ( 0.00     0.0178)

 CYCLE   11
  SDIIS (wt  1.000): -0.0000 -0.0086  0.0102 -0.0001 -0.0007 -0.0051  0.0053  0.0701  0.3462  0.5826
  DIIS coefficients: -0.0000 -0.0086  0.0102 -0.0001 -0.0007 -0.0051  0.0053  0.0701  0.3462  0.5826
 SCF Error: norm([F,P])=      0.002165243339, max([F,P])=      0.000810911126
 orbitals (Q,E):
 ---------------
 A :17...27          ( 2.00    -0.5377)  ( 2.00    -0.5011)  ( 2.00    -0.2131)  ( 2.00    -0.1378)
                     ( 2.00    -0.1378)  ( 2.00    -0.0976)  ( 2.00    -0.0972)  ( 2.00    -0.0972)
                     ( 2.00    -0.0705)  ( 2.00    -0.0705)  ( 0.00     0.0178)

 CYCLE   12
  SDIIS (wt  1.000): -0.0042  0.0051  0.0000 -0.0006 -0.0023  0.0014  0.0205  0.1161  0.2762  0.5878
  DIIS coefficients: -0.0042  0.0051  0.0000 -0.0006 -0.0023  0.0014  0.0205  0.1161  0.2762  0.5878
 SCF Error: norm([F,P])=      0.000584158268, max([F,P])=      0.000280656303
 orbitals (Q,E):
 ---------------
 A :17...27          ( 2.00    -0.5377)  ( 2.00    -0.5011)  ( 2.00    -0.2131)  ( 2.00    -0.1379)
                     ( 2.00    -0.1379)  ( 2.00    -0.0976)  ( 2.00    -0.0972)  ( 2.00    -0.0972)
                     ( 2.00    -0.0705)  ( 2.00    -0.0705)  ( 0.00     0.0178)

 CYCLE   13
  SDIIS (wt  1.000):  0.0001  0.0000 -0.0002 -0.0005 -0.0001  0.0032  0.0159  0.0478  0.1513  0.7825
  DIIS coefficients:  0.0001  0.0000 -0.0002 -0.0005 -0.0001  0.0032  0.0159  0.0478  0.1513  0.7825
 SCF Error: norm([F,P])=      0.000061928669, max([F,P])=      0.000017989317
 orbitals (Q,E):
 ---------------
 A :17...27          ( 2.00    -0.5377)  ( 2.00    -0.5011)  ( 2.00    -0.2131)  ( 2.00    -0.1379)
                     ( 2.00    -0.1379)  ( 2.00    -0.0977)  ( 2.00    -0.0972)  ( 2.00    -0.0972)
                     ( 2.00    -0.0705)  ( 2.00    -0.0705)  ( 0.00     0.0178)

 CYCLE   14
  SDIIS (wt  1.000):  0.0000 -0.0000 -0.0000 -0.0000 -0.0008 -0.0030 -0.0065 -0.0063  0.2626  0.7542
  DIIS coefficients:  0.0000 -0.0000 -0.0000 -0.0000 -0.0008 -0.0030 -0.0065 -0.0063  0.2626  0.7542
 SCF Error: norm([F,P])=      0.000036932380, max([F,P])=      0.000015531998
 orbitals (Q,E):
 ---------------
 A :17...27          ( 2.00    -0.5377)  ( 2.00    -0.5011)  ( 2.00    -0.2131)  ( 2.00    -0.1379)
                     ( 2.00    -0.1379)  ( 2.00    -0.0976)  ( 2.00    -0.0972)  ( 2.00    -0.0972)
                     ( 2.00    -0.0705)  ( 2.00    -0.0705)  ( 0.00     0.0178)

 CYCLE   15
  SDIIS (wt  1.000): -0.0000  0.0000 -0.0000 -0.0004 -0.0011 -0.0033 -0.0072  0.0778  0.3587  0.5755
  DIIS coefficients: -0.0000  0.0000 -0.0000 -0.0004 -0.0011 -0.0033 -0.0072  0.0778  0.3587  0.5755
 SCF Error: norm([F,P])=      0.000010594495, max([F,P])=      0.000003271704
 orbitals (Q,E):
 ---------------
 A :17...27          ( 2.00    -0.5377)  ( 2.00    -0.5011)  ( 2.00    -0.2131)  ( 2.00    -0.1379)
                     ( 2.00    -0.1379)  ( 2.00    -0.0977)  ( 2.00    -0.0972)  ( 2.00    -0.0972)
                     ( 2.00    -0.0705)  ( 2.00    -0.0705)  ( 0.00     0.0178)

 CYCLE   16
  SDIIS (wt  1.000):  0.0000  0.0000 -0.0000 -0.0001 -0.0002 -0.0001  0.0132  0.0643  0.1404  0.7824
  DIIS coefficients:  0.0000  0.0000 -0.0000 -0.0001 -0.0002 -0.0001  0.0132  0.0643  0.1404  0.7824
 SCF Error: norm([F,P])=      0.000001487919, max([F,P])=      0.000000648784
 orbitals (Q,E):
 ---------------
 A :17...27          ( 2.00    -0.5377)  ( 2.00    -0.5011)  ( 2.00    -0.2131)  ( 2.00    -0.1379)
                     ( 2.00    -0.1379)  ( 2.00    -0.0977)  ( 2.00    -0.0972)  ( 2.00    -0.0972)
                     ( 2.00    -0.0705)  ( 2.00    -0.0705)  ( 0.00     0.0178)

 SCF CONVERGED

 CYCLE   17
1
 ***************************************************************************************************



                                                *******************
                                                *  R E S U L T S  *
                                                *******************
  
 *** Setting up for NEW gradients in Focky
 *** Using FIT density in Focky

 Orbital Energies, per Irrep and Spin:
 ======================================
                        Occup              E (au)              E (eV)       Diff (eV) with prev. cycle
                        -----      --------------------        ------       --------------------------
 A
              17        2.000     -0.53772251267013E+00       -14.632               5.73E-08
              18        2.000     -0.50109610460833E+00       -13.636               8.42E-08
              19        2.000     -0.21310262198497E+00        -5.799               5.16E-08
              20        2.000     -0.13786572080536E+00        -3.752               6.27E-08
              21        2.000     -0.13786486631833E+00        -3.751               6.27E-08
              22        2.000     -0.97650220595499E-01        -2.657               6.73E-08
              23        2.000     -0.97161984946275E-01        -2.644               4.99E-08
              24        2.000     -0.97161717026241E-01        -2.644               4.97E-08
              25        2.000     -0.70514144427208E-01        -1.919               7.07E-08
              26        2.000     -0.70513181940176E-01        -1.919               7.05E-08
              27        0.000      0.17811799905188E-01         0.485
              28        0.000      0.34616373206947E+00         9.420
              29        0.000      0.36220317807811E+00         9.856
              30        0.000      0.37062927562630E+00        10.085
              31        0.000      0.38191979817871E+00        10.393
              32        0.000      0.38192310623066E+00        10.393
              33        0.000      0.40451405997905E+00        11.007
              34        0.000      0.40451711491967E+00        11.007
              35        0.000      0.44859167667630E+00        12.207
              36        0.000      0.46856028570214E+00        12.750
  
 HOMO :       26 A                -0.70513181940176E-01
 LUMO :       27 A                 0.17811799905188E-01
  


 All Electron Calculation, thus no Orbital Energies of the Core Orbitals are calculated


 Fit test: (difference of exact and fit density, squared integrated, result summed over spins)
         Sum-of-Fragments:                             0.00022324272069
         Orthogonalized Fragments:                     0.00022534921230
         SCF:                                          0.00022678728976



 ==========================
 Electron Density at Nuclei
 ==========================
  
 The electron density is calculated at points on a small sphere around the center of a nucleus.
 The printed electron density is the average electron density on these points.
 The radius of the sphere is the printed approximate finite nuclear radius.

         Atom        Nuclear Radius (Angstrom)             Electron Density (a.u.)
         ----        -------------------------             -----------------------
     1)   Cl                0.0000426624                             3211.83060
     2)   Cl                0.0000426624                             3210.64861
     3)   Cl                0.0000426624                             3210.64860



 =======================================
 M U L L I K E N   P O P U L A T I O N S
 =======================================
  
 The survey below gives for each atom:
 a) the total charge (Z minus electrons)
 b) the net spin polarization (nr of electrons spin-A minus spin-B)
 c) for each spin the atomic electron valence density (integrated) per L-value.

 Atom              Charge    Spin density          S         P         D         F
 ----              ------    ------------       ------    ------    ------    ------
 1 Cl             -0.1000                       5.9769   11.0363    0.0757    0.0111
 2 Cl             -0.4500                       5.9834   11.4400    0.0216    0.0049
 3 Cl             -0.4500                       5.9834   11.4400    0.0216    0.0049

 Populations of individual BAS functions
 ----------------------------------------
 1 Cl           0.5054  1.4528  1.7145  0.2458  0.7273  0.7194  0.7306  1.2716  1.2820  1.2672
                0.6437  1.0715  0.3431  0.2729  0.1800  0.3118  1.0607  0.8423  1.1519  0.4418
                0.2585  0.5184  0.0013  0.0304  0.0031  0.0346  0.0102 -0.0039 -0.0033 -0.0030
                0.0005  0.0120  0.0013 -0.0049  0.0156  0.0113 -0.0084 -0.0102
 2 Cl           0.5055  1.4530  1.7132  0.2533  0.7271  0.7232  0.7288  1.2710  1.2764  1.2688
                0.6081  1.0328  0.4176  0.2868  0.2351  0.3084  1.0347  0.9254  1.0804  0.5491
                0.4237  0.6015 -0.0005  0.0073  0.0013  0.0158  0.0042 -0.0064 -0.0025 -0.0024
                0.0003  0.0076  0.0006 -0.0035  0.0105  0.0074 -0.0062 -0.0070
 3 Cl           0.5055  1.4530  1.7132  0.2533  0.7271  0.7232  0.7288  1.2710  1.2764  1.2688
                0.6081  1.0328  0.4176  0.2868  0.2351  0.3084  1.0347  0.9254  1.0803  0.5491
                0.4237  0.6015 -0.0005  0.0073  0.0013  0.0158  0.0042 -0.0064 -0.0025 -0.0024
                0.0003  0.0076  0.0006 -0.0035  0.0105  0.0074 -0.0062 -0.0070

 Gross Charges per Atom (Z minus electrons)
 ==========================================
            -0.1000   -0.4500   -0.4500
 Net Total: -1.00000000


 Atom-Atom Population Matrix (off-diagonal elements not doubled)
 ===============================================================

     1 :    17.1459
     2 :    -0.0229   17.4571
     3 :    -0.0229    0.0158   17.4571


 Frag-Frag Population Matrix (off-diagonal elements not doubled)
 ===============================================================

     1 :    34.5571
     2 :    -0.0071   17.4571



 =================================================
 H I R S H F E L D   C H A R G E   A N A L Y S I S
 =================================================
  
 For each fragment: the (numerical) integral of rho(scf) * rho(fragment)/rho(sum-of-fragments)
 (nuclear charges are included, electrons are counted negative)

 The fragments and their ordering are defined in the early G E O M E T R Y output section.
 If you use single-atom fragments, this usually implies that all atoms of the same
 chemical type are grouped together. This may not be the order in which you listed them
 in the input file!

    1  ClCl                     -0.4329
    2  Cl                       -0.5671

 Sum of these charges (accuracy NumInt/Tails) =          -1.00000456



 =============================
 V O R O N O I   C H A R G E S
 =============================
  
 For each atom: the (numerical) integral of the total electronic charge density in its Voronoi cell,
 i.e. the region of space that is closer to that atom than to any other atom.
 (cf. Wigner-Seitz cells in crystals)

 Within the Voronoi cell the subintegrals over the atomic sphere and the remaining part are evaluated
 separately to give the numbers of electrons (negative charge) in these regions.
 The net total charge in the cell (including the nuclear charge) is also given.

 Values are provided for
    a) the Initial (sum-of-fragments) density
    b) the Orthogonalized-Fragments density
    c) the SCF density
    d) the Voronoi Deformation Density (VDD): the difference SCF-Initial for the complete atomic cell
 ---------------------------------------------------------------------------------------------------
 Total NetCharge:              -1.000                     -1.000                     -1.000   -0.000
 (accuracy NumInt/Tails)

 Remark: the 'NetTotal' Voronoi charges often do not match the Mulliken and/or Hirshfeld charges very
 well. This is caused by the fact that chemically different atoms are not treated in accordance with
 their relative sizes. (Voronoi cells are defined by boundary planes halfway between the atoms.)
 However, the CHANGES in charge, comparing 'Initial' to 'SCF' for instance, do give a fair indication
 of the flow of charge caused by the relaxation from sum-of-fragments to self-consistency.

 Warning: the absolute accuracy of the VDD charges obtained using the Fuzzy Cells (Becke) integration
 scheme is much poorer than the one obtained with an 'equivalent' Voronoi integration grid. 



 =================================================================
 M U L T I P O L E   D E R I V E D   C H A R G E   A N A L Y S I S
 =================================================================

 This charge analysis uses the atomic multipoles (obtained from the fitted density) up to some level X,
 and reconstructs these multipoles exactly (up to level X) by distributing charges over all atoms.
 This is achieved by using Lagrange multipliers and a weight function to keep the multipoles local.

 Dummy atoms can be included (by setting INCDUM in MDC-block to 1) to obtain a fractional charge.
 This is generally useful and necessary only for small symmetrical molecules, when there are not
 enough degrees of freedom to reconstruct the multipoles.

 Since the atomic multipoles are reconstructed up to level X,
 the molecular multipoles are represented also up to level X.
 The recommended level is to reconstruct up to quadrupole : -> MDC-q charges.

 See: M. Swart, P.Th. van Duijnen, J.G. Snijders, J.Comput.Chem., (2001), p. 79-88.

 ------------------------------------------------------------- 
 Atomic electronic multipole moments from SCF equations (a.u.)
 ------------------------------------------------------------- 

   atom        charge        dip-x     dip-y     dip-z      quad-xx   quad-xy   quad-xz   quad-yy   quad-yz   quad-zz
 --------------------------------------------------------------------------------------------------------------------
    1 Cl    -0.154519     0.000003 -0.000005  0.000000    -0.263942 -0.714449  0.073463  1.096453 -0.133650 -0.832510
    2 Cl    -0.422735    -0.114126  0.207645 -0.021391    -0.201112 -0.544264  0.055954  0.835297 -0.101799 -0.634185
    3 Cl    -0.422747     0.114124 -0.207641  0.021390    -0.201110 -0.544259  0.055953  0.835288 -0.101798 -0.634178

 --------------------------------------- 
 Multipole derived atomic charges (a.u.)
 --------------------------------------- 

 The MDC-m charges are just the Monopole terms in the multipole expansion, while for the MDC-d charges
 also the Dipoles are reconstructed. The usually preferred charges are the MDC-q charges.
 These reconstruct the Monopoles, Dipoles and Quadrupoles (both atomic AND molecular).

        Atom    Level:     MDC-m        MDC-d        MDC-q
 ---------------------------------------------------------
     1     Cl          -0.154519    -0.056759    -0.055017
     2     Cl          -0.422735    -0.471615    -0.472486
     3     Cl          -0.422747    -0.471627    -0.472498

 ------------------------------------------------ 
 Average absolute deviations in atomic multipoles
 ------------------------------------------------ 

 Stated here are the average differences between the atomic multipoles
 and the reconstructed atomic multipoles (from the distributed charges).
 If these values are not zero, this means there are not enough degrees of freedom,
 to be able to reconstruct the atomic multipoles. (This usually happens only
 for small and/or highly symmetric molecules). If this is the case, one could add
 dummy atoms as extra point charges (and setting INCDUM in MDC-block to 1).

 Level:                                 MDC-d        MDC-q
 ---------------------------------------------------------
 Charge   (a.u.)                       0.0000       0.0000
 Dipole   (Debye)                      0.0001       0.0001
 Quad.    (a.u.)                       0.2590       0.1829

 --------------------------------------- 
 Represented molecular multipole moments
 --------------------------------------- 

 Given here are the Molecular multipole moments from the atomic charges, and from the Fit Density.
 Note that the atomic charges represent the latter, NOT the ones from the Exact density.

            Q (a.u.)             Dipole moment (Debye)                                          Quadrupole moment (a.u.)
                                 x         y         z              xx        xy        xz        yy        yz        zz
------------------------------------------------------------------------------------------------------------------------
MDC-m        -1.0000       23.6565  -14.8883    0.2197        -66.7834   92.6577   -2.3235   -2.1303    2.7913   68.9136
MDC-d        -1.0000       23.6565  -14.8883    0.2197        -66.4734   93.9160   -2.4526   -3.4178    3.0262   69.8912
MDC-q        -1.0000       23.6565  -14.8883    0.2197        -66.4679   93.9384   -2.4549   -3.4407    3.0304   69.9086
 
Fit.Dens.    -1.0000       23.6565  -14.8883    0.2197        -66.7828   93.5603   -2.4163   -2.1318    2.9601   68.9146



 =============
 Dipole Moment  ***  (Debye)  ***
 =============
  
 Vector   :        23.65646522    -14.88833681      0.21968210
 Magnitude:        27.95244497

 This molecular dipole moment is calculated with analytic integration
 ************************************************************************************
 Since the molecule is NOT NEUTRAL, the dipole moment depends on the choice of origin
 ************************************************************************************



 =========================================
 Quadrupole Moment (Buckingham convention)  ***  (a.u.)  ***
 =========================================
  
      quad-xx        quad-xy        quad-xz        quad-yy        quad-yz        quad-zz
    -66.78299765    92.65898773    -2.32375999    -2.13158204     2.79178333    68.91457970

 This molecular quadrupole moment is calculated with analytic integration
1



                                             *************************
                                             *  SFO MO coefficients  *
                                             *************************
  


                                       === A ===
 MOs expanded in CFs+SFOs
 ========================

 The SFOs have been characterized in an earlier part of output.
 To deduce the bonding / antibonding nature of SFO combinations in an MO, consider the products
 of the coefficients AND THE OVERLAP between the SFOs (may be NEGATIVE). The SFO overlap matrix
 is printed later, in the SFO Populations section.

 (The CF coefficients are not printed)

 MOs :      1        2        3        4        5        6        7        8        9       10
 occup:   2.00     2.00     2.00     2.00     2.00     2.00     2.00     2.00     2.00     2.00
 CF+SFO
     1   0.8910  -0.4539  -0.0062   0.0000   0.0000  -0.0000   0.0000   0.0000   0.0000  -0.0000
     2   0.4539   0.8910   0.0122   0.0000  -0.0000  -0.0000   0.0000   0.0000   0.0000   0.0000
     3   0.0000  -0.0000   0.0000  -0.7130  -0.6072  -0.3507  -0.0029   0.0000  -0.0000   0.0013
     4   0.0000   0.0000   0.0000  -0.7011   0.6172   0.3570  -0.0029   0.0000  -0.0000  -0.0013
     5   0.0000   0.0000  -0.0000   0.0029  -0.0011  -0.0007  -0.7162  -0.0000   0.0000  -0.6944
     6  -0.0000   0.0000   0.0000  -0.0029  -0.0012  -0.0006   0.6979   0.0000  -0.0000  -0.7126
     7   0.0000   0.0000   0.0000  -0.0000   0.0000   0.0000   0.0000  -0.7734   0.0007  -0.0000
     8  -0.0000   0.0000  -0.0000   0.0000   0.0000   0.0000  -0.0000   0.6339  -0.0006  -0.0000
     9   0.0000  -0.0000   0.0000   0.0000   0.0000   0.0000  -0.0000  -0.0007  -0.7733  -0.0000
    10  -0.0000  -0.0000  -0.0000  -0.0000   0.0000   0.0000   0.0000   0.0006   0.6340  -0.0000
    11  -0.0000  -0.0000   0.0000   0.0006  -0.0010   0.0004   0.0001   0.0000   0.0000  -0.0001
    12  -0.0000  -0.0000   0.0000   0.0007  -0.0004   0.0008   0.0000   0.0000   0.0000  -0.0001
    13   0.0000   0.0000  -0.0000  -0.0003   0.0008  -0.0004   0.0001  -0.0000  -0.0000   0.0003
    14   0.0000  -0.0000   0.0000   0.0000   0.0000   0.0000  -0.0000  -0.0001   0.0000  -0.0000
    15   0.0000  -0.0000   0.0000  -0.0000  -0.0000   0.0000   0.0000  -0.0000  -0.0001   0.0000
    16  -0.0000  -0.0000  -0.0000   0.0000   0.0000  -0.0000   0.0000   0.0001   0.0000  -0.0000
    17   0.0000  -0.0000   0.0000  -0.0000  -0.0000   0.0000   0.0000   0.0000  -0.0001  -0.0000
    18  -0.0000  -0.0000   0.0000   0.0001  -0.0008   0.0004  -0.0001   0.0000   0.0000  -0.0000
    19  -0.0000  -0.0000   0.0001   0.0003  -0.0013   0.0007   0.0001   0.0000  -0.0000  -0.0003
    20   0.0000   0.0000  -0.0000  -0.0002   0.0008  -0.0008  -0.0001  -0.0000   0.0000   0.0002
    21  -0.0000  -0.0000  -0.0000   0.0000   0.0000  -0.0000  -0.0000  -0.0000   0.0000  -0.0000
    22   0.0000   0.0000  -0.0000   0.0000   0.0000  -0.0000  -0.0000  -0.0000  -0.0000  -0.0000
    23  -0.0000  -0.0000   0.0000   0.0002  -0.0008   0.0003   0.0002   0.0000  -0.0000  -0.0001
    24  -0.0000  -0.0000   0.0000   0.0000  -0.0000   0.0000   0.0000  -0.0000   0.0001   0.0000
    25   0.0000   0.0000  -0.0000   0.0000   0.0000  -0.0000  -0.0000  -0.0001  -0.0000   0.0000
    26   0.0000  -0.0000   0.0000  -0.0000   0.0000   0.0000  -0.0000  -0.0002   0.0000  -0.0000
    27   0.0000  -0.0000   0.0000   0.0000  -0.0000  -0.0000  -0.0000  -0.0000  -0.0002   0.0000
    28  -0.0000   0.0000  -0.0000   0.0001   0.0001   0.0000   0.0002   0.0000  -0.0000  -0.0001
    29  -0.0000  -0.0000   0.0000   0.0000  -0.0000   0.0000  -0.0000   0.0000   0.0000   0.0000
    30   0.0000  -0.0000   0.0000  -0.0000  -0.0000   0.0000   0.0000   0.0000   0.0000   0.0000
    31  -0.0000  -0.0000   0.0000   0.0002  -0.0002   0.0003  -0.0001   0.0000   0.0000   0.0000
    32   0.0000  -0.0000   0.0000  -0.0000   0.0000  -0.0000   0.0000   0.0000   0.0000  -0.0000
    33  -0.0000   0.0000   0.0000   0.0000  -0.0000   0.0000  -0.0000   0.0000  -0.0000   0.0000
    34   0.0000  -0.0000   0.0000   0.0000  -0.0000   0.0000  -0.0000  -0.0001  -0.0001  -0.0000
    35   0.0000   0.0000  -0.0000  -0.0000  -0.0000  -0.0000   0.0000  -0.0001   0.0001   0.0000
    36   0.0000  -0.0000  -0.0000  -0.0002   0.0002  -0.0000   0.0003   0.0000  -0.0000  -0.0001
    37   0.0000   0.0000  -0.0000  -0.0000   0.0000  -0.0000   0.0000  -0.0000   0.0000   0.0000
    38  -0.0000  -0.0000  -0.0000   0.0000  -0.0000  -0.0000   0.0000  -0.0000  -0.0000  -0.0000
    39  -0.0000  -0.0000  -0.0000   0.0000   0.0000  -0.0000  -0.0000   0.0001  -0.0000  -0.0000
    40  -0.0000  -0.0000   0.0000   0.0000  -0.0000  -0.0000   0.0000   0.0000   0.0001   0.0000
    41   0.0000  -0.0000  -0.0000  -0.0000  -0.0000  -0.0000   0.0000  -0.0000   0.0000  -0.0000
    42   0.0000   0.0000   0.0000  -0.0000   0.0000   0.0000   0.0000  -0.0000  -0.0000  -0.0000
    43   0.0000   0.0000   0.0000  -0.0001   0.0001   0.0002  -0.0001  -0.0000   0.0000   0.0001
    44  -0.0000  -0.0000  -0.0000   0.0000  -0.0000  -0.0000   0.0000   0.0000  -0.0000  -0.0000
    45   0.0000   0.0000   0.0000   0.0000   0.0000   0.0000  -0.0000   0.0000   0.0000  -0.0000
    46   0.0000  -0.0000  -0.0000  -0.0000  -0.0000  -0.0000  -0.0000  -0.0000  -0.0000   0.0000
    47  -0.0000   0.0000   0.0000  -0.0000   0.0000   0.0000   0.0000  -0.0000   0.0000  -0.0000
    48  -0.0000   0.0000   0.0000   0.0001   0.0001   0.0002   0.0001   0.0000   0.0000  -0.0001
    49   0.0000   0.0000  -0.0000   0.0000   0.0000  -0.0000   0.0000  -0.0001   0.0000   0.0000
    50  -0.0000  -0.0000  -0.0000   0.0000  -0.0000  -0.0000  -0.0000  -0.0000  -0.0001  -0.0000
    51   0.0000   0.0000  -0.0000  -0.0005   0.0004   0.0002  -0.0001  -0.0000  -0.0000  -0.0002
    52  -0.0000  -0.0000   0.0000   0.0002  -0.0003   0.0000  -0.0004   0.0000   0.0000  -0.0004
    53  -0.0000  -0.0000  -0.0000  -0.0000  -0.0000  -0.0000  -0.0000   0.0003   0.0000  -0.0000
    54  -0.0000   0.0000   0.0000   0.0000   0.0000   0.0000  -0.0000  -0.0000   0.0003  -0.0000
    55  -0.0000   0.0000   0.0000   0.0004   0.0003   0.0002  -0.0003   0.0000   0.0000   0.0003
    56  -0.0000  -0.0000   0.0000   0.0000  -0.0000  -0.0000  -0.0000   0.0003   0.0000  -0.0000
    57   0.0000  -0.0000   0.0000  -0.0000  -0.0000   0.0000  -0.0000   0.0000  -0.0003  -0.0000
    58   0.0000  -0.0000   0.0000  -0.0003  -0.0003  -0.0001  -0.0003  -0.0000   0.0000   0.0002
    59  -0.0001  -0.0001  -0.0000   0.0002  -0.0001  -0.0001   0.0000  -0.0000  -0.0000  -0.0000
    60  -0.0001   0.0001  -0.0000   0.0002   0.0001   0.0001   0.0000  -0.0000  -0.0000  -0.0000
    61   0.0000   0.0000  -0.0000  -0.0000  -0.0000  -0.0000   0.0000  -0.0003   0.0002  -0.0000
    62  -0.0000  -0.0000  -0.0000  -0.0000  -0.0000  -0.0000   0.0000  -0.0002  -0.0003   0.0000
    63   0.0000   0.0000  -0.0000  -0.0001   0.0001  -0.0000   0.0004  -0.0000  -0.0000   0.0003
    64   0.0000  -0.0000   0.0000  -0.0000   0.0000   0.0000   0.0000  -0.0003   0.0002  -0.0000
    65  -0.0000  -0.0000   0.0000  -0.0000   0.0000   0.0000  -0.0000  -0.0002  -0.0003  -0.0000
    66   0.0000  -0.0000  -0.0000  -0.0001  -0.0000  -0.0000   0.0004  -0.0000  -0.0000  -0.0003
    67  -0.0001  -0.0001  -0.0000  -0.0000   0.0000   0.0000  -0.0000  -0.0000   0.0000  -0.0000
    68   0.0001  -0.0001  -0.0000   0.0000   0.0000   0.0000  -0.0000   0.0000  -0.0000   0.0000
    69   0.0000   0.0137  -0.9999  -0.0000   0.0000   0.0000   0.0000  -0.0000  -0.0000   0.0000
    70  -0.0000  -0.0000  -0.0000   0.0000   0.5002  -0.8656  -0.0000   0.0000   0.0000   0.0002
    71  -0.0000  -0.0000   0.0000   0.0000   0.0001  -0.0001  -0.0000   0.0000   0.0000  -0.0065
    72   0.0000   0.0000  -0.0000  -0.0000  -0.0009   0.0017   0.0000   0.0000   0.0000   0.0875
    73   0.0000   0.0000  -0.0000  -0.0000  -0.0005   0.0009   0.0000  -0.0000   0.0000   0.0481
    74   0.0000   0.0000  -0.0001  -0.0004   0.0016  -0.0012  -0.0000  -0.0000   0.0000   0.0003
    75  -0.0000  -0.0000   0.0000   0.0000  -0.0001   0.0001   0.0000   0.0000  -0.0000  -0.0000
    76   0.0000   0.0000  -0.0000  -0.0003   0.0009  -0.0006  -0.0003   0.0000  -0.0000   0.0002
    77   0.0000   0.0000  -0.0000  -0.0001   0.0004  -0.0003  -0.0001  -0.0000  -0.0000   0.0001
    78   0.0000   0.0000  -0.0000  -0.0005   0.0011  -0.0004   0.0000  -0.0000  -0.0000   0.0002
    79  -0.0000  -0.0000   0.0000   0.0002  -0.0005   0.0004  -0.0000  -0.0001   0.0000  -0.0001
    80  -0.0000  -0.0000   0.0000   0.0001  -0.0002   0.0002  -0.0000   0.0000  -0.0001  -0.0000
    81  -0.0000  -0.0000   0.0000   0.0003  -0.0007   0.0006  -0.0000   0.0000   0.0000  -0.0001
    82   0.0000  -0.0000   0.0000  -0.0000  -0.0000  -0.0000   0.0001   0.0000  -0.0000  -0.0000
    83   0.0000  -0.0000   0.0000  -0.0001  -0.0000  -0.0000   0.0002  -0.0000  -0.0000  -0.0001
    84  -0.0000   0.0000  -0.0000   0.0000   0.0000   0.0000  -0.0001  -0.0000   0.0000   0.0000
    85   0.0000  -0.0000   0.0000  -0.0000  -0.0000  -0.0000   0.0001  -0.0000   0.0000  -0.0000
    86  -0.0000   0.0000  -0.0000   0.0001   0.0000   0.0000  -0.0001  -0.0000  -0.0000   0.0001
    87   0.0000   0.0000  -0.0000  -0.0003   0.0001   0.0000   0.0001   0.0000  -0.0000  -0.0000
    88   0.0000   0.0000  -0.0000  -0.0000   0.0000   0.0000   0.0000   0.0000   0.0001  -0.0000
    89   0.0000   0.0000  -0.0000  -0.0000   0.0000   0.0000   0.0000  -0.0001  -0.0000  -0.0000
    90  -0.0000  -0.0000   0.0000   0.0001  -0.0000  -0.0000  -0.0000   0.0000  -0.0000   0.0000
    91   0.0000   0.0000  -0.0000  -0.0000   0.0000   0.0000   0.0000   0.0000   0.0000  -0.0000
    92  -0.0000  -0.0000   0.0000   0.0001  -0.0000  -0.0000  -0.0000   0.0000  -0.0001   0.0000
    93   0.0000   0.0000  -0.0000  -0.0000   0.0000  -0.0000   0.0000   0.0000  -0.0000  -0.0000
    94  -0.0000  -0.0000   0.0000   0.0001  -0.0005   0.0008  -0.0001   0.0000   0.0000   0.0000
    95   0.0000  -0.0000   0.0000  -0.0001  -0.0001   0.0000   0.0001   0.0000   0.0000  -0.0001
    96  -0.0000   0.0000  -0.0000   0.0001   0.0000  -0.0000  -0.0001   0.0000   0.0000   0.0001
    97  -0.0000   0.0000  -0.0000   0.0000   0.0000  -0.0000  -0.0000   0.0000  -0.0000   0.0000
    98   0.0000   0.0000   0.0001  -0.0000  -0.0001   0.0003   0.0000  -0.0000  -0.0000  -0.0000
    99   0.0000   0.0000  -0.0000  -0.0000   0.0000  -0.0001   0.0000  -0.0000  -0.0000  -0.0001
   100   0.0000   0.0000  -0.0000  -0.0000   0.0000  -0.0000   0.0000   0.0000  -0.0000  -0.0000
   101   0.0000   0.0000  -0.0000  -0.0000   0.0000  -0.0000   0.0000   0.0000   0.0000  -0.0000
   102  -0.0000  -0.0000   0.0001   0.0000   0.0000  -0.0000  -0.0000  -0.0000   0.0000   0.0000

 MOs :     11       12       13       14       15       16       17       18       19       20
 occup:   2.00     2.00     2.00     2.00     2.00     2.00     2.00     2.00     2.00     2.00
 CF+SFO
     1   0.0000  -0.0000   0.0000  -0.0000   0.0000  -0.0003   0.0004   0.0003   0.0009   0.0000
     2   0.0000  -0.0000  -0.0000  -0.0000   0.0000  -0.0002   0.0002   0.0002   0.0005   0.0000
     3   0.0001   0.0000  -0.0000   0.0000   0.0000   0.0018  -0.0028  -0.0027  -0.0059  -0.0000
     4  -0.0001  -0.0000   0.0000   0.0000  -0.0000   0.0016  -0.0033  -0.0022  -0.0059  -0.0000
     5  -0.0699  -0.0000   0.0000   0.0000  -0.0000  -0.0012   0.0018   0.0013   0.0023   0.0000
     6  -0.0716  -0.0000   0.0000   0.0000  -0.0000   0.0012  -0.0017  -0.0013  -0.0024  -0.0000
     7  -0.0000   0.6337  -0.0013  -0.0159   0.0000  -0.0000  -0.0000  -0.0000  -0.0000   0.0002
     8  -0.0000   0.7732  -0.0016  -0.0194   0.0001   0.0000   0.0000   0.0000   0.0000  -0.0001
     9  -0.0000  -0.0013  -0.6338   0.0001   0.0159   0.0000  -0.0000  -0.0000  -0.0000  -0.0006
    10  -0.0000  -0.0016  -0.7731   0.0002   0.0194  -0.0000   0.0000   0.0000   0.0000   0.0005
    11   0.0001   0.0000   0.0000   0.0000   0.0000  -0.8487  -0.5243   0.0099  -0.0655   0.0000
    12   0.0001   0.0000  -0.0000   0.0000   0.0000  -0.2963   0.4768  -0.8211  -0.0916   0.0000
    13  -0.0003  -0.0000  -0.0000  -0.0000  -0.0000   0.0424  -0.0489  -0.0260  -0.8216  -0.0000
    14  -0.0000  -0.0000  -0.0000   0.0000   0.0000   0.0000  -0.0000   0.0000  -0.0000   0.3562
    15  -0.0000  -0.0000   0.0000   0.0000  -0.0000  -0.0000   0.0000  -0.0000   0.0000  -0.7740
    16   0.0000   0.0000  -0.0000  -0.0000   0.0000   0.0000   0.0000   0.0000  -0.0000  -0.0502
    17  -0.0000   0.0000   0.0000  -0.0000  -0.0000  -0.0000   0.0000  -0.0000   0.0000  -0.2698
    18   0.0003   0.0000   0.0000   0.0000   0.0000  -0.0196   0.0380   0.0130   0.1445  -0.0000
    19   0.0002   0.0000   0.0000   0.0000   0.0000   0.0037   0.0014  -0.0101  -0.0248  -0.0000
    20  -0.0001  -0.0000  -0.0000  -0.0000  -0.0000   0.0070   0.0123  -0.0033   0.0076   0.0000
    21   0.0000   0.0000   0.0000  -0.0000  -0.0001   0.0000  -0.0000   0.0000   0.0000  -0.0166
    22   0.0000   0.0000  -0.0000  -0.0001   0.0000  -0.0000   0.0000  -0.0000   0.0000  -0.0004
    23   0.0003   0.0000   0.0000   0.0000   0.0000   0.0026   0.0091   0.0026   0.0203   0.0000
    24  -0.0000   0.0000   0.0000  -0.0000  -0.0000   0.0000  -0.0000   0.0000  -0.0000  -0.0019
    25   0.0000   0.0000  -0.0000  -0.0000   0.0000  -0.0000   0.0000  -0.0000  -0.0000  -0.0001
    26  -0.0000  -0.0001  -0.0000   0.0000   0.0000  -0.0000  -0.0000  -0.0000  -0.0000  -0.0060
    27   0.0000  -0.0000   0.0001   0.0000  -0.0000   0.0000  -0.0000   0.0000  -0.0000   0.0169
    28   0.0002   0.0000   0.0000  -0.0000   0.0000  -0.0041  -0.0013   0.0126   0.0116   0.0000
    29  -0.0000  -0.0000  -0.0000   0.0000  -0.0000   0.0000  -0.0000  -0.0000  -0.0000   0.0000
    30   0.0000   0.0000   0.0000  -0.0000  -0.0000  -0.0000  -0.0000  -0.0000  -0.0000  -0.0000
    31  -0.0001   0.0000   0.0000   0.0000  -0.0000   0.0057  -0.0091  -0.0048  -0.0088  -0.0000
    32  -0.0000   0.0000  -0.0000   0.0000  -0.0000  -0.0000  -0.0000   0.0000   0.0000  -0.0000
    33   0.0000   0.0000   0.0000   0.0000   0.0000   0.0000  -0.0000  -0.0000  -0.0000   0.0000
    34   0.0000   0.0001  -0.0000   0.0001  -0.0000   0.0000   0.0000   0.0000   0.0000   0.0023
    35  -0.0000   0.0000   0.0001   0.0000   0.0001  -0.0000   0.0000  -0.0000  -0.0000  -0.0079
    36   0.0001  -0.0000   0.0000  -0.0000   0.0000  -0.0034   0.0043   0.0020   0.0056   0.0000
    37  -0.0000  -0.0000  -0.0000  -0.0000  -0.0000   0.0000   0.0000   0.0000   0.0000  -0.0000
    38   0.0000  -0.0000   0.0000  -0.0000   0.0000  -0.0000  -0.0000  -0.0000  -0.0000   0.0000
    39   0.0000  -0.0000  -0.0000  -0.0001  -0.0000  -0.0000   0.0000  -0.0000  -0.0000   0.0004
    40  -0.0000  -0.0000   0.0000  -0.0000   0.0001   0.0000  -0.0000   0.0000   0.0000  -0.0010
    41   0.0000  -0.0000   0.0000   0.0000   0.0000   0.0000   0.0000   0.0000   0.0000   0.0000
    42  -0.0000   0.0000  -0.0000   0.0000  -0.0000   0.0000   0.0000  -0.0000   0.0000  -0.0000
    43  -0.0001  -0.0000  -0.0000   0.0000  -0.0000   0.0010  -0.0025   0.0001  -0.0004  -0.0000
    44   0.0000  -0.0000   0.0000   0.0000  -0.0000   0.0000   0.0000  -0.0000   0.0000  -0.0000
    45  -0.0000  -0.0000   0.0000  -0.0000   0.0000   0.0000  -0.0000   0.0000   0.0000   0.0000
    46   0.0000   0.0000  -0.0000  -0.0000   0.0000   0.0000   0.0000   0.0000  -0.0000   0.0000
    47  -0.0000   0.0000   0.0000  -0.0000  -0.0000  -0.0000   0.0000  -0.0000   0.0000  -0.0000
    48  -0.0001  -0.0000  -0.0000   0.0000  -0.0000   0.0011  -0.0022   0.0005  -0.0022   0.0000
    49  -0.0000   0.0001   0.0000  -0.0001  -0.0000  -0.0000  -0.0000  -0.0000  -0.0000   0.0004
    50  -0.0000   0.0000  -0.0001  -0.0000   0.0001   0.0000   0.0000   0.0000   0.0000  -0.0013
    51   0.0000  -0.0000  -0.0000  -0.0000   0.0000  -0.0027  -0.0019   0.0009  -0.0008   0.0000
    52  -0.0001  -0.0000   0.0000   0.0000  -0.0000   0.0006   0.0003  -0.0004  -0.0027  -0.0000
    53   0.0000   0.0002  -0.0000  -0.0000   0.0000  -0.0000   0.0000  -0.0000   0.0000   0.0008
    54  -0.0000  -0.0000  -0.0002   0.0000   0.0000   0.0000  -0.0000   0.0000  -0.0000  -0.0034
    55  -0.0001   0.0000  -0.0000   0.0000  -0.0000   0.0002  -0.0016   0.0023   0.0014   0.0000
    56  -0.0000  -0.0002   0.0000  -0.0000   0.0000  -0.0000   0.0000  -0.0000  -0.0000   0.0002
    57  -0.0000  -0.0000  -0.0002  -0.0000  -0.0000  -0.0000  -0.0000  -0.0000  -0.0000   0.0007
    58  -0.0000   0.0000  -0.0000   0.0000  -0.0000  -0.0000   0.0006  -0.0012  -0.0003   0.0000
    59   0.0000   0.0000  -0.0000  -0.0000   0.0000   0.0002   0.0001  -0.0000  -0.0001   0.0000
    60   0.0000  -0.0000   0.0000  -0.0000   0.0000   0.0001  -0.0001   0.0001  -0.0001   0.0000
    61  -0.0000  -0.0003  -0.0002   0.0000   0.0000   0.0000  -0.0000   0.0000  -0.0000   0.0001
    62   0.0000  -0.0002   0.0003   0.0000  -0.0000   0.0000   0.0000   0.0000  -0.0000  -0.0001
    63   0.0000   0.0000  -0.0000  -0.0000   0.0000   0.0000  -0.0000  -0.0000  -0.0002   0.0000
    64  -0.0000   0.0004   0.0002  -0.0000  -0.0000   0.0000   0.0000   0.0000  -0.0000   0.0000
    65  -0.0000   0.0002  -0.0004  -0.0000   0.0000   0.0000  -0.0000   0.0000  -0.0000  -0.0000
    66  -0.0000   0.0000   0.0000  -0.0000   0.0000   0.0000  -0.0000  -0.0000  -0.0001  -0.0000
    67  -0.0000  -0.0000   0.0000   0.0000  -0.0000  -0.0000   0.0000   0.0000   0.0000   0.0000
    68   0.0000  -0.0000   0.0000   0.0000   0.0000   0.0000  -0.0000  -0.0000  -0.0000  -0.0000
    69   0.0000  -0.0000  -0.0000   0.0000  -0.0000   0.0005  -0.0002   0.0004  -0.0015   0.0000
    70  -0.0022   0.0000   0.0000   0.0000   0.0000  -0.0045   0.0014  -0.0038   0.0132  -0.0000
    71   0.0646  -0.0001   0.0250  -0.0027   0.9976  -0.0002   0.0001  -0.0001   0.0004  -0.0017
    72  -0.8701  -0.0121   0.0013  -0.4818   0.0556   0.0024  -0.0009   0.0017  -0.0050   0.0001
    73  -0.4783   0.0220   0.0010   0.8759   0.0337   0.0013  -0.0005   0.0009  -0.0028  -0.0005
    74  -0.0003  -0.0000  -0.0000  -0.0000   0.0000  -0.3588   0.6863   0.6126  -0.1782  -0.0000
    75   0.0000  -0.0000  -0.0000  -0.0000  -0.0004   0.0042  -0.0016   0.0029  -0.0365   0.3607
    76  -0.0001  -0.0000  -0.0000  -0.0002  -0.0000  -0.0437   0.0171  -0.0304   0.3802   0.0627
    77  -0.0000   0.0000  -0.0000   0.0003  -0.0000  -0.0200   0.0078  -0.0139   0.1740  -0.0613
    78  -0.0002  -0.0000  -0.0000  -0.0000  -0.0000   0.0092  -0.0132  -0.0073  -0.0135   0.0000
    79   0.0001   0.0000   0.0000  -0.0002  -0.0000  -0.0065   0.0034  -0.0030   0.0264   0.0068
    80   0.0000  -0.0000  -0.0000   0.0000   0.0002  -0.0028   0.0015  -0.0013   0.0114  -0.0266
    81   0.0002  -0.0000   0.0000   0.0001  -0.0001  -0.0100   0.0053  -0.0046   0.0406   0.0031
    82   0.0001  -0.0000  -0.0000  -0.0001  -0.0001   0.0057  -0.0039   0.0005  -0.0104  -0.0096
    83   0.0002   0.0000  -0.0000   0.0001  -0.0000   0.0105  -0.0071   0.0009  -0.0190   0.0023
    84  -0.0001   0.0000   0.0000   0.0000   0.0001  -0.0049   0.0033  -0.0004   0.0089   0.0126
    85   0.0001   0.0000   0.0000   0.0000   0.0000   0.0039  -0.0026   0.0003  -0.0070   0.0048
    86  -0.0002   0.0000  -0.0000   0.0001  -0.0001  -0.0082   0.0056  -0.0007   0.0148  -0.0091
    87   0.0002  -0.0000  -0.0000  -0.0000  -0.0000   0.0035  -0.0014   0.0011  -0.0067  -0.0015
    88   0.0000  -0.0000   0.0000  -0.0000   0.0001   0.0004  -0.0002   0.0001  -0.0008   0.0044
    89   0.0000   0.0000  -0.0000   0.0001  -0.0000   0.0002  -0.0001   0.0001  -0.0004   0.0013
    90  -0.0001  -0.0000  -0.0000  -0.0000  -0.0000  -0.0008   0.0003  -0.0003   0.0016  -0.0015
    91   0.0000  -0.0000   0.0000  -0.0000   0.0000   0.0006  -0.0002   0.0002  -0.0011   0.0004
    92  -0.0000  -0.0000  -0.0000  -0.0000  -0.0001  -0.0007   0.0003  -0.0002   0.0013  -0.0025
    93   0.0000  -0.0000  -0.0000  -0.0000  -0.0000   0.0002  -0.0001   0.0001  -0.0003  -0.0007
    94  -0.0000   0.0000  -0.0000   0.0000  -0.0000  -0.0008   0.0008   0.0009  -0.0011  -0.0000
    95   0.0004  -0.0000   0.0000  -0.0004   0.0000  -0.0001   0.0004  -0.0002   0.0007  -0.0001
    96  -0.0003  -0.0000   0.0000  -0.0005   0.0001   0.0001  -0.0003   0.0002  -0.0006  -0.0000
    97  -0.0000  -0.0000  -0.0000  -0.0001  -0.0007   0.0000  -0.0000   0.0000  -0.0000  -0.0004
    98   0.0000  -0.0000   0.0000  -0.0000   0.0000  -0.0001   0.0002   0.0001   0.0002   0.0000
    99   0.0005   0.0000  -0.0000   0.0002  -0.0000  -0.0000   0.0000  -0.0000   0.0002  -0.0000
   100   0.0002  -0.0000  -0.0000  -0.0004  -0.0001  -0.0000   0.0000  -0.0000   0.0001   0.0000
   101   0.0001  -0.0000   0.0000  -0.0001   0.0004  -0.0000   0.0000  -0.0000   0.0000  -0.0001
   102  -0.0000  -0.0000  -0.0000  -0.0000  -0.0000   0.0000  -0.0000   0.0000  -0.0001   0.0000

 MOs :     21       22       23       24       25       26       27       28       29       30
 occup:   2.00     2.00     2.00     2.00     2.00     2.00     0.00     0.00     0.00     0.00
 CF+SFO
     1  -0.0000  -0.0021  -0.0000  -0.0000   0.0000   0.0000   0.0028  -0.0075   0.0012  -0.0055
     2   0.0000  -0.0011  -0.0000  -0.0000   0.0000   0.0000   0.0015  -0.0040   0.0007  -0.0030
     3  -0.0000   0.0141   0.0000   0.0000  -0.0000  -0.0000  -0.0184   0.0478  -0.0071   0.0347
     4  -0.0000   0.0143   0.0000   0.0000  -0.0000  -0.0000  -0.0188   0.0492  -0.0074   0.0358
[...]
   94    9.38545328084471E-17  2.72648047259898E-16  1.21359069034334E-15  3.54134628489011E-16
   95    2.68264281180942E-16  5.95621074773252E-16 -2.71581421021068E-16  4.28167160963609E-16
   96    6.75046454264781E-16  2.75533782632075E-16  5.12163574930820E-15  4.91111714521293E-16
   97    2.70089104477961E-16 -8.57618940035958E-16 -1.59623305970514E-16 -7.75562027700657E-17
   98   -1.51516724209257E-16  4.89844235594845E-16  2.27853980393775E-17 -2.42371450130334E-16
   99    2.81435219994273E-16  2.91042108863354E-16 -1.53961684811507E-16 -1.70803187962205E-16
  100   -4.22684131407575E-16  1.41256984696080E-16 -1.32878822996110E-16  7.81381276397192E-18
  101   -7.23113522613544E-16  3.66913629275780E-16  4.40219169253617E-17  1.88758840532285E-16
  102   -4.17417836406919E-18  2.97613496347271E-16  2.39933940771042E-16  1.17663040768989E-16

 column          89                    90                    91                    92
 row
   89    9.99999999999999E-01
   90    1.31543125657365E-16  1.00000000000000E+00
   91   -6.11765867682234E-16  6.57702766455480E-16  1.00000000000000E+00
   92   -3.50873025555213E-17 -7.58887489302241E-17  5.99503748072013E-17  1.00000000000000E+00
   93    4.13222793445874E-16 -4.25725442909361E-17 -8.53455384325315E-17  6.59721090458832E-17
   94    3.66306465471276E-16  1.29202594125908E-16 -2.67806724570747E-16 -4.42246277915074E-16
   95    6.90865800406380E-16 -1.76983722680523E-16  6.69312994123935E-17 -5.96392721788201E-17
   96    1.23317830077881E-15  2.89836145704700E-17  3.99048021121578E-16  1.25879128008458E-16
   97    5.43426324709833E-16 -5.10209643960305E-16 -3.74207816112496E-15 -3.69415175649373E-16
   98   -3.25244968401237E-17  2.76586432827275E-16 -5.67014442803869E-18 -2.33195290749822E-16
   99   -2.84280721301455E-16  2.25499599377322E-16 -2.91075275497195E-16  3.05587623331401E-16
  100   -6.19404522469956E-17 -6.43856027699138E-16 -7.69273138939538E-16 -4.70378214091970E-16
  101    1.36091840649450E-16 -2.90146186233175E-16 -1.22760617394464E-16  3.75635951050131E-18
  102    2.66103870709411E-17 -1.12323345069498E-16  2.05754467283437E-16 -1.22054059567556E-16

 column          93                    94                    95                    96
 row
   93    1.00000000000000E+00
   94    4.42588532165324E-16  9.99999999999998E-01
   95    2.08768886812636E-15  2.44528247476949E-16  9.99999999999999E-01
   96    7.06271887113948E-17 -3.36166200941550E-16  2.04069676399700E-15  9.99999999999997E-01
   97    3.04735165733689E-17 -1.68931509846569E-16  1.03690597029319E-15  8.11615376295605E-16
   98    5.62032539115254E-16 -5.49908146565948E-15  1.49649503604506E-15 -9.84266260753127E-16
   99   -6.37062552146918E-16 -6.03506739753953E-16  1.29734488465137E-15  1.49577611683108E-15
  100   -2.42475916424254E-16 -5.98071752847896E-16  1.23676222952754E-15 -1.26090923302963E-15
  101   -1.96404007712970E-16 -5.33042068871867E-16  2.57492510251150E-16  5.92274024082177E-17
  102    2.27797652702783E-16  5.23669649310499E-15 -3.07262895682392E-16  1.77592315853126E-16

 column          97                    98                    99                   100
 row
   97    1.00000000000000E+00
   98   -8.72835953107830E-17  1.00000000000004E+00
   99    4.20542435070222E-16 -1.76944335648476E-16  1.00000000000000E+00
  100    3.12244336149864E-16 -4.77187339901380E-16 -9.01819779436537E-16  1.00000000000001E+00
  101   -1.84285645310329E-15  1.59371896003857E-17  5.82198037778995E-17  2.49087492312796E-15
  102   -5.45082642217087E-17 -3.29224494888258E-14 -5.26922255827955E-17 -1.10209150833152E-16

 column         101                   102
 row
  101    1.00000000000000E+00
  102   -1.71032892709588E-16  1.00000000000003E+00


 SFO contributions (%) per orbital
 (multiplication by the orbital occupation yields the SFO Gross Populations)

 Orb.:       17     18     19     20     21     22     23     24     25     26     27     28     29     30
 occup:     2.00   2.00   2.00   2.00   2.00   2.00   2.00   2.00   2.00   2.00   0.00   0.00   0.00   0.00
 CF+SFO     ----   ----   ----   ----   ----   ----   ----   ----   ----   ----   ----   ----   ----   ----
 ------
     11:   25.72   0.04   0.20   0.00   0.00   0.15   0.00   0.00  -0.00   0.00   0.15   0.09  -0.02   0.00
     12:   24.86  64.59   0.46   0.00   0.00   0.52   0.00   0.00  -0.00   0.00   0.11  -0.21   0.02  -0.03
     13:    0.63   0.23  71.32   0.00   0.00  26.04   0.00   0.00  -0.00   0.00   1.67   0.12  -0.00  -0.15
     14:    0.00   0.00   0.00  13.05  61.62   0.00  21.52   3.73  -0.03  -0.00   0.00   0.00   0.00  -0.00
     15:    0.00   0.00   0.00  61.62  13.05   0.00   3.73  21.52  -0.00  -0.03   0.00   0.00  -0.00  -0.00
     16:    0.00   0.00  -0.00   0.28   8.00   0.00  15.92   8.89  66.69   0.00   0.00   0.00   0.00   0.00
     17:    0.00   0.00   0.00   8.00   0.28   0.00   8.89  15.92   0.00  66.69  -0.00  -0.00   0.00   0.00
     18:    0.54   0.13   2.76  -0.00  -0.00  25.35   0.00   0.00  -0.00   0.00  71.61  -0.64   0.06  -0.10
     19:    0.04  -0.20   0.01  -0.00   0.00  -0.24  -0.00  -0.00   0.00   0.00  -1.34  62.57   0.89  20.49
     20:   -0.16   0.04  -0.02  -0.00   0.00  -0.38  -0.00  -0.00  -0.00   0.00  -0.41   3.13  66.16   3.07
     23:    0.17   0.04   0.09   0.00   0.00  -0.08  -0.00  -0.00   0.00   0.00   0.34  -0.52  -0.01  35.76
     28:   -0.01   0.13   0.01   0.00  -0.00   0.18   0.00   0.00   0.00  -0.00   0.07   0.04   0.35   2.54
     74:   48.16  34.54   1.37   0.00   0.00  -0.02  -0.00  -0.00   0.00   0.00   0.68  -0.44  -0.15   0.04
     75:    0.00   0.00   0.18  16.00   0.82   0.36  15.83  33.34   0.05  32.64   0.21  -0.00  -0.00   0.01
     76:    0.06   0.42  19.41   0.48   2.56  38.99   7.46   1.46   5.61   0.30  22.42  -0.17  -0.27   0.87
     77:    0.01   0.09   4.07   0.46  13.57   8.20  26.26  14.75  27.27   0.00   4.70  -0.04  -0.06   0.18
     78:   -0.01   0.10  -0.16   0.00   0.00   0.05   0.00   0.00   0.00  -0.00  -0.61   6.71  29.53   0.21
     79:    0.00  -0.03  -0.06  -0.02  -0.21   0.17   0.07   0.02   0.26   0.00  -0.17   8.15   0.78   8.73
     80:    0.00  -0.01  -0.01  -0.29  -0.01   0.03   0.05   0.08   0.00   0.34  -0.03   1.53   0.15   1.64
     81:    0.00  -0.07  -0.14  -0.00  -0.10   0.41   0.01   0.03   0.10   0.02  -0.41  19.29   1.85  20.66
     83:    0.01   0.00   0.16   0.00   0.07  -0.00   0.00   0.00   0.04   0.00   0.43  -0.06   0.10   2.29
     86:    0.01   0.00   0.09   0.04   0.06  -0.00   0.00   0.00   0.03   0.03   0.26  -0.04   0.06   1.39


 Summation over all MOs, multiplied by occupation: Total SFO Gross Populations in this Irrep
 ===========================================================================================

     2.00    2.00    2.00    2.00    2.00    2.00    2.00    2.00    2.00    2.00    2.00    2.00
     1.97    2.00    2.00    2.00    2.00    0.58   -0.01   -0.01   -0.00   -0.00    0.00    0.00
     0.00    0.00    0.00    0.01    0.00    0.00    0.00    0.00    0.00    0.00    0.00    0.00
     0.00    0.00    0.00    0.00    0.00    0.00    0.00    0.00    0.00    0.00   -0.00    0.00
     0.00    0.00    0.00    0.00    0.00    0.00   -0.00    0.00    0.00    0.00   -0.00   -0.00
     0.00    0.00   -0.00   -0.00   -0.00   -0.00    0.00    0.00    2.00    2.00    2.00    2.00
     2.00    1.99    1.98    1.55    1.90   -0.00    0.00    0.00    0.00    0.00    0.01    0.00
     0.00    0.01    0.00    0.00    0.00    0.00    0.00    0.00    0.00    0.00    0.00    0.00
     0.00    0.00   -0.00   -0.00   -0.00    0.00



 List of all MOs, ordered by energy, with the most significant SFO gross populations
 ===================================================================================

 Each percentage contribution in the table below corresponds to the indicated SFO.
 In general, a SFO may be a linear combination of several Fragment Orbitals on the same,
 or on symmetry-related Fragments. Only the first 'member' of such a combination is
 specified here. A full definition of all SFOs is given in an earlier part of the output.
 The numbering of the SFOs in this table does NOT include the Core Orbitals, and starts
 from one for each symmetry representation, as in the SFO definition list earlier.

       E(eV)  Occ       MO           %     SFO (first member)   E(eV)  Occ   Fragment
 -------------------------------------------------------------------------------------

     -16.107  2.00    16 A         73.80%    11 A             -21.581  2.00     1 ClCl
                                   15.31%     6 A             -10.473  2.00     2 Cl
                                    9.60%    12 A             -19.891  2.00     1 ClCl
     -14.632  2.00    17 A         48.16%     6 A             -10.473  2.00     2 Cl
                                   25.72%    11 A             -21.581  2.00     1 ClCl
                                   24.86%    12 A             -19.891  2.00     1 ClCl
     -13.636  2.00    18 A         64.59%    12 A             -19.891  2.00     1 ClCl
                                   34.54%     6 A             -10.473  2.00     2 Cl
      -5.799  2.00    19 A         71.32%    13 A             -10.956  2.00     1 ClCl
                                   19.41%     8 A               0.909  2.00     2 Cl
                                    4.07%     9 A               0.909  2.00     2 Cl
                                    2.76%    18 A              -6.657  0.00     1 ClCl
                                    1.37%     6 A             -10.473  2.00     2 Cl
      -3.752  2.00    20 A         61.62%    15 A              -9.046  2.00     1 ClCl
                                   16.00%     7 A               0.909  2.00     2 Cl
                                   13.05%    14 A              -9.046  2.00     1 ClCl
                                    8.00%    17 A              -7.850  2.00     1 ClCl
      -3.751  2.00    21 A         61.62%    14 A              -9.046  2.00     1 ClCl
                                   13.57%     9 A               0.909  2.00     2 Cl
                                   13.05%    15 A              -9.046  2.00     1 ClCl
                                    8.00%    16 A              -7.850  2.00     1 ClCl
                                    2.56%     8 A               0.909  2.00     2 Cl
      -2.657  2.00    22 A         38.99%     8 A               0.909  2.00     2 Cl
                                   26.04%    13 A             -10.956  2.00     1 ClCl
                                   25.35%    18 A              -6.657  0.00     1 ClCl
                                    8.20%     9 A               0.909  2.00     2 Cl
      -2.644  2.00    23 A         26.26%     9 A               0.909  2.00     2 Cl
                                   21.52%    14 A              -9.046  2.00     1 ClCl
                                   15.92%    16 A              -7.850  2.00     1 ClCl
                                   15.83%     7 A               0.909  2.00     2 Cl
                                    8.89%    17 A              -7.850  2.00     1 ClCl
                                    7.46%     8 A               0.909  2.00     2 Cl
                                    3.73%    15 A              -9.046  2.00     1 ClCl
      -2.644  2.00    24 A         33.34%     7 A               0.909  2.00     2 Cl
                                   21.52%    15 A              -9.046  2.00     1 ClCl
                                   15.92%    17 A              -7.850  2.00     1 ClCl
                                   14.75%     9 A               0.909  2.00     2 Cl
                                    8.89%    16 A              -7.850  2.00     1 ClCl
                                    3.73%    14 A              -9.046  2.00     1 ClCl
                                    1.46%     8 A               0.909  2.00     2 Cl
      -1.919  2.00    25 A         66.69%    16 A              -7.850  2.00     1 ClCl
                                   27.27%     9 A               0.909  2.00     2 Cl
                                    5.61%     8 A               0.909  2.00     2 Cl
      -1.919  2.00    26 A         66.69%    17 A              -7.850  2.00     1 ClCl
                                   32.64%     7 A               0.909  2.00     2 Cl
       0.485  0.00    27 A         71.61%    18 A              -6.657  0.00     1 ClCl
                                   22.42%     8 A               0.909  2.00     2 Cl
                                    4.70%     9 A               0.909  2.00     2 Cl
                                    1.67%    13 A             -10.956  2.00     1 ClCl
                                   -1.34%    19 A               4.783  0.00     1 ClCl



 =======================================================================
 Electrostatic potential at the Nuclei due to electrons and other nuclei
 =======================================================================
  
         Atom                  Potential
         ----                  ---------
     1)   Cl                 64.58013502
     2)   Cl                 64.62359994
     3)   Cl                 64.62360327
 
 
 ========================
 No memory problems found
 ========================
 
 Maximum number of active allocate calls:         608
 
 *******************************************************************************

                             A D F   E X I T
 NORMAL TERMINATION



 =================
 Timing Statistics
 =================
  
 Total Used :                     CPU=        5.77      System=        0.17     Elapsed=        6.24

 Calls  Section                     ( Mean, Percentage )
 ---------------------------------------------------------------------------------------------------
     3  ><      ................      0.00    0.02             0.00    0.00             0.00    0.02
     1  INIT    ................      0.46    8.06             0.02   13.95             0.50    7.96
     1  GEOMET  ................      0.03    0.52             0.01    4.07             0.27    4.33
     1  FRAGM   ................      0.01    0.17             0.01    3.49             0.02    0.30
     1  INPUTA  ................      0.00    0.00             0.00    0.00             0.00    0.01
     1  ATDEN   ................      0.00    0.05             0.00    0.58             0.01    0.08
     1  MAINSY  ................      0.01    0.12             0.00    1.16             0.01    0.17
     1  SYMFIT  ................      0.00    0.02             0.00    0.58             0.00    0.04
     1  CORORT  ................      0.00    0.02             0.00    0.00             0.00    0.01
     1  SYMORB  ................      0.00    0.03             0.00    0.58             0.00    0.05
     1  CLSMAT  ................      0.01    0.17             0.00    0.00             0.01    0.15
     1  ORTHON  ................      0.01    0.16             0.00    0.00             0.01    0.15
     1  GENPT   ................      0.11    1.85             0.00    1.74             0.11    1.77
     1  PTBAS   ................      0.03    0.61             0.00    0.00             0.03    0.55
    17  FOCKY   ................      0.11   32.63             0.00    8.14             0.11   30.52
    17  FOCKTR  ................      0.00    0.47             0.00    1.16             0.00    0.53
    17  SDIIS   ................      0.00    1.11             0.00    1.74             0.00    1.05
     1  COREPS  ................      0.09    1.59             0.00    0.00             0.09    1.50
     1  TOTEN   ................      0.30    5.13             0.01    4.07             0.30    4.86
     1  POPAN   ................      0.00    0.07             0.00    0.00             0.01    0.13
     1  DEBYE   ................      0.00    0.02             0.00    0.58             0.00    0.03
     1  INPUTE  ................      0.00    0.00             0.00    0.00             0.00    0.02
     1  SYMORE  ................      0.00    0.02             0.00    0.00             0.00    0.02
     1  METS    ................      0.00    0.02             0.00    0.00             0.00    0.01
     1  CETS    ................      0.01    0.17             0.00    0.58             0.02    0.37
     1  POPUL   ................      2.68   46.51             0.10   56.98             2.80   44.88
     1  EXIT PROCEDURE .........      0.03    0.47             0.00    0.58             0.03    0.48


 Currently Open Files (EXIT00)
 ====================

 Unit    Access Format  Status   Type       Ident (file)
 -------------------------------------------------------
   3      SEQ    FORM   TRANSP  NORMAL      LOGFILE
                                          ( logfile )


 Buffered I/O statistics
 =======================
 Memory available:                     67108864
 Number of records fitting in memory:     16131
 Input :   1.1% of                        52595  *4k bytes
 Output:  11.4% of                         4011  *4k bytes
 Records from serial files evicted:           0
                    others evicted:           0
 Hash table lookups:     149365 with          0 conflicts (  0.00%)

 ***************************************************************************************************
 (LOGFILE)
 <May09-2019> <17:12:04>  ADF 2017  RunTime: May09-2019 17:12:04  Nodes: 1  Procs: 12
 <May09-2019> <17:12:05>  *** (NO TITLE) ***
 <May09-2019> <17:12:05>  RunType   : SINGLE POINT
 <May09-2019> <17:12:05>  Net Charge: -1 (Nuclei minus Electrons)
 <May09-2019> <17:12:05>  Symmetry  : NOSYM
 <May09-2019> <17:12:05>  >>>> FRAGM
  Coordinates
    Atom         X           Y           Z   (Angstrom)
    1.Cl       -4.925123    3.099633   -0.045733
    2.Cl       -3.775880    1.008846    0.168846
    3.Cl       -6.074378    5.190440   -0.260314
 <May09-2019> <17:12:05>  >>>> CORORT
 <May09-2019> <17:12:05>  >>>> CLSMAT
 <May09-2019> <17:12:05>  >>>> ORTHON
 <May09-2019> <17:12:05>  >>>> GENPT
 <May09-2019> <17:12:05>  Block Length= 128
 <May09-2019> <17:12:05>  >>>> PTBAS
 <May09-2019> <17:12:05>  >>>> CYCLE
 <May09-2019> <17:12:06>              |Error|         MaxErr       Wt(A-DIIS)
 <May09-2019> <17:12:06>      1      1.17063740      0.62143879
 <May09-2019> <17:12:06>      2      0.98868848      0.42945671    100.0
 <May09-2019> <17:12:06>      3      0.61904873      0.29923387    100.0
 <May09-2019> <17:12:06>      4      0.57866817      0.29085107    100.0
 <May09-2019> <17:12:06>      5      1.57419631      0.52606473    100.0
 <May09-2019> <17:12:06>      6      0.52547256      0.17483912    100.0
 <May09-2019> <17:12:06>      7      0.28159930      0.12412656    100.0
 <May09-2019> <17:12:06>      8      0.35935754      0.14662649    100.0
 <May09-2019> <17:12:06>      9      0.05120035      0.01672749     15.9
 <May09-2019> <17:12:07>     10      0.02134677      0.00946854      8.6
 <May09-2019> <17:12:07>     11      0.00216524      0.00081091      0.0
 <May09-2019> <17:12:07>     12      0.00058416      0.00028066      0.0
 <May09-2019> <17:12:07>     13      0.00006193      0.00001799      0.0
 <May09-2019> <17:12:07>     14      0.00003693      0.00001553      0.0
 <May09-2019> <17:12:07>     15      0.00001059      0.00000327      0.0
 <May09-2019> <17:12:07>     16      0.00000149      0.00000065      0.0
 <May09-2019> <17:12:07>  SCF converged
 <May09-2019> <17:12:07>     17      0.00000004      0.00000002      0.0
 <May09-2019> <17:12:07>  >>>> TOTEN
 <May09-2019> <17:12:08>  >>>> POPAN
 <May09-2019> <17:12:08>  >>>> DEBYE
 <May09-2019> <17:12:08>  >>>> AMETS
 <May09-2019> <17:12:10>   Bond Energy          -0.08708039 a.u.
 <May09-2019> <17:12:10>   Bond Energy          -2.36957807 eV
 <May09-2019> <17:12:10>   Bond Energy         -54.64       kcal/mol
 <May09-2019> <17:12:10>  >>>> POPUL
 <May09-2019> <17:12:11>  NORMAL TERMINATION
 <May09-2019> <17:12:11>  END
