
Create Cl   file=TZ2P-Cl
XC
  GGA blyp
  DISPERSION Grimme3 BJDAMP
End
End Input

 *******************************************************************************
 *                                                                             *
 *  -------------------------------------                                      *
 *   Amsterdam Density Functional  (ADF)         development version           *
 *  -------------------------------------                                      *
 *                                               r61132 2017-09-08             *
 *                                                                             *
 *                                                                             *
 *                              =================                              *
 *                              |               |                              *
 *                              |     A D F     |                              *
 *                              |               |                              *
 *                              =================                              *
 *                                                                             *
 *                                                                             *
 *   Online information and documentation:  https://www.scm.com/support/       *
 *   E-mail:  support@scm.com   info@scm.com                                   *
 *                                                                             *
 *   Scientific publications using ADF results must be properly referenced     *
 *   See the User Manuals (or the web site) for recommended citations          *
 *   The terms and conditions of the End User License Agreement apply to       *
 *   the use of ADF, https://www.scm.com/license-terms/                        *
 *                                                                             *
 **********************  x86_64_linux_intel / intelmpi  ************************
 
 Licensed to: VU/FEW (+ SARA) / ALGEMEEN / Amsterdam / THE NETHERLANDS
 SCM User ID: u7668
  
 ADF development version  RunTime: Apr18-2019 13:57:35  Nodes: 1  Procs: 1

 Temporary files are created in /local/datastore0/tcst25/186699/kid_0.g5TDdX

 Chlorine (TZ2P)



 ===========================
 A T T A C H E D   F I L E S
 ===========================
  
 CREATE - Data File:    TZ2P-Cl
                        Chlorine (TZ2P)



 ===============================
 M O D E L   P A R A M E T E R S
 ===============================
  
 DENSITY FUNCTIONAL POTENTIAL (scf)
    LDA:                               Exchange only                           == Not Default ==
    Gradient Corrections:              Becke88 LYP                             == Not Default ==

 SPIN  (restricted / unrestr.)
    Molecule:                          Restricted                               

 OTHER ASPECTS
    Relativistic Corrections:          ---                                      

    Nuclear Charge Density Model:      Point Charge Nuclei                      
    Core Treatment:                    Frozen Orbital(s)                        

    Hyperfine or Zeeman Interaction:   ---                                      

 Settings for Grimme 3 dispersion correction

      damping                        BJ
      s6                          1.000
      a1                          0.430
      s8                          2.700
      a2                          4.236

 Other (technical) parameters

      alpha                      14.000
      version                         4
 



 =====================================
 S Y M M E T R Y ,   E L E C T R O N S
 =====================================
  
 Symmetry: ATOM

 Irreducible Representations, including subspecies
 -------------------------------------------------
 S
 P:x  P:y  P:z
 D:z2  D:x2-y2  D:xy  D:xz  D:yz
 F:z3  F:z  F:xyz  F:z2x  F:z2y  F:x  F:y


 Configuration of Valence Electrons
 ==================================

          Occupation Numbers
          -------------------------------------------------
 S        3*2
 P        6 5
 D        0
 F        0
          -------------------------------------------------

 Total:   17

 Net Charge: 0 (Nuclei minus Electrons)

 Preset values for MO occupations will be applied through SCF cycle no. 1000000
 Thereafter, the program will assign electrons to MOs that are spatially
 similar to the occupied MOs in a "reference" cycle ("KeepOrbitals").
 The reference cycle is always the PREVIOUS cycle: it will evolve with
 the SCF procedure.



 ================================
 (Slater-type)  F U N C T I O N S  ***  (Basis and Fit)  ***
 ================================
  

 Atom Type    1  (Cl)
 ==============

 Valence Basis Sets:  14
 -----------------------
   1 S   20.300000
   1 S   15.250000
   2 S    6.250000
   2 S    4.450000
   2 P    8.850000
   2 P    5.050000
   3 S    3.450000
   3 S    2.300000
   3 S    1.600000
   3 P    3.350000
   3 P    2.050000
   3 P    1.200000
   3 D    2.000000
   4 F    2.000000


 BAS: List of all Elementary Cartesian Basis Functions
 =====================================================

 The numbering in the list below (to the right of the function characteristics) is referred
 to in print-outs of MO eigenvectors and Mulliken populations in the BAS representation
 (as contrasted to the SFO representation).

 Notes:
 1. The functions are characterized by a polynomial prefactor (powers of x,y,z and r) and
    an exponential decay factor alpha.
 2. Since the basis sets are specific for an atom TYPE, the individual functions occur on
    all atoms of that type.
 3. The word 'Core' in the left margin signals that it is a Core Function (CF) : not a
    degree of freedom in the valence set, but only used to ensure orthogonalization of
    the other valence basis functions on the frozen Core Orbitals.


 (power of) X  Y  Z  R     Alpha  on Atom
            ==========     =====     ==========

 Cl                                   1
                                  ---------------------------------------------------------------------------
            0  0  0  0    20.300      1
            0  0  0  0    15.250      2
            0  0  0  1     6.250      3
            0  0  0  1     4.450      4
            1  0  0  0     8.850      5
            0  1  0  0     8.850      6
            0  0  1  0     8.850      7
            1  0  0  0     5.050      8
            0  1  0  0     5.050      9
            0  0  1  0     5.050     10
            0  0  0  2     3.450     11
            0  0  0  2     2.300     12
            0  0  0  2     1.600     13
            1  0  0  1     3.350     14
            0  1  0  1     3.350     15
            0  0  1  1     3.350     16
            1  0  0  1     2.050     17
            0  1  0  1     2.050     18
            0  0  1  1     2.050     19
            1  0  0  1     1.200     20
            0  1  0  1     1.200     21
            0  0  1  1     1.200     22
            2  0  0  0     2.000     23
            1  1  0  0     2.000     24
            1  0  1  0     2.000     25
            0  2  0  0     2.000     26
            0  1  1  0     2.000     27
            0  0  2  0     2.000     28
            3  0  0  0     2.000     29
            2  1  0  0     2.000     30
            2  0  1  0     2.000     31
            1  2  0  0     2.000     32
            1  1  1  0     2.000     33
            1  0  2  0     2.000     34
            0  3  0  0     2.000     35
            0  2  1  0     2.000     36
            0  1  2  0     2.000     37
            0  0  3  0     2.000     38

 Total number of charge fitting functions (nprimf)       106
 Total number of Cartesian basis functions (naos)         38
 Total number of Cartesian core functions  (ncos)          0



 BAS: List of all Elementary Cartesian Basis Functions
 =====================================================

 The numbering in the list below (to the right of the function characteristics) is referred
 to in print-outs of MO eigenvectors and Mulliken populations in the BAS representation
 (as contrasted to the SFO representation).

 Notes:
 1. The functions are characterized by a polynomial prefactor (powers of x,y,z and r) and
    an exponential decay factor alpha.
 2. Since the basis sets are specific for an atom TYPE, the individual functions occur on
    all atoms of that type.
 3. The word 'Core' in the left margin signals that it is a Core Function (CF) : not a
    degree of freedom in the valence set, but only used to ensure orthogonalization of
    the other valence basis functions on the frozen Core Orbitals.


 (power of) X  Y  Z  R     Alpha  on Atom
            ==========     =====     ==========

 Cl                                   1
                                  ---------------------------------------------------------------------------
            0  0  0  0    20.300      1
            0  0  0  0    15.250      2
            0  0  0  1     6.250      3
            0  0  0  1     4.450      4
            1  0  0  0     8.850      5
            0  1  0  0     8.850      6
            0  0  1  0     8.850      7
            1  0  0  0     5.050      8
            0  1  0  0     5.050      9
            0  0  1  0     5.050     10
            0  0  0  2     3.450     11
            0  0  0  2     2.300     12
            0  0  0  2     1.600     13
            1  0  0  1     3.350     14
            0  1  0  1     3.350     15
            0  0  1  1     3.350     16
            1  0  0  1     2.050     17
            0  1  0  1     2.050     18
            0  0  1  1     2.050     19
            1  0  0  1     1.200     20
            0  1  0  1     1.200     21
            0  0  1  1     1.200     22
            2  0  0  0     2.000     23
            1  1  0  0     2.000     24
            1  0  1  0     2.000     25
            0  2  0  0     2.000     26
            0  1  1  0     2.000     27
            0  0  2  0     2.000     28
            3  0  0  0     2.000     29
            2  1  0  0     2.000     30
            2  0  1  0     2.000     31
            1  2  0  0     2.000     32
            1  1  1  0     2.000     33
            1  0  2  0     2.000     34
            0  3  0  0     2.000     35
            0  2  1  0     2.000     36
            0  1  2  0     2.000     37
            0  0  3  0     2.000     38
1
 ***************************************************************************************************



                                              ***********************
                                              *  T E C H N I C A L  *
                                              ***********************
  



 =============================================================
 P A R A L L E L I Z A T I O N  and  V E C T O R I Z A T I O N
 =============================================================
  
 Nr of parallel processes:                                1
 Maximum vector length in NumInt loops:                 128

 IO buffersize (Mb):                                     64.000000



 =====================
 S C F   U P D A T E S
 =====================
  
 Max. nr. of cycles:                               300
 Convergence criterion:                              0.0000000100
   secondary criterion:                              0.0000000100

 Mix parameter (when DIIS does not apply):           0.2000000000
 Special mix parameter for the first cycle:          1.0000000000
 Mixed ADIIS+DIIS will be used
    Max number of expansion vectors:                10
    Pure ADIIS when Max([F,P]) is above              0.1000000000
    Pure DIIS when Max([F,P]) is below               0.0010000000
 Automatic ElectronSmearing (in case of problematic SCF convergence) disabled



 =================
 P R E C I S I O N  ***  (General: NumInt, NeglectFunctionTails, ...)  ***
 =================
  

 NumInt:           Target precision:                12.0000000000
 -------           Initial precision:               10.0000000000
                   Min. precision (optimization):   10.0000000000

 Neglect Functions:          Basis functions:        0.1000000000E-13
 ------------------          Fit functions:          0.1000000000E-13



 ===========================
 L I N E A R   S C A L I N G
 ===========================
  

 Cut-off radii density fit:                        0.1000000000E-97
 Overlap cut-off criterion AO matrix elements:     0.1000000000E-97
 Cut-offs for Coulomb potential and fitted density:0.1000000000E-97
 Cut-off criterion for Coulomb multipole terms:    0.1000000000E-97
 Progressive Convergence parameter:                 0.000000000    
1
 ***************************************************************************************************



                                            ***************************
                                            *  C O M P U T A T I O N  *
                                            ***************************
  

 Number of elements of the density matrix on this node (used, total):       741       741



 ===========================================
 Numerical Integration : Fuzzy Cells (Becke)
 ===========================================
  
 Becke grid quality: VERYGOOD       
  
 Lebedev angular grid order:             min:  13 max:  41
 Nr. of radial points:                   min:  93 max:  93

 Total nr. of points:         93
 Nr. of blocks:                1
 Block length:                93
 Nr. of dummy points:          0


 Test of Precision of the Numerical Integration Grid
 ===================================================

 Integral of the Total Core Density:                   0.00000000000000



 ========================
 Density Fitting (zlmFit)
 ========================
  
 ZlmFit Fit Quality: VERYGOOD       
  
 Max L-expansion:                        min:   0 max:   0
 Nr. of radial interpolation points:     min: 200 max: 200



 =====
 S C F  ***  ScaSCF  ***
 =====
  

 CYCLE    1
 SCF Error: norm([F,P])=      0.000000000000, max([F,P])=      0.000000000000
 orbitals (Q,E):
 ---------------
 S :1...7            ( 2.00  -144.4893)  ( 2.00   -36.0966)  ( 2.00   -16.0338)  ( 0.00    -8.9253)
                     ( 0.00    -5.5262)  ( 0.00    -3.6296)  ( 0.00   175.9783)
 P :1...5            ( 6.00   -36.1179)  ( 5.00   -15.7666)  ( 0.00    -8.4199)  ( 0.00    -4.8064)
                     ( 0.00    -2.9092)
 D :1...1            ( 0.00    -9.3333)
 F :1...1            ( 0.00    -6.5000)

 CYCLE    2
  SDIIS (wt  0.000):  1.0000 -0.0000
 A-DIIS (wt  1.000):  0.0000  1.0000
  DIIS coefficients:  0.0000  1.0000
 SCF Error: norm([F,P])=     37.918093115371, max([F,P])=     10.754162001971
 orbitals (Q,E):
 ---------------
 S :1...4            ( 2.00   -86.3665)  ( 2.00    -3.0042)  ( 2.00     0.0879)  ( 0.00     0.9074)
 P :1...3            ( 6.00    -0.5941)  ( 5.00     0.2005)  ( 0.00     1.0624)
 D :1...1            ( 0.00     1.3908)
 F :1...1            ( 0.00     1.7118)

 CYCLE    3
  SDIIS (wt  0.000):  0.2468  0.7532
 A-DIIS (wt  1.000):  0.2184  0.7816
  DIIS coefficients:  0.2184  0.7816
 SCF Error: norm([F,P])=     20.757708249348, max([F,P])=      6.871796656039
 orbitals (Q,E):
 ---------------
 S :1...4            ( 2.00  -105.5772)  ( 2.00   -12.2185)  ( 2.00    -1.9200)  ( 0.00    -0.1982)
 P :1...3            ( 6.00   -10.2793)  ( 5.00    -1.3974)  ( 0.00    -0.0873)
 D :1...1            ( 0.00    -0.4679)
 F :1...1            ( 0.00     0.6062)

 CYCLE    4
  SDIIS (wt  0.000): -0.0788  0.1328  0.9460
 A-DIIS (wt  1.000):  0.0000  0.0000  1.0000
  DIIS coefficients:  0.0000  0.0000  1.0000
 SCF Error: norm([F,P])=      6.021405452047, max([F,P])=      2.061487593708
 orbitals (Q,E):
 ---------------
 S :1...4            ( 2.00   -97.6728)  ( 2.00    -7.4155)  ( 2.00    -0.2425)  ( 0.00     0.4293)
 P :1...3            ( 6.00    -5.1248)  ( 5.00     0.0322)  ( 0.00     0.5151)
 D :1...1            ( 0.00     0.8498)
 F :1...1            ( 0.00     1.4674)

 CYCLE    5
  SDIIS (wt  0.000): -0.0198 -0.0624  0.3895  0.6927
 A-DIIS (wt  1.000):  0.0000  0.0000  0.4691  0.5309
  DIIS coefficients:  0.0000  0.0000  0.4691  0.5309
 SCF Error: norm([F,P])=      4.122826282833, max([F,P])=      1.762338952725
 orbitals (Q,E):
 ---------------
 S :1...4            ( 2.00  -100.7640)  ( 2.00    -9.3467)  ( 2.00    -0.9097)  ( 0.00     0.1217)
 P :1...3            ( 6.00    -7.1584)  ( 5.00    -0.4570)  ( 0.00     0.1672)
 D :1...1            ( 0.00     0.2335)
 F :1...1            ( 0.00     1.0657)

 CYCLE    6
  SDIIS (wt  0.000): -0.0001 -0.0138  0.0424  0.0981  0.8734
 A-DIIS (wt  1.000):  0.0000  0.0000  0.0000  0.0000  1.0000
  DIIS coefficients:  0.0000  0.0000  0.0000  0.0000  1.0000
 SCF Error: norm([F,P])=      0.297134459880, max([F,P])=      0.111907135573
 orbitals (Q,E):
 ---------------
 S :1...4            ( 2.00  -100.6199)  ( 2.00    -9.0705)  ( 2.00    -0.6673)  ( 0.00     0.2275)
 P :1...3            ( 6.00    -6.8928)  ( 5.00    -0.2439)  ( 0.00     0.2570)
 D :1...1            ( 0.00     0.4575)
 F :1...1            ( 0.00     1.2382)

 CYCLE    7
  SDIIS (wt  0.000): -0.0002  0.0003  0.0119 -0.0199  0.3831  0.6249
 A-DIIS (wt  1.000):  0.0000  0.0000  0.0000  0.0000  0.4431  0.5569
  DIIS coefficients:  0.0000  0.0000  0.0000  0.0000  0.4431  0.5569
 SCF Error: norm([F,P])=      0.268270877863, max([F,P])=      0.112251171075
 orbitals (Q,E):
 ---------------
 S :1...4            ( 2.00  -100.8158)  ( 2.00    -9.2442)  ( 2.00    -0.7560)  ( 0.00     0.1940)
 P :1...3            ( 6.00    -7.0691)  ( 5.00    -0.3171)  ( 0.00     0.2236)
 D :1...1            ( 0.00     0.3804)
 F :1...1            ( 0.00     1.1860)

 CYCLE    8
  SDIIS (wt  0.746):  0.0001 -0.0001 -0.0028  0.0035  0.0906  0.1300  0.7787
 A-DIIS (wt  0.254):  0.0000  0.0000  0.0000  0.0000  0.0000  0.0000  1.0000
  DIIS coefficients:  0.0000 -0.0001 -0.0021  0.0026  0.0676  0.0969  0.8350
 SCF Error: norm([F,P])=      0.071559445743, max([F,P])=      0.026187079053
 orbitals (Q,E):
 ---------------
 S :1...4            ( 2.00  -100.7523)  ( 2.00    -9.2108)  ( 2.00    -0.7461)  ( 0.00     0.1973)
 P :1...3            ( 6.00    -7.0328)  ( 5.00    -0.3089)  ( 0.00     0.2267)
 D :1...1            ( 0.00     0.3881)
 F :1...1            ( 0.00     1.1908)

 CYCLE    9
  SDIIS (wt  0.957):  0.0000 -0.0000 -0.0001  0.0003  0.0037 -0.0063  0.1578  0.8445
 A-DIIS (wt  0.043):  0.0000  0.0000  0.0000  0.0000  0.0000  0.0000  0.0000  1.0000
  DIIS coefficients:  0.0000 -0.0000 -0.0001  0.0003  0.0036 -0.0060  0.1511  0.8511
 SCF Error: norm([F,P])=      0.013066268529, max([F,P])=      0.005220141314
 orbitals (Q,E):
 ---------------
 S :1...4            ( 2.00  -100.7623)  ( 2.00    -9.2169)  ( 2.00    -0.7484)  ( 0.00     0.1965)
 P :1...3            ( 6.00    -7.0393)  ( 5.00    -0.3108)  ( 0.00     0.2259)
 D :1...1            ( 0.00     0.3862)
 F :1...1            ( 0.00     1.1896)

 CYCLE   10
  SDIIS (wt  1.000):  0.0000  0.0000 -0.0000 -0.0000  0.0002  0.0011 -0.0030  0.0039  0.9977
  DIIS coefficients:  0.0000  0.0000 -0.0000 -0.0000  0.0002  0.0011 -0.0030  0.0039  0.9977
 SCF Error: norm([F,P])=      0.000485727205, max([F,P])=      0.000202934402
 orbitals (Q,E):
 ---------------
 S :1...4            ( 2.00  -100.7620)  ( 2.00    -9.2166)  ( 2.00    -0.7483)  ( 0.00     0.1965)
 P :1...3            ( 6.00    -7.0390)  ( 5.00    -0.3107)  ( 0.00     0.2259)
 D :1...1            ( 0.00     0.3863)
 F :1...1            ( 0.00     1.1896)

 CYCLE   11
  SDIIS (wt  1.000):  0.0000  0.0000  0.0000  0.0000 -0.0002 -0.0009  0.0045  0.9965
  DIIS coefficients:  0.0000  0.0000  0.0000  0.0000 -0.0002 -0.0009  0.0045  0.9965
 SCF Error: norm([F,P])=      0.000002451026, max([F,P])=      0.000000874874
 orbitals (Q,E):
 ---------------
 S :1...4            ( 2.00  -100.7620)  ( 2.00    -9.2166)  ( 2.00    -0.7483)  ( 0.00     0.1965)
 P :1...3            ( 6.00    -7.0390)  ( 5.00    -0.3107)  ( 0.00     0.2259)
 D :1...1            ( 0.00     0.3863)
 F :1...1            ( 0.00     1.1896)

 CYCLE   12
  SDIIS (wt  1.000):  0.0000  0.0000 -0.0000 -0.0000  0.0001  0.0049  0.9950
  DIIS coefficients:  0.0000  0.0000 -0.0000 -0.0000  0.0001  0.0049  0.9950
 SCF Error: norm([F,P])=      0.000000029116, max([F,P])=      0.000000011194
 orbitals (Q,E):
 ---------------
 S :1...4            ( 2.00  -100.7620)  ( 2.00    -9.2166)  ( 2.00    -0.7483)  ( 0.00     0.1965)
 P :1...3            ( 6.00    -7.0390)  ( 5.00    -0.3107)  ( 0.00     0.2259)
 D :1...1            ( 0.00     0.3863)
 F :1...1            ( 0.00     1.1896)

 CYCLE   13
  SDIIS (wt  1.000):  0.0000 -0.0004  0.0111  0.9893
  DIIS coefficients:  0.0000 -0.0004  0.0111  0.9893
 SCF Error: norm([F,P])=      0.000000001290, max([F,P])=      0.000000000495
 orbitals (Q,E):
 ---------------
 S :1...4            ( 2.00  -100.7620)  ( 2.00    -9.2166)  ( 2.00    -0.7483)  ( 0.00     0.1965)
 P :1...3            ( 6.00    -7.0390)  ( 5.00    -0.3107)  ( 0.00     0.2259)
 D :1...1            ( 0.00     0.3863)
 F :1...1            ( 0.00     1.1896)

 SCF CONVERGED

 CYCLE   14
1
 ***************************************************************************************************



                                                *******************
                                                *  R E S U L T S  *
                                                *******************
  
 *** Setting up for NEW gradients in Focky
 *** Using FIT density in Focky

 Orbital Energies, per Irrep and Spin:
 ======================================
                        Occup              E (au)              E (eV)       Diff (eV) with prev. cycle
                        -----      --------------------        ------       --------------------------
 S
               1        2.000     -0.10076196025470E+03     -2741.872               4.83E-10
               2        2.000     -0.92166234791376E+01      -250.797               4.96E-10
               3        2.000     -0.74829309878317E+00       -20.362               4.12E-10
               4        0.000      0.19650378945431E+00         5.347
               5        0.000      0.20105214794381E+01        54.709
               6        0.000      0.12737820956871E+02       346.614
               7        0.000      0.21467502602048E+03      5841.605
 P
               1        6.000     -0.70390087591571E+01      -191.541               4.92E-10
               2        5.000     -0.31074821072056E+00        -8.456               3.59E-10
               3        0.000      0.22590803353600E+00         6.147
               4        0.000      0.21023976914888E+01        57.209
               5        0.000      0.18828233069566E+02       512.342
 D
               1        0.000      0.38627333037828E+00        10.511
 F
               1        0.000      0.11896264283968E+01        32.371


 Partially Occupied:
               2 P                -0.31074821072056E+00
  
 HOMO :        3 S                -0.74829309878317E+00
 LUMO :        4 S                 0.19650378945431E+00
  


 Orbital Energies, all Irreps
 ========================================

 Irrep        no.  (spin)   Occup              E (au)                E (eV)
 ---------------------------------------------------------------------------
 S             1             2.00       -0.10076196025470E+03     -2741.8724
 S             2             2.00       -0.92166234791376E+01      -250.7971
 P             1             6.00       -0.70390087591571E+01      -191.5412
 S             3             2.00       -0.74829309878317E+00       -20.3621
 P             2             5.00       -0.31074821072056E+00        -8.4559
 S             4             0.00        0.19650378945431E+00         5.3471
 P             3             0.00        0.22590803353600E+00         6.1473
 D             1             0.00        0.38627333037828E+00        10.5110
 F             1             0.00        0.11896264283968E+01        32.3714
 S             5             0.00        0.20105214794381E+01        54.7091
 P             4             0.00        0.21023976914888E+01        57.2092
 S             6             0.00        0.12737820956871E+02       346.6137
 P             5             0.00        0.18828233069566E+02       512.3423
 S             7             0.00        0.21467502602048E+03      5841.6047


 All Electron Calculation, thus no Orbital Energies of the Core Orbitals are calculated



 =======================================
 M U L L I K E N   P O P U L A T I O N S
 =======================================
  
 The survey below gives for each atom:
 a) the total charge (Z minus electrons)
 b) the net spin polarization (nr of electrons spin-A minus spin-B)
 c) for each spin the atomic electron valence density (integrated) per L-value.

 Atom              Charge    Spin density          S         P         D         F
 ----              ------    ------------       ------    ------    ------    ------
 1 Cl              0.0000                       6.0000   11.0000    0.0000    0.0000

 Populations of individual BAS functions
 ----------------------------------------
 1 Cl           0.5041  1.4544  1.7124  0.2493  0.7286  0.7286  0.7286  1.2681  1.2681  1.2681
                0.6256  1.0927  0.3615  0.2681  0.2681  0.2681  1.0016  1.0016  1.0016  0.4002
                0.4002  0.4002  0.0000  0.0000  0.0000  0.0000  0.0000  0.0000  0.0000  0.0000
                0.0000  0.0000  0.0000  0.0000  0.0000  0.0000  0.0000  0.0000

 Gross Charges per Atom (Z minus electrons)
 ==========================================
             0.0000
 Net Total:  0.00000000



 =======================================================================
 Electrostatic potential at the Nuclei due to electrons and other nuclei
 =======================================================================
  
         Atom                  Potential
         ----                  ---------
     1)   Cl                 64.38336388
 
 
 ========================
 No memory problems found
 ========================
 
 Maximum number of active allocate calls:         447
 
 *******************************************************************************

                             A D F   E X I T
 NORMAL TERMINATION



 =================
 Timing Statistics
 =================
  
 Total Used :                     CPU=        0.63      System=        0.03     Elapsed=        0.66

 Calls  Section                     ( Mean, Percentage )
 ---------------------------------------------------------------------------------------------------
     3  ><      ................      0.00    0.16             0.00    0.00             0.00    0.12
     1  INIT    ................      0.01    1.74             0.01   48.15             0.03    3.87
     1  GEOMET  ................      0.00    0.79             0.00   11.11             0.01    1.28
     1  INPUTA  ................      0.00    0.16             0.00    0.00             0.00    0.23
     1  MAINSY  ................      0.00    0.79             0.00    3.70             0.01    0.90
     1  SYMFIT  ................      0.00    0.00             0.00    3.70             0.00    0.12
     1  CORORT  ................      0.00    0.00             0.00    0.00             0.00    0.04
     1  SYMORB  ................      0.00    0.16             0.00    0.00             0.00    0.10
     1  CLSMAT  ................      0.01    0.79             0.00    0.00             0.01    0.79
     1  ORTHON  ................      0.00    0.32             0.00    0.00             0.00    0.23
     1  GENPT   ................      0.02    3.16             0.00    0.00             0.02    2.85
     1  PTBAS   ................      0.00    0.47             0.00    0.00             0.00    0.53
    14  FOCKY   ................      0.04   78.67             0.00   18.52             0.04   75.87
    14  FOCKTR  ................      0.00    1.90             0.00    3.70             0.00    1.80
    14  SDIIS   ................      0.00    3.16             0.00    3.70             0.00    3.46
     1  COREPS  ................      0.03    4.27             0.00    0.00             0.03    4.03
     1  POPAN   ................      0.00    0.63             0.00    3.70             0.01    0.79
     1  DEBYE   ................      0.00    0.00             0.00    0.00             0.00    0.09
     1  EXIT PROCEDURE .........      0.02    2.84             0.00    3.70             0.02    2.89


 Currently Open Files (EXIT00)
 ====================

 Unit    Access Format  Status   Type       Ident (file)
 -------------------------------------------------------
   3      SEQ    FORM   TRANSP  NORMAL      LOGFILE
                                          ( logfile )


 Buffered I/O statistics
 =======================
 Memory available:                     67108864
 Number of records fitting in memory:     16131
 Input :   0.1% of                        29192  *4k bytes
 Output:  12.9% of                         1456  *4k bytes
 Records from serial files evicted:           0
                    others evicted:           0
 Hash table lookups:      75541 with          0 conflicts (  0.00%)

 ***************************************************************************************************
 (LOGFILE)
 <Apr18-2019> <13:57:35>  ADF development version  RunTime: Apr18-2019 13:57:35  Nodes: 1  Procs: 1
 <Apr18-2019> <13:57:35>  Chlorine (TZ2P)
 <Apr18-2019> <13:57:35>  RunType   : CREATE
 <Apr18-2019> <13:57:35>  Net Charge: 0 (Nuclei minus Electrons)
 <Apr18-2019> <13:57:35>  Symmetry  : ATOM
  Coordinates
    Atom         X           Y           Z   (Angstrom)
    1.Cl        0.000000    0.000000    0.000000
 <Apr18-2019> <13:57:35>  >>>> CORORT
 <Apr18-2019> <13:57:35>  >>>> CLSMAT
 <Apr18-2019> <13:57:35>  >>>> ORTHON
 <Apr18-2019> <13:57:35>  >>>> GENPT
 <Apr18-2019> <13:57:35>  Block Length=  93
 <Apr18-2019> <13:57:35>  >>>> PTBAS
 <Apr18-2019> <13:57:35>  >>>> CYCLE
 <Apr18-2019> <13:57:35>              |Error|         MaxErr       Wt(A-DIIS)
 <Apr18-2019> <13:57:35>      1      0.00000000      0.00000000
 <Apr18-2019> <13:57:35>      2     37.91809312     10.75416200    100.0
 <Apr18-2019> <13:57:35>      3     20.75770825      6.87179666    100.0
 <Apr18-2019> <13:57:35>      4      6.02140545      2.06148759    100.0
 <Apr18-2019> <13:57:35>      5      4.12282628      1.76233895    100.0
 <Apr18-2019> <13:57:35>      6      0.29713446      0.11190714    100.0
 <Apr18-2019> <13:57:35>      7      0.26827088      0.11225117    100.0
 <Apr18-2019> <13:57:35>      8      0.07155945      0.02618708     25.4
 <Apr18-2019> <13:57:35>      9      0.01306627      0.00522014      4.3
 <Apr18-2019> <13:57:35>     10      0.00048573      0.00020293      0.0
 <Apr18-2019> <13:57:35>     11      0.00000245      0.00000087      0.0
 <Apr18-2019> <13:57:35>     12      0.00000003      0.00000001      0.0
 <Apr18-2019> <13:57:35>     13      0.00000000      0.00000000      0.0
 <Apr18-2019> <13:57:36>  SCF converged
 <Apr18-2019> <13:57:36>     14      0.00000000      0.00000000      0.0
 <Apr18-2019> <13:57:36>  >>>> POPAN
 <Apr18-2019> <13:57:36>  >>>> DEBYE
 <Apr18-2019> <13:57:36>  NORMAL TERMINATION
 <Apr18-2019> <13:57:36>  END


 Parallel Execution: Process Information
 ==============================================================================
 Rank   Node Name                              NodeID   MyNodeRank  NodeMaster
    0   BAZIS-cn076                               0          0          0
    1   BAZIS-cn076                               0          1         -1
    2   BAZIS-cn076                               0          2         -1
    3   BAZIS-cn076                               0          3         -1
    4   BAZIS-cn076                               0          4         -1
    5   BAZIS-cn076                               0          5         -1
    6   BAZIS-cn076                               0          6         -1
    7   BAZIS-cn076                               0          7         -1
    8   BAZIS-cn076                               0          8         -1
    9   BAZIS-cn076                               0          9         -1
   10   BAZIS-cn076                               0         10         -1
   11   BAZIS-cn076                               0         11         -1
 ==============================================================================


May use up to 30736MB of RAM as shared memory on node 0


XC
  GGA blyp
  DISPERSION Grimme3 BJDAMP
END

ANALYTICALFREQ
END

SCF
  iterations 250
END

Geometry
  Iterations 300
  Optim Cartesian
  Convergence E=1e-4 grad=1e-4
End

SYMMETRY nosym
CHARGE -1

ZLMFIT
  Quality normal
END

BECKEGRID
  Quality good
End

ATOMS
Cl     -4.94867129       3.04098476       0.02199102
Cl     -3.76372578       1.14672480       0.05741844
Cl    -6.06298381       5.11120939      -0.21661069
END

Fragments
Cl t21.Cl
End
end input

 *******************************************************************************
 *                                                                             *
 *  -------------------------------------                                      *
 *   Amsterdam Density Functional  (ADF)         development version           *
 *  -------------------------------------                                      *
 *                                               r61132 2017-09-08             *
 *                                                                             *
 *                                                                             *
 *                              =================                              *
 *                              |               |                              *
 *                              |     A D F     |                              *
 *                              |               |                              *
 *                              =================                              *
 *                                                                             *
 *                                                                             *
 *   Online information and documentation:  https://www.scm.com/support/       *
 *   E-mail:  support@scm.com   info@scm.com                                   *
 *                                                                             *
 *   Scientific publications using ADF results must be properly referenced     *
 *   See the User Manuals (or the web site) for recommended citations          *
 *   The terms and conditions of the End User License Agreement apply to       *
 *   the use of ADF, https://www.scm.com/license-terms/                        *
 *                                                                             *
 **********************  x86_64_linux_intel / intelmpi  ************************
 
 Licensed to: VU/FEW (+ SARA) / ALGEMEEN / Amsterdam / THE NETHERLANDS
 SCM User ID: u7668
  
 ADF development version  RunTime: Apr18-2019 13:57:36  Nodes: 1  Procs: 12

 Temporary files are created in /local/datastore0/tcst25/186699/kid_0.8eFSVa


Communication costs MPI_COMM_WORLD:      2.501 usec per message,   0.0135 usec per 8-byte item
Communication costs for intra-node:      2.510 usec per message,   0.0134 usec per 8-byte item

 *** (NO TITLE) ***



 ===========================
 A T T A C H E D   F I L E S
 ===========================
  



 ===============================
 M O D E L   P A R A M E T E R S
 ===============================
  
 DENSITY FUNCTIONAL POTENTIAL (scf)
    LDA:                               Exchange only                           == Not Default ==
    Gradient Corrections:              Becke88 LYP                             == Not Default ==

 SPIN  (restricted / unrestr.)
    Molecule:                          Restricted                               
    Fragments:                         Restricted                               

 OTHER ASPECTS
    Relativistic Corrections:          ---                                      

    Nuclear Charge Density Model:      Point Charge Nuclei                      
    Core Treatment:                    Frozen Orbital(s)                        

    Hyperfine or Zeeman Interaction:   ---                                      

 Settings for Grimme 3 dispersion correction

      damping                        BJ
      s6                          1.000
      a1                          0.430
      s8                          2.700
      a2                          4.236

 Other (technical) parameters

      alpha                      14.000
      version                         4
 


 Fragment File(s)
 ----------------
 Cl:
         file : t21.Cl
         jobid: ADF development version  RunTime: Apr18-2019 13:57:35  Nodes: 1  Procs: 1
         title: Chlorine (TZ2P)



                                   *********************************************
                                   *  R U N   T Y P E : GEOMETRY OPTIMIZATION  *
                                   *********************************************
  



 ===============
 G E O M E T R Y  ***  Planar Molecule  ***
 ===============
  

 ATOMS
 =====                            X Y Z                    CHARGE
                                (Angstrom)             Nucl     +Core       At.Mass
                       --------------------------    ----------------       -------
    1  Cl             -4.9487    3.0410    0.0220     17.00     17.00       34.9689
    2  Cl             -3.7637    1.1467    0.0574     17.00     17.00       34.9689
    3  Cl             -6.0630    5.1112   -0.2166     17.00     17.00       34.9689


 FRAGMENTS
 =========                                     Atoms in this Fragment     Cart. coord.s (Angstrom)
                                               -------------------------------------------------------
    1  Cl                                                1  Cl          -4.9487    3.0410    0.0220
    2  Cl                                                2  Cl          -3.7637    1.1467    0.0574
    3  Cl                                                3  Cl          -6.0630    5.1112   -0.2166


 Interatomic Distance Matrix (Angstrom)
 --------------------------------------

   1)     0.000
   2)     2.235   0.000
   3)     2.363   4.591   0.000

 Min. Distance =    2.2346
 Max. Distance =    4.5912



 =====================================
 S Y M M E T R Y ,   E L E C T R O N S
 =====================================
  
 Symmetry: NOSYM

 Irreducible Representations, including subspecies
 -------------------------------------------------
 A


 Configuration of Valence Electrons
 ==================================
 ( determined in the SCF procedure )

 Total:   52

 Net Charge: -1 (Nuclei minus Electrons)

 Aufbau principle for MO occupations will be applied through SCF cycle no.     125
 Thereafter, the program will assign electrons to MOs that are spatially
 similar to the occupied MOs in a "reference" cycle ("KeepOrbitals").
 The reference cycle is always the PREVIOUS cycle: it will evolve with
 the SCF procedure.
1
 ***************************************************************************************************



                                      ****************************************
                                      *  B U I L D : (Fragments, Functions)  *
                                      ****************************************
  



 =======
 S F O s  ***  (Symmetrized Fragment Orbitals)  ***
 =======
  
 SFOs are linear combinations of (valence) Fragment Orbitals (FOs), such that the SFOs transform as the
 irreducible representations of the (molecular) symmetry group. Each SFO is therefore characterized by
 an irrep of the molecule and by a few (or only one) generating FOs.
 The SFOs constitute a symmetry-adapted basis for the Fock matrix. The MO eigenvector coefficients in
 this basis provide a direct interpretation of the MOs in terms of Frontier Orbital Theory.

 The SFOs are combined with auxiliary Core Functions (CFs) to ensure orthogonalization on the (frozen)
 Core Orbitals (COs). The Core-orthogonalized SFOs (CSFOs) constitute the true Fock basis.

 The FOs, and hence also the (C)SFOs are combinations of the elementary basis functions (BAS). The basis
 functions that participate in the description of the SFOs depend on the irrep. The indices of the
 involved functions are printed below for each irrep.
 (The complete list of primitive basis functions is printed in another section)

 Total nr. of (C)SFOs (summation over all irreps) :   102

 NOTE: a (C)SFO that is defined as a combination of more than one FO is usually NOT normalized.



                                       === A ===
 Nr. of SFOs :  102
 Cartesian basis functions that participate in this irrep (total number =   114) :
      1     2     3     4    11    12    13     5     8    14
     17    20     6     9    15    18    21     7    10    16
     19    22    23    24    25    26    27    28    29    30
     31    32    33    34    35    36    37    38    39    40
     41    42    49    50    51    43    46    52    55    58
     44    47    53    56    59    45    48    54    57    60
     61    62    63    64    65    66    67    68    69    70
     71    72    73    74    75    76    77    78    79    80
     87    88    89    81    84    90    93    96    82    85
     91    94    97    83    86    92    95    98    99   100
    101   102   103   104   105   106   107   108   109   110
    111   112   113   114

    SFO  (index         Fragment          Generating    Expansion in Fragment Orbitals
  indx  incl.CFs)   Occup   Orb.Energy   FragmentType  Coeff.   Orbital     on Fragment
 --------------------------------------------------------------------------------------
     1       1      2.000    -100.762 au  Cl            1.00      1 S               1
                        (   -2741.872 eV)
     2       2      2.000      -9.217 au  Cl            1.00      2 S               1
                        (    -250.797 eV)
     3       3      2.000      -0.748 au  Cl            1.00      3 S               1
                        (     -20.362 eV)
     4       4       --         0.197 au  Cl            1.00      4 S               1
                        (       5.347 eV)
     5       5       --         2.011 au  Cl            1.00      5 S               1
                        (      54.709 eV)
     6       6       --        12.738 au  Cl            1.00      6 S               1
                        (     346.614 eV)
     7       7       --       214.675 au  Cl            1.00      7 S               1
                        (    5841.605 eV)
     8       8      2.000      -7.039 au  Cl            1.00      1 P:x             1
                        (    -191.541 eV)
     9       9      1.667      -0.311 au  Cl            1.00      2 P:x             1
                        (      -8.456 eV)
    10      10       --         0.226 au  Cl            1.00      3 P:x             1
                        (       6.147 eV)
    11      11       --         2.102 au  Cl            1.00      4 P:x             1
                        (      57.209 eV)
    12      12       --        18.828 au  Cl            1.00      5 P:x             1
                        (     512.342 eV)
    13      13      2.000      -7.039 au  Cl            1.00      1 P:y             1
                        (    -191.541 eV)
    14      14      1.667      -0.311 au  Cl            1.00      2 P:y             1
                        (      -8.456 eV)
    15      15       --         0.226 au  Cl            1.00      3 P:y             1
                        (       6.147 eV)
    16      16       --         2.102 au  Cl            1.00      4 P:y             1
                        (      57.209 eV)
    17      17       --        18.828 au  Cl            1.00      5 P:y             1
                        (     512.342 eV)
    18      18      2.000      -7.039 au  Cl            1.00      1 P:z             1
                        (    -191.541 eV)
    19      19      1.667      -0.311 au  Cl            1.00      2 P:z             1
                        (      -8.456 eV)
    20      20       --         0.226 au  Cl            1.00      3 P:z             1
                        (       6.147 eV)
    21      21       --         2.102 au  Cl            1.00      4 P:z             1
                        (      57.209 eV)
    22      22       --        18.828 au  Cl            1.00      5 P:z             1
                        (     512.342 eV)
    23      23       --         0.386 au  Cl            1.00      1 D:z2            1
                        (      10.511 eV)
    24      24       --         0.386 au  Cl            1.00      1 D:x2-y2         1
                        (      10.511 eV)
    25      25       --         0.386 au  Cl            1.00      1 D:xy            1
                        (      10.511 eV)
    26      26       --         0.386 au  Cl            1.00      1 D:xz            1
                        (      10.511 eV)
    27      27       --         0.386 au  Cl            1.00      1 D:yz            1
                        (      10.511 eV)
    28      28       --         1.190 au  Cl            1.00      1 F:z3            1
                        (      32.371 eV)
    29      29       --         1.190 au  Cl            1.00      1 F:z             1
                        (      32.371 eV)
    30      30       --         1.190 au  Cl            1.00      1 F:xyz           1
                        (      32.371 eV)
    31      31       --         1.190 au  Cl            1.00      1 F:z2x           1
                        (      32.371 eV)
    32      32       --         1.190 au  Cl            1.00      1 F:z2y           1
                        (      32.371 eV)
    33      33       --         1.190 au  Cl            1.00      1 F:x             1
                        (      32.371 eV)
    34      34       --         1.190 au  Cl            1.00      1 F:y             1
                        (      32.371 eV)
    35      35      2.000    -100.762 au  Cl            1.00      1 S               2
                        (   -2741.872 eV)
    36      36      2.000      -9.217 au  Cl            1.00      2 S               2
                        (    -250.797 eV)
    37      37      2.000      -0.748 au  Cl            1.00      3 S               2
                        (     -20.362 eV)
    38      38       --         0.197 au  Cl            1.00      4 S               2
                        (       5.347 eV)
    39      39       --         2.011 au  Cl            1.00      5 S               2
                        (      54.709 eV)
    40      40       --        12.738 au  Cl            1.00      6 S               2
                        (     346.614 eV)
    41      41       --       214.675 au  Cl            1.00      7 S               2
                        (    5841.605 eV)
    42      42      2.000      -7.039 au  Cl            1.00      1 P:x             2
                        (    -191.541 eV)
    43      43      1.667      -0.311 au  Cl            1.00      2 P:x             2
                        (      -8.456 eV)
    44      44       --         0.226 au  Cl            1.00      3 P:x             2
                        (       6.147 eV)
    45      45       --         2.102 au  Cl            1.00      4 P:x             2
                        (      57.209 eV)
    46      46       --        18.828 au  Cl            1.00      5 P:x             2
                        (     512.342 eV)
    47      47      2.000      -7.039 au  Cl            1.00      1 P:y             2
                        (    -191.541 eV)
    48      48      1.667      -0.311 au  Cl            1.00      2 P:y             2
                        (      -8.456 eV)
    49      49       --         0.226 au  Cl            1.00      3 P:y             2
                        (       6.147 eV)
    50      50       --         2.102 au  Cl            1.00      4 P:y             2
                        (      57.209 eV)
    51      51       --        18.828 au  Cl            1.00      5 P:y             2
                        (     512.342 eV)
    52      52      2.000      -7.039 au  Cl            1.00      1 P:z             2
                        (    -191.541 eV)
    53      53      1.667      -0.311 au  Cl            1.00      2 P:z             2
                        (      -8.456 eV)
    54      54       --         0.226 au  Cl            1.00      3 P:z             2
                        (       6.147 eV)
    55      55       --         2.102 au  Cl            1.00      4 P:z             2
                        (      57.209 eV)
    56      56       --        18.828 au  Cl            1.00      5 P:z             2
                        (     512.342 eV)
    57      57       --         0.386 au  Cl            1.00      1 D:z2            2
                        (      10.511 eV)
    58      58       --         0.386 au  Cl            1.00      1 D:x2-y2         2
                        (      10.511 eV)
    59      59       --         0.386 au  Cl            1.00      1 D:xy            2
                        (      10.511 eV)
    60      60       --         0.386 au  Cl            1.00      1 D:xz            2
                        (      10.511 eV)
    61      61       --         0.386 au  Cl            1.00      1 D:yz            2
                        (      10.511 eV)
    62      62       --         1.190 au  Cl            1.00      1 F:z3            2
                        (      32.371 eV)
    63      63       --         1.190 au  Cl            1.00      1 F:z             2
                        (      32.371 eV)
    64      64       --         1.190 au  Cl            1.00      1 F:xyz           2
                        (      32.371 eV)
    65      65       --         1.190 au  Cl            1.00      1 F:z2x           2
                        (      32.371 eV)
    66      66       --         1.190 au  Cl            1.00      1 F:z2y           2
                        (      32.371 eV)
    67      67       --         1.190 au  Cl            1.00      1 F:x             2
                        (      32.371 eV)
    68      68       --         1.190 au  Cl            1.00      1 F:y             2
                        (      32.371 eV)
    69      69      2.000    -100.762 au  Cl            1.00      1 S               3
                        (   -2741.872 eV)
    70      70      2.000      -9.217 au  Cl            1.00      2 S               3
                        (    -250.797 eV)
    71      71      2.000      -0.748 au  Cl            1.00      3 S               3
                        (     -20.362 eV)
    72      72       --         0.197 au  Cl            1.00      4 S               3
                        (       5.347 eV)
    73      73       --         2.011 au  Cl            1.00      5 S               3
                        (      54.709 eV)
    74      74       --        12.738 au  Cl            1.00      6 S               3
                        (     346.614 eV)
    75      75       --       214.675 au  Cl            1.00      7 S               3
                        (    5841.605 eV)
    76      76      2.000      -7.039 au  Cl            1.00      1 P:x             3
                        (    -191.541 eV)
    77      77      1.667      -0.311 au  Cl            1.00      2 P:x             3
                        (      -8.456 eV)
    78      78       --         0.226 au  Cl            1.00      3 P:x             3
                        (       6.147 eV)
    79      79       --         2.102 au  Cl            1.00      4 P:x             3
                        (      57.209 eV)
    80      80       --        18.828 au  Cl            1.00      5 P:x             3
                        (     512.342 eV)
    81      81      2.000      -7.039 au  Cl            1.00      1 P:y             3
                        (    -191.541 eV)
    82      82      1.667      -0.311 au  Cl            1.00      2 P:y             3
                        (      -8.456 eV)
    83      83       --         0.226 au  Cl            1.00      3 P:y             3
                        (       6.147 eV)
    84      84       --         2.102 au  Cl            1.00      4 P:y             3
                        (      57.209 eV)
    85      85       --        18.828 au  Cl            1.00      5 P:y             3
                        (     512.342 eV)
    86      86      2.000      -7.039 au  Cl            1.00      1 P:z             3
                        (    -191.541 eV)
    87      87      1.667      -0.311 au  Cl            1.00      2 P:z             3
                        (      -8.456 eV)
    88      88       --         0.226 au  Cl            1.00      3 P:z             3
                        (       6.147 eV)
    89      89       --         2.102 au  Cl            1.00      4 P:z             3
                        (      57.209 eV)
    90      90       --        18.828 au  Cl            1.00      5 P:z             3
                        (     512.342 eV)
    91      91       --         0.386 au  Cl            1.00      1 D:z2            3
                        (      10.511 eV)
    92      92       --         0.386 au  Cl            1.00      1 D:x2-y2         3
                        (      10.511 eV)
    93      93       --         0.386 au  Cl            1.00      1 D:xy            3
                        (      10.511 eV)
    94      94       --         0.386 au  Cl            1.00      1 D:xz            3
                        (      10.511 eV)
    95      95       --         0.386 au  Cl            1.00      1 D:yz            3
                        (      10.511 eV)
    96      96       --         1.190 au  Cl            1.00      1 F:z3            3
                        (      32.371 eV)
    97      97       --         1.190 au  Cl            1.00      1 F:z             3
                        (      32.371 eV)
    98      98       --         1.190 au  Cl            1.00      1 F:xyz           3
                        (      32.371 eV)
    99      99       --         1.190 au  Cl            1.00      1 F:z2x           3
                        (      32.371 eV)
   100     100       --         1.190 au  Cl            1.00      1 F:z2y           3
                        (      32.371 eV)
   101     101       --         1.190 au  Cl            1.00      1 F:x             3
                        (      32.371 eV)
   102     102       --         1.190 au  Cl            1.00      1 F:y             3
                        (      32.371 eV)



 ================================
 (Slater-type)  F U N C T I O N S  ***  (Basis and Fit)  ***
 ================================
  

 Atom Type    1  (Cl)
 ==============

 Valence Basis Sets:  14
 -----------------------
   1 S   20.300000
   1 S   15.250000
   2 S    6.250000
   2 S    4.450000
   2 P    8.850000
   2 P    5.050000
   3 S    3.450000
   3 S    2.300000
   3 S    1.600000
   3 P    3.350000
   3 P    2.050000
   3 P    1.200000
   3 D    2.000000
   4 F    2.000000


 BAS: List of all Elementary Cartesian Basis Functions
 =====================================================

 The numbering in the list below (to the right of the function characteristics) is referred
 to in print-outs of MO eigenvectors and Mulliken populations in the BAS representation
 (as contrasted to the SFO representation).

 Notes:
 1. The functions are characterized by a polynomial prefactor (powers of x,y,z and r) and
    an exponential decay factor alpha.
 2. Since the basis sets are specific for an atom TYPE, the individual functions occur on
    all atoms of that type.
 3. The word 'Core' in the left margin signals that it is a Core Function (CF) : not a
    degree of freedom in the valence set, but only used to ensure orthogonalization of
    the other valence basis functions on the frozen Core Orbitals.


 (power of) X  Y  Z  R     Alpha  on Atom
            ==========     =====     ==========

 Cl                                   1    2    3
                                  ---------------------------------------------------------------------------
            0  0  0  0    20.300      1   39   77
            0  0  0  0    15.250      2   40   78
            0  0  0  1     6.250      3   41   79
            0  0  0  1     4.450      4   42   80
            1  0  0  0     8.850      5   43   81
            0  1  0  0     8.850      6   44   82
            0  0  1  0     8.850      7   45   83
            1  0  0  0     5.050      8   46   84
            0  1  0  0     5.050      9   47   85
            0  0  1  0     5.050     10   48   86
            0  0  0  2     3.450     11   49   87
            0  0  0  2     2.300     12   50   88
            0  0  0  2     1.600     13   51   89
            1  0  0  1     3.350     14   52   90
            0  1  0  1     3.350     15   53   91
            0  0  1  1     3.350     16   54   92
            1  0  0  1     2.050     17   55   93
            0  1  0  1     2.050     18   56   94
            0  0  1  1     2.050     19   57   95
            1  0  0  1     1.200     20   58   96
            0  1  0  1     1.200     21   59   97
            0  0  1  1     1.200     22   60   98
            2  0  0  0     2.000     23   61   99
            1  1  0  0     2.000     24   62  100
            1  0  1  0     2.000     25   63  101
            0  2  0  0     2.000     26   64  102
            0  1  1  0     2.000     27   65  103
            0  0  2  0     2.000     28   66  104
            3  0  0  0     2.000     29   67  105
            2  1  0  0     2.000     30   68  106
            2  0  1  0     2.000     31   69  107
            1  2  0  0     2.000     32   70  108
            1  1  1  0     2.000     33   71  109
            1  0  2  0     2.000     34   72  110
            0  3  0  0     2.000     35   73  111
            0  2  1  0     2.000     36   74  112
            0  1  2  0     2.000     37   75  113
            0  0  3  0     2.000     38   76  114

 Total number of charge fitting functions (nprimf)       318
 Total number of Cartesian basis functions (naos)        114
 Total number of Cartesian core functions  (ncos)          0



 Coordinates (Cartesian)
 =======================

     Atom                    bohr                                 angstrom                 Geometric Variables
                   X           Y           Z              X           Y           Z       (0:frozen, *:LT par.)
 --------------------------------------------------------------------------------------------------------------
     1 Cl     -9.351633    5.746628    0.041557      -4.948671    3.040985    0.021991      1       2       3
     2 Cl     -7.112411    2.166996    0.108505      -3.763726    1.146725    0.057418      4       5       6
     3 Cl    -11.457379    9.658786   -0.409335      -6.062984    5.111209   -0.216611      7       8       9
 --------------------------------------------------------------------------------------------------------------
1
 ***************************************************************************************************



                                              ***********************
                                              *  T E C H N I C A L  *
                                              ***********************
  



 =============================================================
 P A R A L L E L I Z A T I O N  and  V E C T O R I Z A T I O N
 =============================================================
  
 Nr of parallel processes:                               12
 Maximum vector length in NumInt loops:                 128

 IO buffersize (Mb):                                     64.000000



 ===============================
 G E O M E T R Y   U P D A T E S
 ===============================
  
 Optimization coordinates:                       Cartesian
 Optimization code branch:                       NEW
 Hessian update method:                          BFGS (Broyden-Fletcher-Goldfarb-Shanno)

 Iterative Geometry Improvements:
    Max. nr. of iterations:                        300
    Convergence criteria:
         Change in energy (hartree):                 0.0001000000
         Gradients (au/Angstrom):                    0.0001000000
         Cart/bondlength changes (Angstrom):         0.0100000000
    Max. step to take:
         Trust Radius:                               0.2000000000

 GDIIS (Geometry Direct Inversion in Iteration Space):
    First geometry cycle:                            0
    Max. number expansion vectors:                   5



 =====================
 S C F   U P D A T E S
 =====================
  
 Max. nr. of cycles:                               250
 Convergence criterion:                              0.0000010000
   secondary criterion:                              0.0010000000

 Mix parameter (when DIIS does not apply):           0.2000000000
 Mixed ADIIS+DIIS will be used
    Max number of expansion vectors:                10
    Pure ADIIS when Max([F,P]) is above              0.1000000000
    Pure DIIS when Max([F,P]) is below               0.0010000000



 =================
 P R E C I S I O N  ***  (General: NumInt, NeglectFunctionTails, ...)  ***
 =================
  

 NumInt:           Target precision:                 6.0000000000
 -------           Initial precision:                6.0000000000
                   Min. precision (optimization):    6.0000000000

 Neglect Functions:          Basis functions:        0.1000000000E-07
 ------------------          Fit functions:          0.1000000000E-07



 ===========================
 L I N E A R   S C A L I N G
 ===========================
  

 Cut-off radii density fit:                        0.1000000000E-09
 Overlap cut-off criterion AO matrix elements:     0.1000000000E-07
 Cut-offs for Coulomb potential and fitted density:0.1000000000E-09
 Cut-off criterion for Coulomb multipole terms:    0.1000000000E-09
 Progressive Convergence parameter:                 0.000000000    
1
 ***************************************************************************************************



                                            ***************************
                                            *  C O M P U T A T I O N  *
                                            ***************************
  

 Number of elements of the density matrix on this node (used, total):       741      6555



 ===========================================
 Numerical Integration : Fuzzy Cells (Becke)
 ===========================================
  
 Becke grid quality: GOOD           
  
 Lebedev angular grid order:             min:  11 max:  31
 Nr. of radial points:                   min:  80 max:  80

 Total nr. of points:      51744
 Nr. of blocks:              405
 Block length:               128
 Nr. of dummy points:         96


 Test of Precision of the Numerical Integration Grid
 ===================================================

 Integral of the Total Core Density:                   0.00000000000000



 ========================
 Density Fitting (zlmFit)
 ========================
  
 ZlmFit Fit Quality: NORMAL         
  
 Max L-expansion:                        min:   7 max:   7
 Nr. of radial interpolation points:     min:  60 max:  60



 =====
 S C F  ***  ScaSCF  ***
 =====
  
 Initial density matrix is calculated as sum of fragments

 CYCLE    1
 SCF Error: norm([F,P])=      1.574742777576, max([F,P])=      0.512369150532
 orbitals (Q,E):
 ---------------
 A :17...36          ( 2.00    -0.7663)  ( 2.00    -0.7136)  ( 2.00    -0.4260)  ( 2.00    -0.3557)
                     ( 2.00    -0.3554)  ( 2.00    -0.3197)  ( 2.00    -0.3197)  ( 2.00    -0.3052)
                     ( 2.00    -0.2821)  ( 2.00    -0.2811)  ( 0.00    -0.1619)  ( 0.00     0.1605)
                     ( 0.00     0.1688)  ( 0.00     0.1877)  ( 0.00     0.1944)  ( 0.00     0.1944)
                     ( 0.00     0.2166)  ( 0.00     0.2172)  ( 0.00     0.2541)  ( 0.00     0.2745)

 CYCLE    2
  SDIIS (wt  0.000):  0.0411  0.9589
 A-DIIS (wt  1.000):  0.4485  0.5515
  DIIS coefficients:  0.4485  0.5515
 SCF Error: norm([F,P])=      0.323630635436, max([F,P])=      0.109625509963
 orbitals (Q,E):
 ---------------
 A :17...27          ( 2.00    -0.5987)  ( 2.00    -0.5494)  ( 2.00    -0.2887)  ( 2.00    -0.2207)
                     ( 2.00    -0.2205)  ( 2.00    -0.1618)  ( 2.00    -0.1613)  ( 2.00    -0.1455)
                     ( 2.00    -0.1238)  ( 2.00    -0.1231)  ( 0.00    -0.0206)

 CYCLE    3
  SDIIS (wt  0.000):  0.0052  0.3655  0.6293
 A-DIIS (wt  1.000):  0.3371  0.2568  0.4061
  DIIS coefficients:  0.3371  0.2568  0.4061
 SCF Error: norm([F,P])=      0.208396378092, max([F,P])=      0.049372521783
 orbitals (Q,E):
 ---------------
 A :17...27          ( 2.00    -0.5973)  ( 2.00    -0.5440)  ( 2.00    -0.2701)  ( 2.00    -0.1947)
                     ( 2.00    -0.1944)  ( 2.00    -0.1545)  ( 2.00    -0.1545)  ( 2.00    -0.1457)
                     ( 2.00    -0.1161)  ( 2.00    -0.1152)  ( 0.00    -0.0050)

 CYCLE    4
  SDIIS (wt  0.464):  0.0665  0.4612  0.4723
 A-DIIS (wt  0.536):  0.0000  0.4916  0.5084
  DIIS coefficients:  0.0309  0.4775  0.4916
 SCF Error: norm([F,P])=      0.177357144130, max([F,P])=      0.054015724707
 orbitals (Q,E):
 ---------------
 A :17...27          ( 2.00    -0.5221)  ( 2.00    -0.4737)  ( 2.00    -0.2061)  ( 2.00    -0.1287)
                     ( 2.00    -0.1284)  ( 2.00    -0.0813)  ( 2.00    -0.0808)  ( 2.00    -0.0742)
                     ( 2.00    -0.0456)  ( 2.00    -0.0448)  ( 0.00     0.0589)

 CYCLE    5
  SDIIS (wt  0.879):  0.0052  0.2081  0.2942  0.4925
 A-DIIS (wt  0.121):  0.0000  0.0000  0.0720  0.9280
  DIIS coefficients:  0.0045  0.1830  0.2673  0.5452
 SCF Error: norm([F,P])=      0.056536392063, max([F,P])=      0.012980843302
 orbitals (Q,E):
 ---------------
 A :17...27          ( 2.00    -0.5242)  ( 2.00    -0.4787)  ( 2.00    -0.2109)  ( 2.00    -0.1348)
                     ( 2.00    -0.1345)  ( 2.00    -0.0824)  ( 2.00    -0.0822)  ( 2.00    -0.0764)
                     ( 2.00    -0.0510)  ( 2.00    -0.0501)  ( 0.00     0.0537)

 CYCLE    6
  SDIIS (wt  0.905):  0.0091  0.0547  0.0976  0.4042  0.4344
 A-DIIS (wt  0.095):  0.0000  0.0000  0.0000  0.3761  0.6239
  DIIS coefficients:  0.0083  0.0495  0.0884  0.4015  0.4524
 SCF Error: norm([F,P])=      0.041837767889, max([F,P])=      0.010368697136
 orbitals (Q,E):
 ---------------
 A :17...27          ( 2.00    -0.5250)  ( 2.00    -0.4784)  ( 2.00    -0.2096)  ( 2.00    -0.1329)
                     ( 2.00    -0.1326)  ( 2.00    -0.0836)  ( 2.00    -0.0833)  ( 2.00    -0.0769)
                     ( 2.00    -0.0504)  ( 2.00    -0.0495)  ( 0.00     0.0551)

 CYCLE    7
  SDIIS (wt  0.999):  0.0037  0.0135  0.0184  0.1110  0.1682  0.6850
 A-DIIS (wt  0.001):  0.0000  0.0000  0.0000  0.0000  0.0000  1.0000
  DIIS coefficients:  0.0037  0.0135  0.0184  0.1109  0.1681  0.6853
 SCF Error: norm([F,P])=      0.004101071350, max([F,P])=      0.001096630715
 orbitals (Q,E):
 ---------------
 A :17...27          ( 2.00    -0.5251)  ( 2.00    -0.4785)  ( 2.00    -0.2098)  ( 2.00    -0.1333)
                     ( 2.00    -0.1330)  ( 2.00    -0.0837)  ( 2.00    -0.0834)  ( 2.00    -0.0770)
                     ( 2.00    -0.0506)  ( 2.00    -0.0497)  ( 0.00     0.0549)

 CYCLE    8
  SDIIS (wt  1.000):  0.0008  0.0024  0.0020  0.0187  0.0387  0.3322  0.6052
  DIIS coefficients:  0.0008  0.0024  0.0020  0.0187  0.0387  0.3322  0.6052
 SCF Error: norm([F,P])=      0.001332999763, max([F,P])=      0.000437007603
 orbitals (Q,E):
 ---------------
 A :17...27          ( 2.00    -0.5251)  ( 2.00    -0.4785)  ( 2.00    -0.2098)  ( 2.00    -0.1332)
                     ( 2.00    -0.1329)  ( 2.00    -0.0837)  ( 2.00    -0.0834)  ( 2.00    -0.0769)
                     ( 2.00    -0.0506)  ( 2.00    -0.0497)  ( 0.00     0.0549)

 CYCLE    9
  SDIIS (wt  1.000):  0.0003  0.0007  0.0005  0.0064  0.0136  0.1214  0.2243  0.6328
  DIIS coefficients:  0.0003  0.0007  0.0005  0.0064  0.0136  0.1214  0.2243  0.6328
 SCF Error: norm([F,P])=      0.000126729271, max([F,P])=      0.000036206040
 orbitals (Q,E):
 ---------------
 A :17...27          ( 2.00    -0.5251)  ( 2.00    -0.4785)  ( 2.00    -0.2098)  ( 2.00    -0.1332)
                     ( 2.00    -0.1329)  ( 2.00    -0.0837)  ( 2.00    -0.0834)  ( 2.00    -0.0770)
                     ( 2.00    -0.0506)  ( 2.00    -0.0497)  ( 0.00     0.0549)

 CYCLE   10
  SDIIS (wt  1.000):  0.0001 -0.0000 -0.0001  0.0005  0.0011  0.0098  0.0165  0.3120  0.6601
  DIIS coefficients:  0.0001 -0.0000 -0.0001  0.0005  0.0011  0.0098  0.0165  0.3120  0.6601
 SCF Error: norm([F,P])=      0.000054899347, max([F,P])=      0.000015937518
 orbitals (Q,E):
 ---------------
 A :17...27          ( 2.00    -0.5251)  ( 2.00    -0.4785)  ( 2.00    -0.2098)  ( 2.00    -0.1332)
                     ( 2.00    -0.1329)  ( 2.00    -0.0837)  ( 2.00    -0.0834)  ( 2.00    -0.0770)
                     ( 2.00    -0.0506)  ( 2.00    -0.0497)  ( 0.00     0.0549)

 CYCLE   11
  SDIIS (wt  1.000):  0.0000 -0.0000  0.0000  0.0001  0.0001  0.0007  0.0014  0.0709  0.1724  0.7544
  DIIS coefficients:  0.0000 -0.0000  0.0000  0.0001  0.0001  0.0007  0.0014  0.0709  0.1724  0.7544
 SCF Error: norm([F,P])=      0.000007504609, max([F,P])=      0.000001966246
 orbitals (Q,E):
 ---------------
 A :17...27          ( 2.00    -0.5251)  ( 2.00    -0.4785)  ( 2.00    -0.2098)  ( 2.00    -0.1332)
                     ( 2.00    -0.1329)  ( 2.00    -0.0837)  ( 2.00    -0.0834)  ( 2.00    -0.0770)
                     ( 2.00    -0.0506)  ( 2.00    -0.0497)  ( 0.00     0.0549)

 CYCLE   12
  SDIIS (wt  1.000): -0.0000  0.0000  0.0000  0.0000 -0.0001 -0.0001  0.0195  0.0503  0.3331  0.5974
  DIIS coefficients: -0.0000  0.0000  0.0000  0.0000 -0.0001 -0.0001  0.0195  0.0503  0.3331  0.5974
 SCF Error: norm([F,P])=      0.000001327059, max([F,P])=      0.000000288637
 orbitals (Q,E):
 ---------------
 A :17...27          ( 2.00    -0.5251)  ( 2.00    -0.4785)  ( 2.00    -0.2098)  ( 2.00    -0.1332)
                     ( 2.00    -0.1329)  ( 2.00    -0.0837)  ( 2.00    -0.0834)  ( 2.00    -0.0770)
                     ( 2.00    -0.0506)  ( 2.00    -0.0497)  ( 0.00     0.0549)

 SCF CONVERGED

 CYCLE   13
 *** Setting up for NEW gradients in Focky
 *** Using FIT density in Focky
 *** Setting up for NEW Hessian in Focky
 orbitals (Q,E):
 ---------------
 A :17...36          ( 2.00    -0.5251)  ( 2.00    -0.4785)  ( 2.00    -0.2098)  ( 2.00    -0.1332)
                     ( 2.00    -0.1329)  ( 2.00    -0.0837)  ( 2.00    -0.0834)  ( 2.00    -0.0770)
                     ( 2.00    -0.0506)  ( 2.00    -0.0497)  ( 0.00     0.0549)  ( 0.00     0.3468)
                     ( 0.00     0.3576)  ( 0.00     0.3718)  ( 0.00     0.3847)  ( 0.00     0.3848)
                     ( 0.00     0.4133)  ( 0.00     0.4140)  ( 0.00     0.4555)  ( 0.00     0.4733)


 Fit test: (difference of exact and fit density, squared integrated, result summed over spins)
         SCF:                                          0.00022816595690

 Gross Charges per Atom (Z minus electrons)
 ==========================================
            -0.0788   -0.4215   -0.4998
 Net Total: -1.00000000



 =================================================================
 M U L T I P O L E   D E R I V E D   C H A R G E   A N A L Y S I S
 =================================================================

 See: M. Swart, P.Th. van Duijnen, J.G. Snijders, J.Comput.Chem., (2001), p. 79-88.

 --------------------------------------- 
 Multipole derived atomic charges (a.u.)
 --------------------------------------- 

        Atom    Level:     MDC-m        MDC-d        MDC-q
 ---------------------------------------------------------
     1     Cl          -0.143856    -0.202317    -0.074731
     2     Cl          -0.390506    -0.359222    -0.417404
     3     Cl          -0.465638    -0.438462    -0.507865
 *** Using NEW gradient routines ***


 Geometry CYCLE 1
 ==============

 Energy gradients wrt nuclear displacements
 ==========================================

     Atom      Cartesian (a.u./angstrom)
                 X         Y         Z
 ----------------------------------------
     1 Cl    0.008394 -0.022105  0.006424
     2 Cl   -0.020109  0.037828 -0.004639
     3 Cl    0.011715 -0.015723 -0.001785
 ----------------------------------------
 
----------------------------------------------------------------------
Geometry Convergence after Step   1       (Hartree/Angstrom,Angstrom)
----------------------------------------------------------------------
current energy                               -0.30677710 Hartree
energy change                      -0.30677710     0.00010000    F
constrained gradient max            0.03782754     0.00010000    F
constrained gradient rms            0.01777881     0.00006667    F
gradient max                        0.03782754
gradient rms                        0.01777881
cart. step max                      0.08237422     0.01000000    F
cart. step rms                      0.04895542     0.00666667    F
 


 Coordinates (Cartesian)
 =======================

     Atom                    bohr                                 angstrom                 Geometric Variables
                   X           Y           Z              X           Y           Z       (0:frozen, *:LT par.)
 --------------------------------------------------------------------------------------------------------------
     1 Cl     -9.279609    5.798340   -0.074859      -4.910558    3.068349   -0.039613      1       2       3
     2 Cl     -7.074276    2.011331    0.176944      -3.743546    1.064351    0.093635      4       5       6
     3 Cl    -11.567538    9.762739   -0.361358      -6.121277    5.166219   -0.191222      7       8       9
 --------------------------------------------------------------------------------------------------------------

 Number of elements of the density matrix on this node (used, total):       741      6555



 ===========================================
 Numerical Integration : Fuzzy Cells (Becke)
 ===========================================
  
 Becke grid quality: GOOD           
  
 Lebedev angular grid order:             min:  11 max:  31
 Nr. of radial points:                   min:  80 max:  80

 Total nr. of points:      51742
 Nr. of blocks:              405
 Block length:               128
 Nr. of dummy points:         98


 Test of Precision of the Numerical Integration Grid
 ===================================================

 Integral of the Total Core Density:                   0.00000000000000



 ========================
 Density Fitting (zlmFit)
 ========================
  
 ZlmFit Fit Quality: NORMAL         
  
 Max L-expansion:                        min:   7 max:   7
 Nr. of radial interpolation points:     min:  60 max:  60



 =====
 S C F  ***  ScaSCF  ***
 =====
  
 Initial density matrix is taken from previous geometry

 CYCLE    1
 SCF Error: norm([F,P])=      0.256508001838, max([F,P])=      0.087488764258
 orbitals (Q,E):
 ---------------
 A :17...36          ( 2.00    -0.5205)  ( 2.00    -0.4821)  ( 2.00    -0.1993)  ( 2.00    -0.1254)
                     ( 2.00    -0.1254)  ( 2.00    -0.0813)  ( 2.00    -0.0812)  ( 2.00    -0.0789)
                     ( 2.00    -0.0527)  ( 2.00    -0.0527)  ( 0.00     0.0378)  ( 0.00     0.3499)
                     ( 0.00     0.3719)  ( 0.00     0.3742)  ( 0.00     0.3861)  ( 0.00     0.3861)
                     ( 0.00     0.4124)  ( 0.00     0.4124)  ( 0.00     0.4593)  ( 0.00     0.4756)

 CYCLE    2
  SDIIS (wt  0.000):  0.0253  0.9747
 A-DIIS (wt  1.000):  0.0000  1.0000
  DIIS coefficients:  0.0000  1.0000
 SCF Error: norm([F,P])=      0.038527382761, max([F,P])=      0.009356429371
 orbitals (Q,E):
 ---------------
 A :17...27          ( 2.00    -0.5293)  ( 2.00    -0.4891)  ( 2.00    -0.2029)  ( 2.00    -0.1283)
                     ( 2.00    -0.1283)  ( 2.00    -0.0886)  ( 2.00    -0.0886)  ( 2.00    -0.0876)
                     ( 2.00    -0.0590)  ( 2.00    -0.0590)  ( 0.00     0.0333)

 CYCLE    3
  SDIIS (wt  0.000):  0.0042  0.7821  0.2137
 A-DIIS (wt  1.000):  0.0000  0.8606  0.1394
  DIIS coefficients:  0.0000  0.8606  0.1394
 SCF Error: norm([F,P])=      0.132274808027, max([F,P])=      0.032056323158
 orbitals (Q,E):
 ---------------
 A :17...27          ( 2.00    -0.5271)  ( 2.00    -0.4893)  ( 2.00    -0.2034)  ( 2.00    -0.1291)
                     ( 2.00    -0.1291)  ( 2.00    -0.0869)  ( 2.00    -0.0869)  ( 2.00    -0.0858)
                     ( 2.00    -0.0593)  ( 2.00    -0.0593)  ( 0.00     0.0328)

 CYCLE    4
  SDIIS (wt  0.000):  0.4278 -0.1060  0.6782
 A-DIIS (wt  1.000):  0.5409  0.0000  0.4591
  DIIS coefficients:  0.5409  0.0000  0.4591
 SCF Error: norm([F,P])=      0.043879396946, max([F,P])=      0.011009760044
 orbitals (Q,E):
 ---------------
 A :17...27          ( 2.00    -0.5256)  ( 2.00    -0.4881)  ( 2.00    -0.2036)  ( 2.00    -0.1298)
                     ( 2.00    -0.1298)  ( 2.00    -0.0859)  ( 2.00    -0.0859)  ( 2.00    -0.0843)
                     ( 2.00    -0.0583)  ( 2.00    -0.0583)  ( 0.00     0.0329)

 CYCLE    5
  SDIIS (wt  0.996):  0.2659  0.0020  0.2469  0.4852
 A-DIIS (wt  0.004):  0.0000  0.0000  0.0000  1.0000
  DIIS coefficients:  0.2648  0.0020  0.2459  0.4873
 SCF Error: norm([F,P])=      0.006545523527, max([F,P])=      0.001402148220
 orbitals (Q,E):
 ---------------
 A :17...27          ( 2.00    -0.5254)  ( 2.00    -0.4876)  ( 2.00    -0.2030)  ( 2.00    -0.1292)
                     ( 2.00    -0.1292)  ( 2.00    -0.0856)  ( 2.00    -0.0856)  ( 2.00    -0.0840)
                     ( 2.00    -0.0580)  ( 2.00    -0.0580)  ( 0.00     0.0335)

 CYCLE    6
  SDIIS (wt  1.000):  0.0687  0.0098  0.0318  0.2292  0.6606
  DIIS coefficients:  0.0687  0.0098  0.0318  0.2292  0.6606
 SCF Error: norm([F,P])=      0.001386119666, max([F,P])=      0.000347309198
 orbitals (Q,E):
 ---------------
 A :17...27          ( 2.00    -0.5253)  ( 2.00    -0.4876)  ( 2.00    -0.2031)  ( 2.00    -0.1293)
                     ( 2.00    -0.1293)  ( 2.00    -0.0856)  ( 2.00    -0.0856)  ( 2.00    -0.0840)
                     ( 2.00    -0.0580)  ( 2.00    -0.0580)  ( 0.00     0.0334)

 CYCLE    7
  SDIIS (wt  1.000):  0.0311  0.0053  0.0133  0.1028  0.3389  0.5086
  DIIS coefficients:  0.0311  0.0053  0.0133  0.1028  0.3389  0.5086
 SCF Error: norm([F,P])=      0.000364032776, max([F,P])=      0.000078598977
 orbitals (Q,E):
 ---------------
 A :17...27          ( 2.00    -0.5253)  ( 2.00    -0.4876)  ( 2.00    -0.2031)  ( 2.00    -0.1293)
                     ( 2.00    -0.1293)  ( 2.00    -0.0856)  ( 2.00    -0.0856)  ( 2.00    -0.0840)
                     ( 2.00    -0.0580)  ( 2.00    -0.0580)  ( 0.00     0.0334)

 CYCLE    8
  SDIIS (wt  1.000):  0.0043  0.0008  0.0027  0.0121  0.0562  0.1655  0.7584
  DIIS coefficients:  0.0043  0.0008  0.0027  0.0121  0.0562  0.1655  0.7584
 SCF Error: norm([F,P])=      0.000065845317, max([F,P])=      0.000016039657
 orbitals (Q,E):
 ---------------
 A :17...27          ( 2.00    -0.5253)  ( 2.00    -0.4876)  ( 2.00    -0.2031)  ( 2.00    -0.1293)
[...]
     7  PTBAS   ................      0.02    1.05             0.00    2.72             0.02    1.11
    66  FOCKY   ................      0.08   36.25             0.00   19.97             0.08   35.29
    66  FOCKTR  ................      0.00    0.78             0.00    7.72             0.00    1.21
    66  SDIIS   ................      0.00    0.67             0.00    6.50             0.00    1.26
     7  TOTEN   ................      0.15    7.28             0.00    3.93             0.15    7.10
     7  POPAN   ................      0.00    0.09             0.00    0.45             0.00    0.12
     7  DEBYE   ................      0.00    0.19             0.00    1.21             0.00    0.22
     7  INPUTE  ................      0.00    0.01             0.00    0.00             0.00    0.01
     7  SYMORE  ................      0.00    0.04             0.00    0.00             0.00    0.05
    13  ELNRGY  ................      0.04    3.65             0.00    1.82             0.04    3.53
     6  ENGRAD  ................      0.00    0.03             0.00    0.61             0.00    0.05
     1  COREPS  ................      0.06    0.44             0.00    0.30             0.07    0.43
     1  METS    ................      0.00    0.01             0.00    0.00             0.00    0.01
     1  CETS    ................      0.00    0.02             0.00    0.00             0.00    0.03
     1  POPUL   ................      0.01    0.05             0.00    0.00             0.01    0.05
     1  ENHESS  ................      6.11   42.39             0.24   36.91             6.39   41.93
     1  EXIT PROCEDURE .........      0.02    0.12             0.00    0.45             0.02    0.14


 Currently Open Files (EXIT00)
 ====================

 Unit    Access Format  Status   Type       Ident (file)
 -------------------------------------------------------
   3      SEQ    FORM   TRANSP  NORMAL      LOGFILE
                                          ( logfile )


 Buffered I/O statistics
 =======================
 Memory available:                     67108864
 Number of records fitting in memory:     16131
 Input :   0.2% of                       360533  *4k bytes
 Output:   9.1% of                        21105  *4k bytes
 Records from serial files evicted:           0
                    others evicted:           0
 Hash table lookups:     980067 with       2628 conflicts (  0.27%)

 ***************************************************************************************************
 (LOGFILE)
 <Apr18-2019> <13:57:35>  ADF development version  RunTime: Apr18-2019 13:57:35  Nodes: 1  Procs: 1
 <Apr18-2019> <13:57:35>  Chlorine (TZ2P)
 <Apr18-2019> <13:57:35>  RunType   : CREATE
 <Apr18-2019> <13:57:35>  Net Charge: 0 (Nuclei minus Electrons)
 <Apr18-2019> <13:57:35>  Symmetry  : ATOM
  Coordinates
    Atom         X           Y           Z   (Angstrom)
    1.Cl        0.000000    0.000000    0.000000
 <Apr18-2019> <13:57:35>  >>>> CORORT
 <Apr18-2019> <13:57:35>  >>>> CLSMAT
 <Apr18-2019> <13:57:35>  >>>> ORTHON
 <Apr18-2019> <13:57:35>  >>>> GENPT
 <Apr18-2019> <13:57:35>  Block Length=  93
 <Apr18-2019> <13:57:35>  >>>> PTBAS
 <Apr18-2019> <13:57:35>  >>>> CYCLE
 <Apr18-2019> <13:57:35>              |Error|         MaxErr       Wt(A-DIIS)
 <Apr18-2019> <13:57:35>      1      0.00000000      0.00000000
 <Apr18-2019> <13:57:35>      2     37.91809312     10.75416200    100.0
 <Apr18-2019> <13:57:35>      3     20.75770825      6.87179666    100.0
 <Apr18-2019> <13:57:35>      4      6.02140545      2.06148759    100.0
 <Apr18-2019> <13:57:35>      5      4.12282628      1.76233895    100.0
 <Apr18-2019> <13:57:35>      6      0.29713446      0.11190714    100.0
 <Apr18-2019> <13:57:35>      7      0.26827088      0.11225117    100.0
 <Apr18-2019> <13:57:35>      8      0.07155945      0.02618708     25.4
 <Apr18-2019> <13:57:35>      9      0.01306627      0.00522014      4.3
 <Apr18-2019> <13:57:35>     10      0.00048573      0.00020293      0.0
 <Apr18-2019> <13:57:35>     11      0.00000245      0.00000087      0.0
 <Apr18-2019> <13:57:35>     12      0.00000003      0.00000001      0.0
 <Apr18-2019> <13:57:35>     13      0.00000000      0.00000000      0.0
 <Apr18-2019> <13:57:36>  SCF converged
 <Apr18-2019> <13:57:36>     14      0.00000000      0.00000000      0.0
 <Apr18-2019> <13:57:36>  >>>> POPAN
 <Apr18-2019> <13:57:36>  >>>> DEBYE
 <Apr18-2019> <13:57:36>  NORMAL TERMINATION
 <Apr18-2019> <13:57:36>  END
 <Apr18-2019> <13:57:36>  ADF development version  RunTime: Apr18-2019 13:57:36  Nodes: 1  Procs: 12
 <Apr18-2019> <13:57:36>  *** (NO TITLE) ***
 <Apr18-2019> <13:57:36>  RunType   : GEOMETRY OPTIMIZATION
 <Apr18-2019> <13:57:36>  Net Charge: -1 (Nuclei minus Electrons)
 <Apr18-2019> <13:57:36>  Symmetry  : NOSYM
 <Apr18-2019> <13:57:36>  >>>> FRAGM
  Coordinates in Geometry Cycle 1
    Atom         X           Y           Z   (Angstrom)
    1.Cl       -4.948671    3.040985    0.021991
    2.Cl       -3.763726    1.146725    0.057418
    3.Cl       -6.062984    5.111209   -0.216611
 <Apr18-2019> <13:57:36>  >>>> CORORT
 <Apr18-2019> <13:57:36>  >>>> CLSMAT
 <Apr18-2019> <13:57:36>  >>>> ORTHON
 <Apr18-2019> <13:57:36>  >>>> GENPT
 <Apr18-2019> <13:57:36>  Block Length= 128
 <Apr18-2019> <13:57:36>  >>>> PTBAS
 <Apr18-2019> <13:57:36>  >>>> CYCLE
 <Apr18-2019> <13:57:37>              |Error|         MaxErr       Wt(A-DIIS)
 <Apr18-2019> <13:57:37>      1      1.57474278      0.51236915
 <Apr18-2019> <13:57:37>      2      0.32363064      0.10962551    100.0
 <Apr18-2019> <13:57:37>      3      0.20839638      0.04937252    100.0
 <Apr18-2019> <13:57:37>      4      0.17735714      0.05401572     53.6
 <Apr18-2019> <13:57:37>      5      0.05653639      0.01298084     12.1
 <Apr18-2019> <13:57:37>      6      0.04183777      0.01036870      9.5
 <Apr18-2019> <13:57:37>      7      0.00410107      0.00109663      0.1
 <Apr18-2019> <13:57:37>      8      0.00133300      0.00043701      0.0
 <Apr18-2019> <13:57:37>      9      0.00012673      0.00003621      0.0
 <Apr18-2019> <13:57:37>     10      0.00005490      0.00001594      0.0
 <Apr18-2019> <13:57:37>     11      0.00000750      0.00000197      0.0
 <Apr18-2019> <13:57:37>     12      0.00000133      0.00000029      0.0
 <Apr18-2019> <13:57:37>  SCF converged
 <Apr18-2019> <13:57:38>     13      0.00000046      0.00000010      0.0
 <Apr18-2019> <13:57:38>  >>>> TOTEN
 <Apr18-2019> <13:57:38>  >>>> POPAN
 <Apr18-2019> <13:57:38>  >>>> DEBYE
 <Apr18-2019> <13:57:38>  >>>> ENGRAD
 <Apr18-2019> <13:57:38>  current energy                               -0.30677710 Hartree
 <Apr18-2019> <13:57:38>  energy change                      -0.30677710     0.00010000    F
 <Apr18-2019> <13:57:38>  constrained gradient max            0.03782754     0.00010000    F
 <Apr18-2019> <13:57:38>  constrained gradient rms            0.01777881     0.00006667    F
 <Apr18-2019> <13:57:38>  gradient max                        0.03782754
 <Apr18-2019> <13:57:38>  gradient rms                        0.01777881
 <Apr18-2019> <13:57:38>  cart. step max                      0.08237422     0.01000000    F
 <Apr18-2019> <13:57:38>  cart. step rms                      0.04895542     0.00666667    F
  Coordinates in Geometry Cycle 2
    Atom         X           Y           Z   (Angstrom)
    1.Cl       -4.910558    3.068349   -0.039613
    2.Cl       -3.743546    1.064351    0.093635
    3.Cl       -6.121277    5.166219   -0.191222
 <Apr18-2019> <13:57:38>  >>>> CORORT
 <Apr18-2019> <13:57:38>  >>>> CLSMAT
 <Apr18-2019> <13:57:38>  >>>> ORTHON
 <Apr18-2019> <13:57:38>  >>>> GENPT
 <Apr18-2019> <13:57:38>  Block Length= 128
 <Apr18-2019> <13:57:38>  >>>> PTBAS
 <Apr18-2019> <13:57:38>  >>>> CYCLE
 <Apr18-2019> <13:57:38>              |Error|         MaxErr       Wt(A-DIIS)
 <Apr18-2019> <13:57:38>      1      0.25650800      0.08748876
 <Apr18-2019> <13:57:38>      2      0.03852738      0.00935643    100.0
 <Apr18-2019> <13:57:38>      3      0.13227481      0.03205632    100.0
 <Apr18-2019> <13:57:38>      4      0.04387940      0.01100976    100.0
 <Apr18-2019> <13:57:38>      5      0.00654552      0.00140215      0.4
 <Apr18-2019> <13:57:38>      6      0.00138612      0.00034731      0.0
 <Apr18-2019> <13:57:38>      7      0.00036403      0.00007860      0.0
 <Apr18-2019> <13:57:39>      8      0.00006585      0.00001604      0.0
 <Apr18-2019> <13:57:39>      9      0.00001489      0.00000289      0.0
 <Apr18-2019> <13:57:39>     10      0.00000339      0.00000079      0.0
 <Apr18-2019> <13:57:39>  SCF converged
 <Apr18-2019> <13:57:39>     11      0.00000071      0.00000019      0.0
 <Apr18-2019> <13:57:39>  >>>> TOTEN
 <Apr18-2019> <13:57:39>  >>>> POPAN
 <Apr18-2019> <13:57:39>  >>>> DEBYE
 <Apr18-2019> <13:57:39>  >>>> ENGRAD
 <Apr18-2019> <13:57:39>  current energy                               -0.31030237 Hartree
 <Apr18-2019> <13:57:39>  energy change                      -0.00352527     0.00010000    F
 <Apr18-2019> <13:57:39>  constrained gradient max            0.01151439     0.00010000    F
 <Apr18-2019> <13:57:39>  constrained gradient rms            0.00609737     0.00006667    F
 <Apr18-2019> <13:57:39>  gradient max                        0.01151439
 <Apr18-2019> <13:57:39>  gradient rms                        0.00609737
 <Apr18-2019> <13:57:39>  cart. step max                      0.03696334     0.01000000    F
 <Apr18-2019> <13:57:39>  cart. step rms                      0.02127297     0.00666667    F
  Coordinates in Geometry Cycle 3
    Atom         X           Y           Z   (Angstrom)
    1.Cl       -4.909905    3.082836   -0.050630
    2.Cl       -3.755878    1.031532    0.130598
    3.Cl       -6.109597    5.184551   -0.217170
 <Apr18-2019> <13:57:39>  >>>> CORORT
 <Apr18-2019> <13:57:39>  >>>> CLSMAT
 <Apr18-2019> <13:57:39>  >>>> ORTHON
 <Apr18-2019> <13:57:39>  >>>> GENPT
 <Apr18-2019> <13:57:39>  Block Length= 128
 <Apr18-2019> <13:57:39>  >>>> PTBAS
 <Apr18-2019> <13:57:39>  >>>> CYCLE
 <Apr18-2019> <13:57:39>              |Error|         MaxErr       Wt(A-DIIS)
 <Apr18-2019> <13:57:39>      1      0.07509644      0.02459229
 <Apr18-2019> <13:57:39>      2      0.03531637      0.00929396    100.0
 <Apr18-2019> <13:57:39>      3      0.14662833      0.03757484    100.0
 <Apr18-2019> <13:57:40>      4      0.05431299      0.01391942    100.0
 <Apr18-2019> <13:57:40>      5      0.00820751      0.00204139      1.1
 <Apr18-2019> <13:57:40>      6      0.00076735      0.00020164      0.0
 <Apr18-2019> <13:57:40>      7      0.00020190      0.00004773      0.0
 <Apr18-2019> <13:57:40>      8      0.00002702      0.00000660      0.0
 <Apr18-2019> <13:57:40>      9      0.00000376      0.00000081      0.0
 <Apr18-2019> <13:57:40>  SCF converged
 <Apr18-2019> <13:57:40>     10      0.00000104      0.00000020      0.0
 <Apr18-2019> <13:57:40>  >>>> TOTEN
 <Apr18-2019> <13:57:40>  >>>> POPAN
 <Apr18-2019> <13:57:40>  >>>> DEBYE
 <Apr18-2019> <13:57:40>  >>>> ENGRAD
 <Apr18-2019> <13:57:40>  current energy                               -0.31063155 Hartree
 <Apr18-2019> <13:57:40>  energy change                      -0.00032919     0.00010000    F
 <Apr18-2019> <13:57:40>  constrained gradient max            0.00623033     0.00010000    F
 <Apr18-2019> <13:57:40>  constrained gradient rms            0.00306238     0.00006667    F
 <Apr18-2019> <13:57:40>  gradient max                        0.00623033
 <Apr18-2019> <13:57:40>  gradient rms                        0.00306238
 <Apr18-2019> <13:57:40>  cart. step max                      0.04469468     0.01000000    F
 <Apr18-2019> <13:57:40>  cart. step rms                      0.02661124     0.00666667    F
  Coordinates in Geometry Cycle 4
    Atom         X           Y           Z   (Angstrom)
    1.Cl       -4.922856    3.097534   -0.046750
    2.Cl       -3.775976    1.005380    0.171413
    3.Cl       -6.076549    5.196005   -0.261864
 <Apr18-2019> <13:57:40>  >>>> CORORT
 <Apr18-2019> <13:57:40>  >>>> CLSMAT
 <Apr18-2019> <13:57:40>  >>>> ORTHON
 <Apr18-2019> <13:57:40>  >>>> GENPT
 <Apr18-2019> <13:57:40>  Block Length= 128
 <Apr18-2019> <13:57:40>  >>>> PTBAS
 <Apr18-2019> <13:57:40>  >>>> CYCLE
 <Apr18-2019> <13:57:41>              |Error|         MaxErr       Wt(A-DIIS)
 <Apr18-2019> <13:57:41>      1      0.07015412      0.01633936
 <Apr18-2019> <13:57:41>      2      0.04799481      0.01311948    100.0
 <Apr18-2019> <13:57:41>      3      0.14488749      0.03823977    100.0
 <Apr18-2019> <13:57:41>      4      0.04610663      0.01205216     11.2
 <Apr18-2019> <13:57:41>      5      0.00521064      0.00145556      0.5
 <Apr18-2019> <13:57:41>      6      0.00109690      0.00028927      0.0
 <Apr18-2019> <13:57:41>      7      0.00024592      0.00006363      0.0
 <Apr18-2019> <13:57:41>      8      0.00002393      0.00000512      0.0
 <Apr18-2019> <13:57:41>      9      0.00000419      0.00000096      0.0
 <Apr18-2019> <13:57:41>  SCF converged
 <Apr18-2019> <13:57:41>     10      0.00000085      0.00000019      0.0
 <Apr18-2019> <13:57:41>  >>>> TOTEN
 <Apr18-2019> <13:57:41>  >>>> POPAN
 <Apr18-2019> <13:57:41>  >>>> DEBYE
 <Apr18-2019> <13:57:41>  >>>> ENGRAD
 <Apr18-2019> <13:57:42>  current energy                               -0.31075528 Hartree
 <Apr18-2019> <13:57:42>  energy change                      -0.00012372     0.00010000    F
 <Apr18-2019> <13:57:42>  constrained gradient max            0.00137976     0.00010000    F
 <Apr18-2019> <13:57:42>  constrained gradient rms            0.00065926     0.00006667    F
 <Apr18-2019> <13:57:42>  gradient max                        0.00137976
 <Apr18-2019> <13:57:42>  gradient rms                        0.00065926
 <Apr18-2019> <13:57:42>  cart. step max                      0.00425522     0.01000000    T
 <Apr18-2019> <13:57:42>  cart. step rms                      0.00223380     0.00666667    T
  Coordinates in Geometry Cycle 5
    Atom         X           Y           Z   (Angstrom)
    1.Cl       -4.924883    3.099197   -0.045688
    2.Cl       -3.775889    1.007973    0.169474
    3.Cl       -6.074608    5.191750   -0.260987
 <Apr18-2019> <13:57:42>  >>>> CORORT
 <Apr18-2019> <13:57:42>  >>>> CLSMAT
 <Apr18-2019> <13:57:42>  >>>> ORTHON
 <Apr18-2019> <13:57:42>  >>>> GENPT
 <Apr18-2019> <13:57:42>  Block Length= 128
 <Apr18-2019> <13:57:42>  >>>> PTBAS
 <Apr18-2019> <13:57:42>  >>>> CYCLE
 <Apr18-2019> <13:57:42>              |Error|         MaxErr       Wt(A-DIIS)
 <Apr18-2019> <13:57:42>      1      0.01137488      0.00458786
 <Apr18-2019> <13:57:42>      2      0.00589680      0.00158987    100.0
 <Apr18-2019> <13:57:42>      3      0.00113485      0.00023520    100.0
 <Apr18-2019> <13:57:42>      4      0.00190272      0.00044079      0.0
 <Apr18-2019> <13:57:42>      5      0.00051120      0.00014506      0.0
 <Apr18-2019> <13:57:42>      6      0.00012858      0.00003610      0.0
 <Apr18-2019> <13:57:42>      7      0.00002344      0.00000583      0.0
 <Apr18-2019> <13:57:42>      8      0.00000467      0.00000117      0.0
 <Apr18-2019> <13:57:42>      9      0.00000043      0.00000010      0.0
 <Apr18-2019> <13:57:42>  SCF converged
 <Apr18-2019> <13:57:43>     10      0.00000018      0.00000005      0.0
 <Apr18-2019> <13:57:43>  >>>> TOTEN
 <Apr18-2019> <13:57:43>  >>>> POPAN
 <Apr18-2019> <13:57:43>  >>>> DEBYE
 <Apr18-2019> <13:57:43>  >>>> ENGRAD
 <Apr18-2019> <13:57:43>  current energy                               -0.31076102 Hartree
 <Apr18-2019> <13:57:43>  energy change                      -0.00000574     0.00010000    T
 <Apr18-2019> <13:57:43>  constrained gradient max            0.00033265     0.00010000    F
 <Apr18-2019> <13:57:43>  constrained gradient rms            0.00015582     0.00006667    F
 <Apr18-2019> <13:57:43>  gradient max                        0.00033265
 <Apr18-2019> <13:57:43>  gradient rms                        0.00015582
 <Apr18-2019> <13:57:43>  cart. step max                      0.00130952     0.01000000    T
 <Apr18-2019> <13:57:43>  cart. step rms                      0.00066785     0.00666667    T
  Coordinates in Geometry Cycle 6
    Atom         X           Y           Z   (Angstrom)
    1.Cl       -4.925123    3.099633   -0.045733
    2.Cl       -3.775880    1.008846    0.168846
    3.Cl       -6.074378    5.190440   -0.260314
 <Apr18-2019> <13:57:43>  >>>> CORORT
 <Apr18-2019> <13:57:43>  >>>> CLSMAT
 <Apr18-2019> <13:57:43>  >>>> ORTHON
 <Apr18-2019> <13:57:43>  >>>> GENPT
 <Apr18-2019> <13:57:43>  Block Length= 128
 <Apr18-2019> <13:57:43>  >>>> PTBAS
 <Apr18-2019> <13:57:43>  >>>> CYCLE
 <Apr18-2019> <13:57:43>              |Error|         MaxErr       Wt(A-DIIS)
 <Apr18-2019> <13:57:43>      1      0.00313341      0.00121760
 <Apr18-2019> <13:57:43>      2      0.00128774      0.00034111    100.0
 <Apr18-2019> <13:57:43>      3      0.00026370      0.00005783    100.0
 <Apr18-2019> <13:57:43>      4      0.00043103      0.00010051      0.0
 <Apr18-2019> <13:57:43>      5      0.00013137      0.00003694      0.0
 <Apr18-2019> <13:57:43>      6      0.00002809      0.00000779      0.0
 <Apr18-2019> <13:57:43>      7      0.00000643      0.00000148      0.0
 <Apr18-2019> <13:57:44>      8      0.00000124      0.00000033      0.0
 <Apr18-2019> <13:57:44>  SCF converged
 <Apr18-2019> <13:57:44>      9      0.00000012      0.00000002      0.0
 <Apr18-2019> <13:57:44>  >>>> TOTEN
 <Apr18-2019> <13:57:44>  >>>> POPAN
 <Apr18-2019> <13:57:44>  >>>> DEBYE
 <Apr18-2019> <13:57:44>  >>>> ENGRAD
 <Apr18-2019> <13:57:44>  current energy                               -0.31076099 Hartree
 <Apr18-2019> <13:57:44>  energy change                       0.00000003     0.00010000    T
 <Apr18-2019> <13:57:44>  constrained gradient max            0.00003718     0.00010000    T
 <Apr18-2019> <13:57:44>  constrained gradient rms            0.00001946     0.00006667    T
 <Apr18-2019> <13:57:44>  gradient max                        0.00003718
 <Apr18-2019> <13:57:44>  gradient rms                        0.00001946
 <Apr18-2019> <13:57:44>  cart. step max                      0.00015096     0.01000000    T
 <Apr18-2019> <13:57:44>  cart. step rms                      0.00008176     0.00666667    T
 <Apr18-2019> <13:57:44>  GEOMETRY CONVERGED
 <Apr18-2019> <13:57:44>  Calculating Energy Terms for Final Geometry
  Coordinates in Geometry Cycle 6
    Atom         X           Y           Z   (Angstrom)
    1.Cl       -4.925123    3.099633   -0.045733
    2.Cl       -3.775880    1.008846    0.168846
    3.Cl       -6.074378    5.190440   -0.260314
 <Apr18-2019> <13:57:44>  >>>> CORORT
 <Apr18-2019> <13:57:44>  >>>> CLSMAT
 <Apr18-2019> <13:57:44>  >>>> ORTHON
 <Apr18-2019> <13:57:44>  >>>> GENPT
 <Apr18-2019> <13:57:44>  Block Length= 128
 <Apr18-2019> <13:57:44>  >>>> PTBAS
 <Apr18-2019> <13:57:44>  >>>> CYCLE
 <Apr18-2019> <13:57:44>              |Error|         MaxErr       Wt(A-DIIS)
 <Apr18-2019> <13:57:44>      1      0.00000005      0.00000001
 <Apr18-2019> <13:57:44>      2      0.00000009      0.00000002    100.0
 <Apr18-2019> <13:57:44>  SCF converged
 <Apr18-2019> <13:57:44>      3      0.00000003      0.00000001    100.0
 <Apr18-2019> <13:57:44>  >>>> TOTEN
 <Apr18-2019> <13:57:45>  >>>> POPAN
 <Apr18-2019> <13:57:45>  >>>> DEBYE
 <Apr18-2019> <13:57:45>  >>>> AMETS
 <Apr18-2019> <13:57:45>  >>>> POPUL
 <Apr18-2019> <13:57:45>   Bond Energy          -0.31076099 a.u.
 <Apr18-2019> <13:57:45>   Bond Energy          -8.45623688 eV
 <Apr18-2019> <13:57:45>   Bond Energy        -195.01       kcal/mol
 <Apr18-2019> <13:57:45>  >>>> ENHESS
 <Apr18-2019> <13:57:45>  === NUCLEUS:     1
 <Apr18-2019> <13:57:47>  === NUCLEUS:     2
 <Apr18-2019> <13:57:49>  === NUCLEUS:     3
 <Apr18-2019> <13:57:51>  >>>> CALC_HESS_PMAT
 <Apr18-2019> <13:57:51>  >>>> CALC_HESS_WMAT
 <Apr18-2019> <13:57:51>  NORMAL TERMINATION
 <Apr18-2019> <13:57:51>  END
