

 Parallel Execution: Process Information
 ==============================================================================
 Rank   Node Name                              NodeID   MyNodeRank  NodeMaster
    0   BAZIS-cn023                               0          0          0
    1   BAZIS-cn023                               0          1         -1
    2   BAZIS-cn023                               0          2         -1
    3   BAZIS-cn023                               0          3         -1
    4   BAZIS-cn023                               0          4         -1
    5   BAZIS-cn023                               0          5         -1
    6   BAZIS-cn023                               0          6         -1
    7   BAZIS-cn023                               0          7         -1
    8   BAZIS-cn023                               0          8         -1
    9   BAZIS-cn023                               0          9         -1
   10   BAZIS-cn023                               0         10         -1
   11   BAZIS-cn023                               0         11         -1
 ==============================================================================


May use up to 30771MB of RAM as shared memory on node 0


XC
    GGA BP86
END

SCF
    iterations 250
END

EPRINT
    SFO Eig Ovl
END

ZLMFIT
    Quality normal
END

BECKEGRID
    Quality good
End

SYMMETRY nosym
CHARGE -1

ATOMS
1.Br       -4.925156    3.099687   -0.045735 f=BrF
2.F        -3.858520    1.365225    0.007200 f=BrF
3.F        -5.991705    4.834007   -0.098666 f=F
END

Fragments
BrF /home/tcst25/advanced_comp_chemistry/exercise2/halogen/FBrF/frag1_BrF.t21
F /home/tcst25/advanced_comp_chemistry/exercise2/halogen/FBrF/frag2_F.t21
End
end input

 *******************************************************************************
 *                                                                             *
 *  -------------------------------------                                      *
 *   Amsterdam Density Functional  (ADF)         2017                          *
 *  -------------------------------------                                      *
 *                                               r58813 2017-04-12             *
 *                                                                             *
 *                                                                             *
 *                              =================                              *
 *                              |               |                              *
 *                              |     A D F     |                              *
 *                              |               |                              *
 *                              =================                              *
 *                                                                             *
 *                                                                             *
 *   Online information and documentation:  https://www.scm.com/support/       *
 *   E-mail:  support@scm.com   info@scm.com                                   *
 *                                                                             *
 *   Scientific publications using ADF results must be properly referenced     *
 *   See the User Manuals (or the web site) for recommended citations          *
 *   The terms and conditions of the End User License Agreement apply to       *
 *   the use of ADF, https://www.scm.com/license-terms/                        *
 *                                                                             *
 **********************  x86_64_linux_intel / intelmpi  ************************
 
 Licensed to: VU/FEW (+ SARA) / ALGEMEEN / Amsterdam / THE NETHERLANDS
 SCM User ID: u7668
  
 ADF 2017  RunTime: May09-2019 17:12:12  Nodes: 1  Procs: 12

 Temporary files are created in /local/datastore0/tcst25/189785/kid_0.CUjb10


Communication costs MPI_COMM_WORLD:      3.850 usec per message,   0.0180 usec per 8-byte item
Communication costs for intra-node:      3.845 usec per message,   0.0178 usec per 8-byte item

 *** (NO TITLE) ***



 ===========================
 A T T A C H E D   F I L E S
 ===========================
  



 ===============================
 M O D E L   P A R A M E T E R S
 ===============================
  
 DENSITY FUNCTIONAL POTENTIAL (scf)
    LDA:                               VWN                                      
    Gradient Corrections:              Becke88 Perdew86                        == Not Default ==

 SPIN  (restricted / unrestr.)
    Molecule:                          Restricted                               
    Fragments:                         Restricted                               

 OTHER ASPECTS
    Relativistic Corrections:          ---                                      

    Nuclear Charge Density Model:      Point Charge Nuclei                      
    Core Treatment:                    Frozen Orbital(s)                        

    Hyperfine or Zeeman Interaction:   ---                                      


 Fragment File(s)
 ----------------
 BrF:
         file : /home/tcst25/advanced_comp_chemistry/exercise2/halogen/FBrF/frag1_BrF.t21
         jobid: ADF 2017  RunTime: May09-2019 16:32:31  Nodes: 1  Procs: 12
         title: *** (NO TITLE) ***
 F:
         file : /home/tcst25/advanced_comp_chemistry/exercise2/halogen/FBrF/frag2_F.t21
         jobid: ADF 2017  RunTime: May09-2019 16:32:30  Nodes: 1  Procs: 12
         title: *** (NO TITLE) ***



                                        ************************************
                                        *  R U N   T Y P E : SINGLE POINT  *
                                        ************************************
  



 ===============
 G E O M E T R Y  ***  Linear Molecule  ***
 ===============
  

 ATOMS
 =====                            X Y Z                    CHARGE
                                (Angstrom)             Nucl     +Core       At.Mass
                       --------------------------    ----------------       -------
    1  Br             -4.9252    3.0997   -0.0457     35.00     35.00       78.9183
    2  F              -3.8585    1.3652    0.0072      9.00      9.00       18.9984
    3  F              -5.9917    4.8340   -0.0987      9.00      9.00       18.9984


 FRAGMENTS
 =========                                     Atoms in this Fragment     Cart. coord.s (Angstrom)
                                               -------------------------------------------------------
    1  BrF                                               1  Br          -4.9252    3.0997   -0.0457
                                                         2  F           -3.8585    1.3652    0.0072
    2  F                                                 3  F           -5.9917    4.8340   -0.0987


 Interatomic Distance Matrix (Angstrom)
 --------------------------------------

   1)     0.000
   2)     2.037   0.000
   3)     2.037   4.074   0.000

 Min. Distance =    2.0367
 Max. Distance =    4.0736



 =====================================
 S Y M M E T R Y ,   E L E C T R O N S
 =====================================
  
 Symmetry: NOSYM

 Irreducible Representations, including subspecies
 -------------------------------------------------
 A


 Configuration of Valence Electrons
 ==================================
 ( determined in the SCF procedure )

 Total:   54

 Net Charge: -1 (Nuclei minus Electrons)

 Aufbau principle for MO occupations will be applied through SCF cycle no.     125
 Thereafter, the program will assign electrons to MOs that are spatially
 similar to the occupied MOs in a "reference" cycle ("KeepOrbitals").
 The reference cycle is always the PREVIOUS cycle: it will evolve with
 the SCF procedure.
1
 ***************************************************************************************************



                                      ****************************************
                                      *  B U I L D : (Fragments, Functions)  *
                                      ****************************************
  

 The individual fragments are copies of the corresponding 'Master' fragments defined on the fragment files.
 However, they may have been rotated (and translated) with respect to the Master. The local coordinate axes
 of each fragment (which define for instance the spatial orientation in the current molecule of a fragment
 P:x orbital) are not necessarily those of the molecule.
 The local frame (if different from the molecular one) is printed to enable an interpretation of the expan-
 sion of an MO in Fragment Orbitals.



                                             *************************
                                             *  Fragment Type : BrF  *
                                             *************************
  

 Fragment no.    1   (in the list of all fragments)
 -----------------
 The local coordinate frame is identical to the molecular frame.

 Check Atomic Coordinates:

                  Master (on file)          After Computed Tranformation               As specified on Input
           ----------------------------     ----------------------------     ---------------------------------
     1)    -4.92516   3.09969  -0.04573     -4.92516   3.09969  -0.04574       1  -4.92516   3.09969  -0.04574
     2)    -3.85852   1.36523   0.00720     -3.85852   1.36522   0.00720       2  -3.85852   1.36522   0.00720



                                              ***********************
                                              *  Fragment Type : F  *
                                              ***********************
  

 Fragment no.    2   (in the list of all fragments)
 -----------------
 The local coordinate frame is identical to the molecular frame.

 Check Atomic Coordinates:

                  Master (on file)          After Computed Tranformation               As specified on Input
           ----------------------------     ----------------------------     ---------------------------------
     1)    -5.99170   4.83401  -0.09867     -5.99170   4.83401  -0.09867       3  -5.99170   4.83401  -0.09867



 =======
 S F O s  ***  (Symmetrized Fragment Orbitals)  ***
 =======
  
 SFOs are linear combinations of (valence) Fragment Orbitals (FOs), such that the SFOs transform as the
 irreducible representations of the (molecular) symmetry group. Each SFO is therefore characterized by
 an irrep of the molecule and by a few (or only one) generating FOs.
 The SFOs constitute a symmetry-adapted basis for the Fock matrix. The MO eigenvector coefficients in
 this basis provide a direct interpretation of the MOs in terms of Frontier Orbital Theory.

 The SFOs are combined with auxiliary Core Functions (CFs) to ensure orthogonalization on the (frozen)
 Core Orbitals (COs). The Core-orthogonalized SFOs (CSFOs) constitute the true Fock basis.

 The FOs, and hence also the (C)SFOs are combinations of the elementary basis functions (BAS). The basis
 functions that participate in the description of the SFOs depend on the irrep. The indices of the
 involved functions are printed below for each irrep.
 (The complete list of primitive basis functions is printed in another section)

 Total nr. of (C)SFOs (summation over all irreps) :   108

 NOTE: a (C)SFO that is defined as a combination of more than one FO is usually NOT normalized.



                                       === A ===
 Nr. of SFOs :  108
 Cartesian basis functions that participate in this irrep (total number =   123) :
      1     2     3    10    11    36    37    38     4     7
     12    15    39    42    45     5     8    13    16    40
     43    46     6     9    14    17    41    44    47    18
     24    30    48    19    25    31    49    20    26    32
     50    21    27    33    51    22    28    34    52    23
     29    35    53    54    55    56    57    58    59    60
     61    62    63    64    65    66    67    68    69    72
     75    70    73    76    71    74    77    78    79    80
     81    82    83    84    85    86    87    88    89    90
     91    92    93    94    95    96    97    98    99   102
    105   100   103   106   101   104   107   108   109   110
    111   112   113   114   115   116   117   118   119   120
    121   122   123

    SFO  (index         Fragment          Generating    Expansion in Fragment Orbitals
  indx  incl.CFs)   Occup   Orb.Energy   FragmentType  Coeff.   Orbital     on Fragment
 --------------------------------------------------------------------------------------
     1       1      2.000    -481.078 au  BrF           1.00      1 A               1
                        (  -13090.800 eV)
     2       2      2.000     -61.832 au  BrF           1.00      2 A               1
                        (   -1682.541 eV)
     3       3      2.000     -55.768 au  BrF           1.00      3 A               1
                        (   -1517.528 eV)
     4       4      2.000     -55.759 au  BrF           1.00      4 A               1
                        (   -1517.287 eV)
     5       5      2.000     -55.759 au  BrF           1.00      5 A               1
                        (   -1517.287 eV)
     6       6      2.000     -24.311 au  BrF           1.00      6 A               1
                        (    -661.531 eV)
     7       7      2.000      -8.452 au  BrF           1.00      7 A               1
                        (    -229.983 eV)
     8       8      2.000      -6.368 au  BrF           1.00      8 A               1
                        (    -173.286 eV)
     9       9      2.000      -6.343 au  BrF           1.00      9 A               1
                        (    -172.596 eV)
    10      10      2.000      -6.343 au  BrF           1.00     10 A               1
                        (    -172.596 eV)
    11      11      2.000      -2.571 au  BrF           1.00     11 A               1
                        (     -69.958 eV)
    12      12      2.000      -2.565 au  BrF           1.00     12 A               1
                        (     -69.794 eV)
    13      13      2.000      -2.565 au  BrF           1.00     13 A               1
                        (     -69.794 eV)
    14      14      2.000      -2.546 au  BrF           1.00     14 A               1
                        (     -69.293 eV)
    15      15      2.000      -2.546 au  BrF           1.00     15 A               1
                        (     -69.293 eV)
    16      16      2.000      -1.056 au  BrF           1.00     16 A               1
                        (     -28.726 eV)
    17      17      2.000      -0.740 au  BrF           1.00     17 A               1
                        (     -20.135 eV)
    18      18      2.000      -0.436 au  BrF           1.00     18 A               1
                        (     -11.857 eV)
    19      19      2.000      -0.367 au  BrF           1.00     19 A               1
                        (      -9.993 eV)
    20      20      2.000      -0.367 au  BrF           1.00     20 A               1
                        (      -9.993 eV)
    21      21      2.000      -0.291 au  BrF           1.00     21 A               1
                        (      -7.910 eV)
    22      22      2.000      -0.291 au  BrF           1.00     22 A               1
                        (      -7.910 eV)
    23      23       --        -0.238 au  BrF           1.00     23 A               1
                        (      -6.465 eV)
    24      24       --         0.030 au  BrF           1.00     24 A               1
                        (       0.814 eV)
    25      25       --         0.122 au  BrF           1.00     25 A               1
                        (       3.332 eV)
    26      26       --         0.129 au  BrF           1.00     26 A               1
                        (       3.519 eV)
    27      27       --         0.129 au  BrF           1.00     27 A               1
                        (       3.519 eV)
    28      28       --         0.242 au  BrF           1.00     28 A               1
                        (       6.592 eV)
    29      29       --         0.242 au  BrF           1.00     29 A               1
                        (       6.592 eV)
    30      30       --         0.248 au  BrF           1.00     30 A               1
                        (       6.758 eV)
    31      31       --         0.248 au  BrF           1.00     31 A               1
                        (       6.758 eV)
    32      32       --         0.257 au  BrF           1.00     32 A               1
                        (       6.997 eV)
    33      33       --         0.435 au  BrF           1.00     33 A               1
                        (      11.828 eV)
    34      34       --         0.566 au  BrF           1.00     34 A               1
                        (      15.392 eV)
    35      35       --         0.566 au  BrF           1.00     35 A               1
                        (      15.392 eV)
    36      36       --         0.682 au  BrF           1.00     36 A               1
                        (      18.548 eV)
    37      37       --         0.793 au  BrF           1.00     37 A               1
                        (      21.574 eV)
    38      38       --         0.793 au  BrF           1.00     38 A               1
                        (      21.574 eV)
    39      39       --         0.835 au  BrF           1.00     39 A               1
                        (      22.719 eV)
    40      40       --         0.835 au  BrF           1.00     40 A               1
                        (      22.719 eV)
    41      41       --         0.839 au  BrF           1.00     41 A               1
                        (      22.843 eV)
    42      42       --         0.839 au  BrF           1.00     42 A               1
                        (      22.843 eV)
    43      43       --         0.972 au  BrF           1.00     43 A               1
                        (      26.442 eV)
    44      44       --         1.179 au  BrF           1.00     44 A               1
                        (      32.076 eV)
    45      45       --         1.179 au  BrF           1.00     45 A               1
                        (      32.076 eV)
    46      46       --         1.246 au  BrF           1.00     46 A               1
                        (      33.913 eV)
    47      47       --         1.246 au  BrF           1.00     47 A               1
                        (      33.913 eV)
    48      48       --         1.255 au  BrF           1.00     48 A               1
                        (      34.160 eV)
    49      49       --         1.378 au  BrF           1.00     49 A               1
                        (      37.488 eV)
    50      50       --         1.575 au  BrF           1.00     50 A               1
                        (      42.853 eV)
    51      51       --         1.575 au  BrF           1.00     51 A               1
                        (      42.854 eV)
    52      52       --         2.372 au  BrF           1.00     52 A               1
                        (      64.541 eV)
    53      53       --         2.627 au  BrF           1.00     53 A               1
                        (      71.474 eV)
    54      54       --         2.657 au  BrF           1.00     54 A               1
                        (      72.304 eV)
    55      55       --         2.657 au  BrF           1.00     55 A               1
                        (      72.305 eV)
    56      56       --         2.813 au  BrF           1.00     56 A               1
                        (      76.559 eV)
    57      57       --         2.813 au  BrF           1.00     57 A               1
                        (      76.559 eV)
    58      58       --         3.406 au  BrF           1.00     58 A               1
                        (      92.687 eV)
    59      59       --         3.470 au  BrF           1.00     59 A               1
                        (      94.426 eV)
    60      60       --         3.470 au  BrF           1.00     60 A               1
                        (      94.427 eV)
    61      61       --         3.520 au  BrF           1.00     61 A               1
                        (      95.785 eV)
    62      62       --         3.520 au  BrF           1.00     62 A               1
                        (      95.786 eV)
    63      63       --         3.677 au  BrF           1.00     63 A               1
                        (     100.048 eV)
    64      64       --         3.677 au  BrF           1.00     64 A               1
                        (     100.048 eV)
    65      65       --         3.707 au  BrF           1.00     65 A               1
                        (     100.882 eV)
    66      66       --         4.791 au  BrF           1.00     66 A               1
                        (     130.366 eV)
    67      67       --         4.791 au  BrF           1.00     67 A               1
                        (     130.366 eV)
    68      68       --         5.177 au  BrF           1.00     68 A               1
                        (     140.866 eV)
    69      69       --         8.820 au  BrF           1.00     69 A               1
                        (     240.004 eV)
    70      70       --         8.820 au  BrF           1.00     70 A               1
                        (     240.009 eV)
    71      71       --         9.095 au  BrF           1.00     71 A               1
                        (     247.478 eV)
    72      72       --        14.704 au  BrF           1.00     72 A               1
                        (     400.127 eV)
    73      73       --        20.578 au  BrF           1.00     73 A               1
                        (     559.953 eV)
    74      74       --        20.578 au  BrF           1.00     74 A               1
                        (     559.956 eV)
    75      75       --        20.762 au  BrF           1.00     75 A               1
                        (     564.961 eV)
    76      76       --        20.762 au  BrF           1.00     76 A               1
                        (     564.964 eV)
    77      77       --        21.071 au  BrF           1.00     77 A               1
                        (     573.361 eV)
    78      78       --        50.821 au  BrF           1.00     78 A               1
                        (    1382.903 eV)
    79      79       --       100.864 au  BrF           1.00     79 A               1
                        (    2744.655 eV)
    80      80       --       100.864 au  BrF           1.00     80 A               1
                        (    2744.655 eV)
    81      81       --       101.502 au  BrF           1.00     81 A               1
                        (    2762.008 eV)
    82      82       --       748.409 au  BrF           1.00     82 A               1
                        (   20365.250 eV)
    83      83      2.000     -23.791 au  F             1.00      1 A               2
                        (    -647.398 eV)
    84      84      2.000      -0.555 au  F             1.00      2 A               2
                        (     -15.093 eV)
    85      85      2.000       0.108 au  F             1.00      3 A               2
                        (       2.944 eV)
    86      86      2.000       0.108 au  F             1.00      4 A               2
                        (       2.944 eV)
    87      87      2.000       0.108 au  F             1.00      5 A               2
                        (       2.944 eV)
    88      88       --         0.286 au  F             1.00      6 A               2
                        (       7.773 eV)
    89      89       --         0.812 au  F             1.00      7 A               2
                        (      22.092 eV)
    90      90       --         0.812 au  F             1.00      8 A               2
                        (      22.092 eV)
    91      91       --         0.812 au  F             1.00      9 A               2
                        (      22.092 eV)
    92      92       --         1.566 au  F             1.00     10 A               2
                        (      42.603 eV)
    93      93       --         1.566 au  F             1.00     11 A               2
                        (      42.603 eV)
    94      94       --         1.566 au  F             1.00     12 A               2
                        (      42.603 eV)
    95      95       --         1.566 au  F             1.00     13 A               2
                        (      42.603 eV)
    96      96       --         1.566 au  F             1.00     14 A               2
                        (      42.603 eV)
    97      97       --         2.040 au  F             1.00     15 A               2
                        (      55.515 eV)
    98      98       --         3.896 au  F             1.00     16 A               2
                        (     106.020 eV)
    99      99       --         3.896 au  F             1.00     17 A               2
                        (     106.020 eV)
   100     100       --         3.896 au  F             1.00     18 A               2
                        (     106.020 eV)
   101     101       --         3.896 au  F             1.00     19 A               2
                        (     106.020 eV)
   102     102       --         3.896 au  F             1.00     20 A               2
                        (     106.020 eV)
   103     103       --         3.896 au  F             1.00     21 A               2
                        (     106.020 eV)
   104     104       --         3.896 au  F             1.00     22 A               2
                        (     106.020 eV)
   105     105       --         5.088 au  F             1.00     23 A               2
                        (     138.458 eV)
   106     106       --         5.088 au  F             1.00     24 A               2
                        (     138.458 eV)
   107     107       --         5.088 au  F             1.00     25 A               2
                        (     138.458 eV)
   108     108       --        48.938 au  F             1.00     26 A               2
                        (    1331.672 eV)



 ================================
 (Slater-type)  F U N C T I O N S  ***  (Basis and Fit)  ***
 ================================
  

 Atom Type    1  (Br)
 ==============

 Valence Basis Sets:  20
 -----------------------
   1 S   41.300000
   1 S   32.800000
   2 S   13.900000
   2 P   19.450000
   2 P   13.100000
   3 S    7.200000
   3 S    4.950000
   3 P    7.900000
   3 P    5.050000
   3 D   10.900000
   3 D    6.050000
   3 D    3.500000
   4 S    4.500000
   4 S    2.800000
   4 S    1.800000
   4 P    3.250000
   4 P    1.950000
   4 P    1.200000
   4 D    1.800000
   4 F    1.800000

 Atom Type    2  (F)
 ==============

 Valence Basis Sets:  10
 -----------------------
   1 S   10.880000
   1 S    7.700000
   2 S    3.240000
   2 S    1.940000
   2 S    0.740000
   2 P    4.540000
   2 P    2.300000
   2 P    1.240000
   3 D    2.000000
   4 F    3.000000

 Atom Type    3  (F)
 ==============

 Valence Basis Sets:  10
 -----------------------
   1 S   10.880000
   1 S    7.700000
   2 S    3.240000
   2 S    1.940000
   2 S    0.740000
   2 P    4.540000
   2 P    2.300000
   2 P    1.240000
   3 D    2.000000
   4 F    3.000000


 BAS: List of all Elementary Cartesian Basis Functions
 =====================================================

 The numbering in the list below (to the right of the function characteristics) is referred
 to in print-outs of MO eigenvectors and Mulliken populations in the BAS representation
 (as contrasted to the SFO representation).

 Notes:
 1. The functions are characterized by a polynomial prefactor (powers of x,y,z and r) and
    an exponential decay factor alpha.
 2. Since the basis sets are specific for an atom TYPE, the individual functions occur on
    all atoms of that type.
 3. The word 'Core' in the left margin signals that it is a Core Function (CF) : not a
    degree of freedom in the valence set, but only used to ensure orthogonalization of
    the other valence basis functions on the frozen Core Orbitals.


 (power of) X  Y  Z  R     Alpha  on Atom
            ==========     =====     ==========

 Br                                   1
                                  ---------------------------------------------------------------------------
            0  0  0  0    41.300      1
            0  0  0  0    32.800      2
            0  0  0  1    13.900      3
            1  0  0  0    19.450      4
            0  1  0  0    19.450      5
            0  0  1  0    19.450      6
            1  0  0  0    13.100      7
            0  1  0  0    13.100      8
            0  0  1  0    13.100      9
            0  0  0  2     7.200     10
            0  0  0  2     4.950     11
            1  0  0  1     7.900     12
            0  1  0  1     7.900     13
            0  0  1  1     7.900     14
            1  0  0  1     5.050     15
            0  1  0  1     5.050     16
            0  0  1  1     5.050     17
            2  0  0  0    10.900     18
            1  1  0  0    10.900     19
            1  0  1  0    10.900     20
            0  2  0  0    10.900     21
            0  1  1  0    10.900     22
            0  0  2  0    10.900     23
            2  0  0  0     6.050     24
            1  1  0  0     6.050     25
            1  0  1  0     6.050     26
            0  2  0  0     6.050     27
            0  1  1  0     6.050     28
            0  0  2  0     6.050     29
            2  0  0  0     3.500     30
            1  1  0  0     3.500     31
            1  0  1  0     3.500     32
            0  2  0  0     3.500     33
            0  1  1  0     3.500     34
            0  0  2  0     3.500     35
            0  0  0  3     4.500     36
            0  0  0  3     2.800     37
            0  0  0  3     1.800     38
            1  0  0  2     3.250     39
            0  1  0  2     3.250     40
            0  0  1  2     3.250     41
            1  0  0  2     1.950     42
            0  1  0  2     1.950     43
            0  0  1  2     1.950     44
            1  0  0  2     1.200     45
            0  1  0  2     1.200     46
            0  0  1  2     1.200     47
            2  0  0  1     1.800     48
            1  1  0  1     1.800     49
            1  0  1  1     1.800     50
            0  2  0  1     1.800     51
            0  1  1  1     1.800     52
            0  0  2  1     1.800     53
            3  0  0  0     1.800     54
            2  1  0  0     1.800     55
            2  0  1  0     1.800     56
            1  2  0  0     1.800     57
            1  1  1  0     1.800     58
            1  0  2  0     1.800     59
            0  3  0  0     1.800     60
            0  2  1  0     1.800     61
            0  1  2  0     1.800     62
            0  0  3  0     1.800     63

 F                                    2
                                  ---------------------------------------------------------------------------
            0  0  0  0    10.880     64
            0  0  0  0     7.700     65
            0  0  0  1     3.240     66
            0  0  0  1     1.940     67
            0  0  0  1     0.740     68
            1  0  0  0     4.540     69
            0  1  0  0     4.540     70
            0  0  1  0     4.540     71
            1  0  0  0     2.300     72
            0  1  0  0     2.300     73
            0  0  1  0     2.300     74
            1  0  0  0     1.240     75
            0  1  0  0     1.240     76
            0  0  1  0     1.240     77
            2  0  0  0     2.000     78
            1  1  0  0     2.000     79
            1  0  1  0     2.000     80
            0  2  0  0     2.000     81
            0  1  1  0     2.000     82
            0  0  2  0     2.000     83
            3  0  0  0     3.000     84
            2  1  0  0     3.000     85
            2  0  1  0     3.000     86
            1  2  0  0     3.000     87
            1  1  1  0     3.000     88
            1  0  2  0     3.000     89
            0  3  0  0     3.000     90
            0  2  1  0     3.000     91
            0  1  2  0     3.000     92
            0  0  3  0     3.000     93

 F                                    3
                                  ---------------------------------------------------------------------------
            0  0  0  0    10.880     94
            0  0  0  0     7.700     95
            0  0  0  1     3.240     96
            0  0  0  1     1.940     97
            0  0  0  1     0.740     98
            1  0  0  0     4.540     99
            0  1  0  0     4.540    100
            0  0  1  0     4.540    101
            1  0  0  0     2.300    102
            0  1  0  0     2.300    103
            0  0  1  0     2.300    104
            1  0  0  0     1.240    105
            0  1  0  0     1.240    106
            0  0  1  0     1.240    107
            2  0  0  0     2.000    108
            1  1  0  0     2.000    109
            1  0  1  0     2.000    110
            0  2  0  0     2.000    111
            0  1  1  0     2.000    112
            0  0  2  0     2.000    113
            3  0  0  0     3.000    114
            2  1  0  0     3.000    115
            2  0  1  0     3.000    116
            1  2  0  0     3.000    117
            1  1  1  0     3.000    118
            1  0  2  0     3.000    119
            0  3  0  0     3.000    120
            0  2  1  0     3.000    121
            0  1  2  0     3.000    122
            0  0  3  0     3.000    123

 Total number of charge fitting functions (nprimf)       340
 Total number of Cartesian basis functions (naos)        123
 Total number of Cartesian core functions  (ncos)          0

1
 ***************************************************************************************************



                                              ***********************
                                              *  T E C H N I C A L  *
                                              ***********************
  



 =============================================================
 P A R A L L E L I Z A T I O N  and  V E C T O R I Z A T I O N
 =============================================================
  
 Nr of parallel processes:                               12
 Maximum vector length in NumInt loops:                 128

 IO buffersize (Mb):                                     64.000000



 =====================
 S C F   U P D A T E S
 =====================
  
 Max. nr. of cycles:                               250
 Convergence criterion:                              0.0000010000
   secondary criterion:                              0.0010000000

 Mix parameter (when DIIS does not apply):           0.2000000000
 Mixed ADIIS+DIIS will be used
    Max number of expansion vectors:                10
    Pure ADIIS when Max([F,P]) is above              0.1000000000
    Pure DIIS when Max([F,P]) is below               0.0010000000
 Automatic ElectronSmearing (in case of problematic SCF convergence) disabled



 =================
 P R E C I S I O N  ***  (General: NumInt, NeglectFunctionTails, ...)  ***
 =================
  

 NumInt:           Target precision:                 6.0000000000
 -------           Initial precision:                6.0000000000
                   Min. precision (optimization):    6.0000000000

 Neglect Functions:          Basis functions:        0.1000000000E-07
 ------------------          Fit functions:          0.1000000000E-07



 ===========================
 L I N E A R   S C A L I N G
 ===========================
  

 Cut-off radii density fit:                        0.1000000000E-09
 Overlap cut-off criterion AO matrix elements:     0.1000000000E-07
 Cut-offs for Coulomb potential and fitted density:0.1000000000E-09
 Cut-off criterion for Coulomb multipole terms:    0.1000000000E-09
 Progressive Convergence parameter:                 0.000000000    
1
 ***************************************************************************************************



                                            ***************************
                                            *  C O M P U T A T I O N  *
                                            ***************************
  

 Number of elements of the density matrix on this node (used, total):      2016      7626



 ===========================================
 Numerical Integration : Fuzzy Cells (Becke)
 ===========================================
  
 Becke grid quality: GOOD           
  
 Lebedev angular grid order:             min:  11 max:  31
 Nr. of radial points:                   min:  65 max:  90

 Total nr. of points:      47648
 Nr. of blocks:              373
 Block length:               128
 Nr. of dummy points:         96


 Test of Precision of the Numerical Integration Grid
 ===================================================

 Integral of the Total Core Density:                   0.00000000000000



 ========================
 Density Fitting (zlmFit)
 ========================
  
 ZlmFit Fit Quality: NORMAL         
  
 Max L-expansion:                        min:   7 max:   7
 Nr. of radial interpolation points:     min:  51 max:  72



 =====
 S C F  ***  ScaSCF  ***
 =====
  
 Initial density matrix is calculated as sum of fragments

 CYCLE    1
 SCF Error: norm([F,P])=      1.706971876000, max([F,P])=      0.913462163886
 orbitals (Q,E):
 ---------------
 A :18...37          ( 2.00    -0.6567)  ( 2.00    -0.5115)  ( 2.00    -0.2765)  ( 2.00    -0.2381)
                     ( 2.00    -0.2381)  ( 2.00    -0.0829)  ( 2.00    -0.0829)  ( 2.00    -0.0642)
                     ( 2.00     0.0382)  ( 2.00     0.0382)  ( 0.00     0.1168)  ( 0.00     0.1719)
                     ( 0.00     0.2648)  ( 0.00     0.3215)  ( 0.00     0.3215)  ( 0.00     0.4308)
                     ( 0.00     0.4551)  ( 0.00     0.4552)  ( 0.00     0.4729)  ( 0.00     0.4729)

 CYCLE    2
  SDIIS (wt  0.000):  0.4220  0.5780
 A-DIIS (wt  1.000):  0.9418  0.0582
  DIIS coefficients:  0.9418  0.0582
 SCF Error: norm([F,P])=      1.444466073158, max([F,P])=      0.620770382755
 orbitals (Q,E):
 ---------------
 A :18...28          ( 2.00    -0.6961)  ( 2.00    -0.5030)  ( 2.00    -0.2529)  ( 2.00    -0.2078)
                     ( 2.00    -0.2078)  ( 2.00    -0.0797)  ( 2.00    -0.0797)  ( 2.00    -0.0771)
                     ( 2.00     0.0042)  ( 2.00     0.0042)  ( 0.00     0.1022)

 CYCLE    3
  SDIIS (wt  0.000):  0.0705 -1.6646  2.5941
 A-DIIS (wt  1.000):  0.9132  0.0000  0.0868
  DIIS coefficients:  0.9132  0.0000  0.0868
 SCF Error: norm([F,P])=      0.986278716673, max([F,P])=      0.424259891973
 orbitals (Q,E):
 ---------------
 A :18...28          ( 2.00    -0.7000)  ( 2.00    -0.5032)  ( 2.00    -0.2484)  ( 2.00    -0.2016)
                     ( 2.00    -0.2016)  ( 2.00    -0.0806)  ( 2.00    -0.0806)  ( 2.00    -0.0784)
                     ( 2.00     0.0012)  ( 2.00     0.0012)  ( 0.00     0.1007)

 CYCLE    4
  SDIIS (wt  0.000): -1.5754 -0.4246  3.0000
 A-DIIS (wt  1.000):  0.0000  0.0000  1.0000
  DIIS coefficients:  0.0000  0.0000  1.0000
 SCF Error: norm([F,P])=      0.943618046226, max([F,P])=      0.409372082932
 orbitals (Q,E):
 ---------------
 A :18...28          ( 2.00    -0.5623)  ( 2.00    -0.4945)  ( 2.00    -0.4591)  ( 2.00    -0.4591)
                     ( 2.00    -0.3992)  ( 2.00    -0.0486)  ( 2.00    -0.0485)  ( 2.00    -0.0104)
                     ( 2.00     0.1346)  ( 2.00     0.1769)  ( 0.00     0.1769)

 CYCLE    5
  SDIIS (wt  0.000): -1.2627 -0.7928  3.0000  0.0556
 A-DIIS (wt  1.000):  0.0000  0.0000  0.9224  0.0776
  DIIS coefficients:  0.0000  0.0000  0.9224  0.0776
 SCF Error: norm([F,P])=      4.076582931307, max([F,P])=      1.639249196846
 orbitals (Q,E):
 ---------------
 A :18...28          ( 2.00    -0.6895)  ( 2.00    -0.4961)  ( 2.00    -0.3509)  ( 2.00    -0.3413)
                     ( 2.00    -0.3412)  ( 2.00    -0.0803)  ( 2.00    -0.0590)  ( 2.00    -0.0581)
                     ( 2.00     0.0086)  ( 2.00     0.0105)  ( 0.00     0.1099)

 CYCLE    6
  SDIIS (wt  0.000): -0.7426 -1.4532  3.0000 -0.0041  0.1999
 A-DIIS (wt  1.000):  0.0000  0.0000  0.6467  0.0000  0.3533
  DIIS coefficients:  0.0000  0.0000  0.6467  0.0000  0.3533
 SCF Error: norm([F,P])=      1.715725257465, max([F,P])=      0.512342566088
 orbitals (Q,E):
 ---------------
 A :18...28          ( 2.00    -0.7579)  ( 2.00    -0.4747)  ( 2.00    -0.2062)  ( 2.00    -0.1406)
                     ( 2.00    -0.1405)  ( 2.00    -0.0944)  ( 2.00    -0.0844)  ( 2.00    -0.0843)
                     ( 2.00    -0.0226)  ( 2.00    -0.0226)  ( 0.00     0.1014)

 CYCLE    7
  SDIIS (wt  0.006): -0.2125 -1.5071  2.0868 -0.0048  0.0137  0.6238
 A-DIIS (wt  0.994):  0.0000  0.0000  0.1669  0.0000  0.0000  0.8331
  DIIS coefficients: -0.0012 -0.0087  0.1780 -0.0000  0.0001  0.8319
 SCF Error: norm([F,P])=      0.293505623320, max([F,P])=      0.099426356501
 orbitals (Q,E):
 ---------------
 A :18...28          ( 2.00    -0.7731)  ( 2.00    -0.5113)  ( 2.00    -0.2211)  ( 2.00    -0.1499)
                     ( 2.00    -0.1499)  ( 2.00    -0.1075)  ( 2.00    -0.1021)  ( 2.00    -0.1021)
                     ( 2.00    -0.0455)  ( 2.00    -0.0455)  ( 0.00     0.0755)

 CYCLE    8
  SDIIS (wt  0.000): -0.1336 -0.7433  0.9847 -0.0022  0.0274  0.4490  0.4181
 A-DIIS (wt  1.000):  0.0000  0.0000  0.0000  0.0000  0.0000  0.5261  0.4739
  DIIS coefficients:  0.0000  0.0000  0.0000  0.0000  0.0000  0.5261  0.4739
 SCF Error: norm([F,P])=      0.374254127843, max([F,P])=      0.137842553563
 orbitals (Q,E):
 ---------------
 A :18...28          ( 2.00    -0.7933)  ( 2.00    -0.4989)  ( 2.00    -0.2100)  ( 2.00    -0.1315)
                     ( 2.00    -0.1315)  ( 2.00    -0.1045)  ( 2.00    -0.1037)  ( 2.00    -0.1037)
                     ( 2.00    -0.0422)  ( 2.00    -0.0422)  ( 0.00     0.0828)

 CYCLE    9
  SDIIS (wt  0.803): -0.0281 -0.0658  0.0940 -0.0010 -0.0039  0.2436  0.2709  0.4903
 A-DIIS (wt  0.197):  0.0000  0.0000  0.0000  0.0000  0.0000  0.0000  0.0036  0.9964
  DIIS coefficients: -0.0226 -0.0529  0.0755 -0.0008 -0.0032  0.1957  0.2184  0.5898
 SCF Error: norm([F,P])=      0.074900230749, max([F,P])=      0.020462442149
 orbitals (Q,E):
 ---------------
 A :18...28          ( 2.00    -0.7895)  ( 2.00    -0.4948)  ( 2.00    -0.2074)  ( 2.00    -0.1290)
                     ( 2.00    -0.1290)  ( 2.00    -0.1020)  ( 2.00    -0.1012)  ( 2.00    -0.1012)
                     ( 2.00    -0.0390)  ( 2.00    -0.0390)  ( 0.00     0.0861)

 CYCLE   10
  SDIIS (wt  0.840): -0.0035  0.0280 -0.0441 -0.0003  0.0010  0.0803  0.1018  0.3724  0.4644
 A-DIIS (wt  0.160):  0.0000  0.0000  0.0000  0.0000  0.0000  0.0000  0.0000  0.4424  0.5576
  DIIS coefficients: -0.0030  0.0235 -0.0371 -0.0003  0.0008  0.0675  0.0855  0.3836  0.4793
 SCF Error: norm([F,P])=      0.057403827933, max([F,P])=      0.016869118548
 orbitals (Q,E):
 ---------------
 A :18...28          ( 2.00    -0.7928)  ( 2.00    -0.4953)  ( 2.00    -0.2079)  ( 2.00    -0.1294)
                     ( 2.00    -0.1293)  ( 2.00    -0.1029)  ( 2.00    -0.1023)  ( 2.00    -0.1023)
                     ( 2.00    -0.0397)  ( 2.00    -0.0397)  ( 0.00     0.0855)

 CYCLE   11
  SDIIS (wt  1.000):  0.0025  0.0246 -0.0355  0.0000 -0.0001  0.0131  0.0207  0.1308  0.1612  0.6827
  DIIS coefficients:  0.0025  0.0246 -0.0355  0.0000 -0.0001  0.0131  0.0207  0.1308  0.1612  0.6827
 SCF Error: norm([F,P])=      0.002909884883, max([F,P])=      0.000587536645
 orbitals (Q,E):
 ---------------
 A :18...28          ( 2.00    -0.7930)  ( 2.00    -0.4958)  ( 2.00    -0.2082)  ( 2.00    -0.1296)
                     ( 2.00    -0.1296)  ( 2.00    -0.1031)  ( 2.00    -0.1024)  ( 2.00    -0.1024)
                     ( 2.00    -0.0400)  ( 2.00    -0.0400)  ( 0.00     0.0851)

 CYCLE   12
  SDIIS (wt  1.000):  0.0079 -0.0088 -0.0000 -0.0000  0.0015  0.0011  0.0161  0.0241  0.0949  0.8633
  DIIS coefficients:  0.0079 -0.0088 -0.0000 -0.0000  0.0015  0.0011  0.0161  0.0241  0.0949  0.8633
 SCF Error: norm([F,P])=      0.000260816276, max([F,P])=      0.000085625491
 orbitals (Q,E):
 ---------------
 A :18...28          ( 2.00    -0.7929)  ( 2.00    -0.4957)  ( 2.00    -0.2082)  ( 2.00    -0.1296)
                     ( 2.00    -0.1296)  ( 2.00    -0.1031)  ( 2.00    -0.1024)  ( 2.00    -0.1024)
                     ( 2.00    -0.0400)  ( 2.00    -0.0400)  ( 0.00     0.0852)

 CYCLE   13
  SDIIS (wt  1.000): -0.0000 -0.0000 -0.0000  0.0001  0.0001  0.0008  0.0022  0.0051  0.0978  0.8939
  DIIS coefficients: -0.0000 -0.0000 -0.0000  0.0001  0.0001  0.0008  0.0022  0.0051  0.0978  0.8939
 SCF Error: norm([F,P])=      0.000128818099, max([F,P])=      0.000046664775
 orbitals (Q,E):
 ---------------
 A :18...28          ( 2.00    -0.7929)  ( 2.00    -0.4957)  ( 2.00    -0.2082)  ( 2.00    -0.1296)
                     ( 2.00    -0.1296)  ( 2.00    -0.1031)  ( 2.00    -0.1024)  ( 2.00    -0.1024)
                     ( 2.00    -0.0400)  ( 2.00    -0.0400)  ( 0.00     0.0852)

 CYCLE   14
  SDIIS (wt  1.000):  0.0000 -0.0000  0.0000  0.0000  0.0004  0.0010  0.0026  0.0502  0.3273  0.6184
  DIIS coefficients:  0.0000 -0.0000  0.0000  0.0000  0.0004  0.0010  0.0026  0.0502  0.3273  0.6184
 SCF Error: norm([F,P])=      0.000010077162, max([F,P])=      0.000002734868
 orbitals (Q,E):
 ---------------
 A :18...28          ( 2.00    -0.7929)  ( 2.00    -0.4957)  ( 2.00    -0.2082)  ( 2.00    -0.1296)
                     ( 2.00    -0.1296)  ( 2.00    -0.1031)  ( 2.00    -0.1024)  ( 2.00    -0.1024)
                     ( 2.00    -0.0400)  ( 2.00    -0.0400)  ( 0.00     0.0852)

 CYCLE   15
  SDIIS (wt  1.000): -0.0000  0.0000  0.0000  0.0000  0.0001  0.0002  0.0018  0.0171  0.0823  0.8985
  DIIS coefficients: -0.0000  0.0000  0.0000  0.0000  0.0001  0.0002  0.0018  0.0171  0.0823  0.8985
 SCF Error: norm([F,P])=      0.000002249689, max([F,P])=      0.000000739107
 orbitals (Q,E):
 ---------------
 A :18...28          ( 2.00    -0.7929)  ( 2.00    -0.4957)  ( 2.00    -0.2082)  ( 2.00    -0.1296)
                     ( 2.00    -0.1296)  ( 2.00    -0.1031)  ( 2.00    -0.1024)  ( 2.00    -0.1024)
                     ( 2.00    -0.0400)  ( 2.00    -0.0400)  ( 0.00     0.0852)

 SCF CONVERGED

 CYCLE   16
1
 ***************************************************************************************************



                                                *******************
                                                *  R E S U L T S  *
                                                *******************
  
 *** Setting up for NEW gradients in Focky
 *** Using FIT density in Focky

 Orbital Energies, per Irrep and Spin:
 ======================================
                        Occup              E (au)              E (eV)       Diff (eV) with prev. cycle
                        -----      --------------------        ------       --------------------------
 A
              18        2.000     -0.79293866422481E+00       -21.577               1.04E-07
              19        2.000     -0.49572959399681E+00       -13.489              -1.60E-07
              20        2.000     -0.20819213285368E+00        -5.665              -4.16E-08
              21        2.000     -0.12958834692447E+00        -3.526               1.77E-08
              22        2.000     -0.12958732905861E+00        -3.526               1.20E-08
              23        2.000     -0.10310709837956E+00        -2.806               7.27E-08
              24        2.000     -0.10241581249259E+00        -2.787               9.94E-08
              25        2.000     -0.10241517097683E+00        -2.787               9.63E-08
              26        2.000     -0.39955170033754E-01        -1.087              -2.83E-08
              27        2.000     -0.39951865963596E-01        -1.087              -3.35E-08
              28        0.000      0.85154845226388E-01         2.317
              29        0.000      0.20690683204110E+00         5.630
              30        0.000      0.22915327069965E+00         6.236
              31        0.000      0.32381772785133E+00         8.812
              32        0.000      0.32382382476424E+00         8.812
              33        0.000      0.44351218289168E+00        12.069
              34        0.000      0.46421180065962E+00        12.632
              35        0.000      0.46421977066300E+00        12.632
              36        0.000      0.48152819170488E+00        13.103
              37        0.000      0.48153243412078E+00        13.103
  
 HOMO :       27 A                -0.39951865963596E-01
 LUMO :       28 A                 0.85154845226388E-01
  


 All Electron Calculation, thus no Orbital Energies of the Core Orbitals are calculated


 Fit test: (difference of exact and fit density, squared integrated, result summed over spins)
         Sum-of-Fragments:                             0.00079430892117
         Orthogonalized Fragments:                     0.00080193022311
         SCF:                                          0.00080377044354



 ==========================
 Electron Density at Nuclei
 ==========================
  
 The electron density is calculated at points on a small sphere around the center of a nucleus.
 The printed electron density is the average electron density on these points.
 The radius of the sphere is the printed approximate finite nuclear radius.

         Atom        Nuclear Radius (Angstrom)             Electron Density (a.u.)
         ----        -------------------------             -----------------------
     1)   Br                0.0000536685                            29315.85925
     2)   F                 0.0000361580                              447.43463
     3)   F                 0.0000361580                              447.43467



 =======================================
 M U L L I K E N   P O P U L A T I O N S
 =======================================
  
 The survey below gives for each atom:
 a) the total charge (Z minus electrons)
 b) the net spin polarization (nr of electrons spin-A minus spin-B)
 c) for each spin the atomic electron valence density (integrated) per L-value.

 Atom              Charge    Spin density          S         P         D         F
 ----              ------    ------------       ------    ------    ------    ------
 1 Br              0.0520                       7.9988   16.7365   10.1754    0.0373
 2 F              -0.5260                       3.9796    5.5336    0.0118    0.0010
 3 F              -0.5260                       3.9796    5.5335    0.0118    0.0010

 Populations of individual BAS functions
 ----------------------------------------
 1 Br           0.3611  1.5681  2.0733  0.7130  0.7124  0.7134  1.2650  1.2662  1.2643  1.4381
                0.5898  1.1352  1.1221  1.1431  0.8931  0.9044  0.8862  0.2679  0.4020  0.4019
                0.2676  0.4017  0.2683  0.7774  1.1659  1.1665  0.7762  1.1656  0.7784  0.2880
                0.4350  0.4319  0.2946  0.4334  0.2843  0.2911  1.2695  0.4078  0.5586  0.3838
                0.6646  0.8811  0.6054  1.0484  0.2079  0.0874  0.2809  0.0149  0.0639  0.0103
                0.0395  0.0272  0.0133 -0.0041  0.0092  0.0007  0.0173  0.0063 -0.0039  0.0145
                0.0090 -0.0084 -0.0034
 2 F            0.5758  1.4010  1.0860  0.9037  0.0131  0.3845  0.3456  0.4081  0.9300  0.8732
                0.9645  0.5524  0.4776  0.5977  0.0001  0.0042  0.0008  0.0094  0.0021 -0.0048
               -0.0010 -0.0010  0.0005  0.0035  0.0001 -0.0021  0.0049  0.0034 -0.0035 -0.0037
 3 F            0.5758  1.4010  1.0860  0.9037  0.0131  0.3845  0.3456  0.4081  0.9300  0.8732
                0.9645  0.5523  0.4776  0.5977  0.0001  0.0042  0.0008  0.0094  0.0021 -0.0048
               -0.0010 -0.0010  0.0005  0.0035  0.0001 -0.0021  0.0049  0.0034 -0.0035 -0.0037

 Gross Charges per Atom (Z minus electrons)
 ==========================================
             0.0520   -0.5260   -0.5260
 Net Total: -1.00000000


 Atom-Atom Population Matrix (off-diagonal elements not doubled)
 ===============================================================

     1 :    34.8324
     2 :     0.0578    9.4667
     3 :     0.0578    0.0015    9.4666


 Frag-Frag Population Matrix (off-diagonal elements not doubled)
 ===============================================================

     1 :    44.4147
     2 :     0.0593    9.4666



 =================================================
 H I R S H F E L D   C H A R G E   A N A L Y S I S
 =================================================
  
 For each fragment: the (numerical) integral of rho(scf) * rho(fragment)/rho(sum-of-fragments)
 (nuclear charges are included, electrons are counted negative)

 The fragments and their ordering are defined in the early G E O M E T R Y output section.
 If you use single-atom fragments, this usually implies that all atoms of the same
 chemical type are grouped together. This may not be the order in which you listed them
 in the input file!

    1  BrF                      -0.3514
    2  F                        -0.6486

 Sum of these charges (accuracy NumInt/Tails) =          -0.99998903



 =============================
 V O R O N O I   C H A R G E S
 =============================
  
 For each atom: the (numerical) integral of the total electronic charge density in its Voronoi cell,
 i.e. the region of space that is closer to that atom than to any other atom.
 (cf. Wigner-Seitz cells in crystals)

 Within the Voronoi cell the subintegrals over the atomic sphere and the remaining part are evaluated
 separately to give the numbers of electrons (negative charge) in these regions.
 The net total charge in the cell (including the nuclear charge) is also given.

 Values are provided for
    a) the Initial (sum-of-fragments) density
    b) the Orthogonalized-Fragments density
    c) the SCF density
    d) the Voronoi Deformation Density (VDD): the difference SCF-Initial for the complete atomic cell
 ---------------------------------------------------------------------------------------------------
 Total NetCharge:              -1.000                     -1.000                     -1.000    0.000
 (accuracy NumInt/Tails)

 Remark: the 'NetTotal' Voronoi charges often do not match the Mulliken and/or Hirshfeld charges very
 well. This is caused by the fact that chemically different atoms are not treated in accordance with
 their relative sizes. (Voronoi cells are defined by boundary planes halfway between the atoms.)
 However, the CHANGES in charge, comparing 'Initial' to 'SCF' for instance, do give a fair indication
 of the flow of charge caused by the relaxation from sum-of-fragments to self-consistency.

 Warning: the absolute accuracy of the VDD charges obtained using the Fuzzy Cells (Becke) integration
 scheme is much poorer than the one obtained with an 'equivalent' Voronoi integration grid. 



 =================================================================
 M U L T I P O L E   D E R I V E D   C H A R G E   A N A L Y S I S
 =================================================================

 This charge analysis uses the atomic multipoles (obtained from the fitted density) up to some level X,
 and reconstructs these multipoles exactly (up to level X) by distributing charges over all atoms.
 This is achieved by using Lagrange multipliers and a weight function to keep the multipoles local.

 Dummy atoms can be included (by setting INCDUM in MDC-block to 1) to obtain a fractional charge.
 This is generally useful and necessary only for small symmetrical molecules, when there are not
 enough degrees of freedom to reconstruct the multipoles.

 Since the atomic multipoles are reconstructed up to level X,
 the molecular multipoles are represented also up to level X.
 The recommended level is to reconstruct up to quadrupole : -> MDC-q charges.

 See: M. Swart, P.Th. van Duijnen, J.G. Snijders, J.Comput.Chem., (2001), p. 79-88.

 ------------------------------------------------------------- 
 Atomic electronic multipole moments from SCF equations (a.u.)
 ------------------------------------------------------------- 

   atom        charge        dip-x     dip-y     dip-z      quad-xx   quad-xy   quad-xz   quad-yy   quad-yz   quad-zz
 --------------------------------------------------------------------------------------------------------------------
    1 Br     0.688022    -0.000083  0.000135 -0.000004    -0.403743 -2.030205  0.061947  2.675702 -0.100768 -2.271958
    2 F     -0.844012     0.242879 -0.394910  0.012054    -0.003818 -0.018758  0.000548  0.024812 -0.000922 -0.020994
    3 F     -0.844010    -0.242907  0.394955 -0.012055    -0.003825 -0.018793  0.000549  0.024858 -0.000923 -0.021033

 --------------------------------------- 
 Multipole derived atomic charges (a.u.)
 --------------------------------------- 

 The MDC-m charges are just the Monopole terms in the multipole expansion, while for the MDC-d charges
 also the Dipoles are reconstructed. The usually preferred charges are the MDC-q charges.
 These reconstruct the Monopoles, Dipoles and Quadrupoles (both atomic AND molecular).

        Atom    Level:     MDC-m        MDC-d        MDC-q
 ---------------------------------------------------------
     1     Br           0.688022     0.418694     0.049270
     2     F           -0.844012    -0.709381    -0.524677
     3     F           -0.844010    -0.709313    -0.524593

 ------------------------------------------------ 
 Average absolute deviations in atomic multipoles
 ------------------------------------------------ 

 Stated here are the average differences between the atomic multipoles
 and the reconstructed atomic multipoles (from the distributed charges).
 If these values are not zero, this means there are not enough degrees of freedom,
 to be able to reconstruct the atomic multipoles. (This usually happens only
 for small and/or highly symmetric molecules). If this is the case, one could add
 dummy atoms as extra point charges (and setting INCDUM in MDC-block to 1).

 Level:                                 MDC-d        MDC-q
 ---------------------------------------------------------
 Charge   (a.u.)                       0.0000       0.0000
 Dipole   (Debye)                      0.0000       0.0000
 Quad.    (a.u.)                       0.6970       0.1824

 --------------------------------------- 
 Represented molecular multipole moments
 --------------------------------------- 

 Given here are the Molecular multipole moments from the atomic charges, and from the Fit Density.
 Note that the atomic charges represent the latter, NOT the ones from the Exact density.

            Q (a.u.)             Dipole moment (Debye)                                          Quadrupole moment (a.u.)
                                 x         y         z              xx        xy        xz        yy        yz        zz
------------------------------------------------------------------------------------------------------------------------
MDC-m        -1.0000       23.6562  -14.8878    0.2197        -67.2460   98.4985   -1.7170   -5.6897    1.5894   72.9357
MDC-d        -1.0000       23.6559  -14.8874    0.2196        -67.5988   95.8262   -1.6354   -3.3439    1.4569   70.9427
MDC-q        -1.0000       23.6559  -14.8874    0.2196        -68.0841   92.1655   -1.5237   -0.1277    1.2752   68.2118
 
Fit.Dens.    -1.0000       23.6559  -14.8874    0.2196        -68.2893   91.6509   -1.5081    1.2328    1.2497   67.0565



 =============
 Dipole Moment  ***  (Debye)  ***
 =============
  
 Vector   :        23.65588501    -14.88737845      0.21964327
 Magnitude:        27.95144318

 This molecular dipole moment is calculated with analytic integration
 ************************************************************************************
 Since the molecule is NOT NEUTRAL, the dipole moment depends on the choice of origin
 ************************************************************************************



 =========================================
 Quadrupole Moment (Buckingham convention)  ***  (a.u.)  ***
 =========================================
  
      quad-xx        quad-xy        quad-xz        quad-yy        quad-yz        quad-zz
    -68.29115372    90.60308467    -1.47597670     1.24504585     1.19772256    67.04610786

 This molecular quadrupole moment is calculated with analytic integration
1



                                             *************************
                                             *  SFO MO coefficients  *
                                             *************************
  


                                       === A ===
 MOs expanded in CFs+SFOs
 ========================

 The SFOs have been characterized in an earlier part of output.
 To deduce the bonding / antibonding nature of SFO combinations in an MO, consider the products
 of the coefficients AND THE OVERLAP between the SFOs (may be NEGATIVE). The SFO overlap matrix
 is printed later, in the SFO Populations section.

 (The CF coefficients are not printed)

 MOs :      1        2        3        4        5        6        7        8        9       10
 occup:   2.00     2.00     2.00     2.00     2.00     2.00     2.00     2.00     2.00     2.00
 CF+SFO
     1  -1.0000  -0.0000   0.0000  -0.0000   0.0000   0.0000   0.0000  -0.0000  -0.0000   0.0000
     2  -0.0000   1.0000  -0.0010   0.0000  -0.0000  -0.0000  -0.0000   0.0001  -0.0000   0.0000
     3   0.0000   0.0010   1.0000   0.0001  -0.0002  -0.0000  -0.0000   0.0000  -0.0000   0.0000
     4  -0.0000  -0.0000  -0.0001   1.0000  -0.0055  -0.0000  -0.0000   0.0000  -0.0000   0.0000
     5   0.0000   0.0000   0.0001   0.0055   1.0000   0.0000   0.0000   0.0000  -0.0000   0.0000
     6   0.0000   0.0000   0.0000   0.0000  -0.0000  -0.0014  -1.0000  -0.0000  -0.0000  -0.0000
     7   0.0000  -0.0001   0.0000   0.0000   0.0000  -0.0000  -0.0000  -0.9994  -0.0048  -0.0000
     8  -0.0000   0.0000   0.0000  -0.0000   0.0000  -0.0000  -0.0000  -0.0047   1.0001  -0.0001
     9   0.0000  -0.0000  -0.0000  -0.0000  -0.0000   0.0000   0.0000  -0.0000   0.0001   1.0000
    10   0.0000   0.0000  -0.0000   0.0000  -0.0000   0.0000   0.0000  -0.0000   0.0002  -0.0076
    11   0.0000   0.0000  -0.0000   0.0000  -0.0000   0.0000   0.0000  -0.0003  -0.0021   0.0000
    12   0.0000   0.0000   0.0000  -0.0000  -0.0000   0.0000   0.0000   0.0000  -0.0000   0.0007
    13  -0.0000  -0.0000  -0.0000   0.0000  -0.0000  -0.0000  -0.0000  -0.0000   0.0000   0.0020
    14  -0.0000  -0.0000  -0.0000  -0.0000  -0.0000  -0.0000  -0.0000  -0.0000   0.0000   0.0000
    15   0.0000   0.0000   0.0000  -0.0000   0.0000   0.0000   0.0000   0.0000  -0.0000  -0.0000
    16   0.0000  -0.0000   0.0000   0.0000   0.0000   0.0000   0.0001  -0.0004  -0.0001   0.0000
    17   0.0000  -0.0000   0.0000   0.0000   0.0000   0.0002   0.0000  -0.0033  -0.0006   0.0000
    18  -0.0000   0.0000  -0.0000  -0.0000   0.0000  -0.0001   0.0000   0.0019   0.0003  -0.0000
    19   0.0000  -0.0000  -0.0000  -0.0000   0.0000  -0.0000  -0.0000  -0.0000   0.0000   0.0001
    20   0.0000  -0.0000  -0.0000   0.0000   0.0000   0.0000   0.0000   0.0000  -0.0000   0.0000
    21  -0.0000   0.0000  -0.0000   0.0000   0.0000   0.0000   0.0000  -0.0000   0.0000  -0.0001
    22   0.0000   0.0000   0.0000  -0.0000   0.0000   0.0000  -0.0000   0.0000  -0.0000  -0.0001
    23   0.0000  -0.0000   0.0000   0.0000  -0.0000   0.0002   0.0001  -0.0024  -0.0003   0.0000
    24  -0.0000  -0.0000  -0.0000  -0.0000   0.0000  -0.0001  -0.0000   0.0024   0.0003   0.0000
    25   0.0000   0.0000   0.0000   0.0000  -0.0000   0.0002   0.0000  -0.0031  -0.0006   0.0000
    26  -0.0000  -0.0000  -0.0000   0.0000   0.0000  -0.0000  -0.0000   0.0000   0.0000   0.0002
    27  -0.0000  -0.0000  -0.0000  -0.0000   0.0000  -0.0000  -0.0000   0.0000   0.0000   0.0001
    28  -0.0000   0.0000   0.0000  -0.0000   0.0000   0.0000  -0.0000   0.0000  -0.0000   0.0000
    29  -0.0000  -0.0000   0.0000   0.0000   0.0000   0.0000  -0.0000  -0.0000   0.0000   0.0001
    30  -0.0000   0.0000   0.0000  -0.0000   0.0000  -0.0000   0.0000   0.0000   0.0000  -0.0000
    31  -0.0000   0.0000  -0.0000   0.0000   0.0000  -0.0000   0.0000  -0.0000   0.0000  -0.0000
    32   0.0000  -0.0000   0.0000  -0.0000   0.0000   0.0001  -0.0000  -0.0000  -0.0002   0.0000
    33   0.0000  -0.0000   0.0000  -0.0000  -0.0000   0.0002  -0.0000  -0.0013  -0.0005   0.0000
    34   0.0000  -0.0000  -0.0000  -0.0000  -0.0000  -0.0000  -0.0000   0.0000  -0.0000   0.0000
    35   0.0000  -0.0000  -0.0000   0.0000  -0.0000   0.0000   0.0000  -0.0000   0.0000   0.0000
    36   0.0000  -0.0000  -0.0000   0.0000   0.0000  -0.0000  -0.0000   0.0001   0.0002  -0.0000
    37   0.0000  -0.0000  -0.0000  -0.0000  -0.0000   0.0000   0.0000  -0.0000   0.0000  -0.0000
    38  -0.0000  -0.0000  -0.0000  -0.0000  -0.0000  -0.0000  -0.0000   0.0000  -0.0000   0.0000
    39   0.0000  -0.0000  -0.0000   0.0000  -0.0000   0.0000   0.0000  -0.0000  -0.0000   0.0001
    40   0.0000  -0.0000  -0.0000  -0.0000  -0.0000   0.0000   0.0000  -0.0000  -0.0000   0.0001
    41   0.0000  -0.0000  -0.0000  -0.0000   0.0000   0.0000   0.0000  -0.0000  -0.0000   0.0000
    42  -0.0000  -0.0000  -0.0000   0.0000   0.0000  -0.0000  -0.0000  -0.0000   0.0000   0.0000
    43   0.0000  -0.0000  -0.0000   0.0000  -0.0000   0.0001   0.0001  -0.0003  -0.0001   0.0000
    44  -0.0000   0.0000   0.0000  -0.0000   0.0000  -0.0000  -0.0000   0.0000  -0.0000  -0.0003
    45   0.0000   0.0000  -0.0000   0.0000   0.0000   0.0000   0.0000  -0.0000   0.0000  -0.0001
    46   0.0000  -0.0000  -0.0000  -0.0000  -0.0000   0.0000   0.0000  -0.0000  -0.0000   0.0000
    47  -0.0000   0.0000  -0.0000  -0.0000  -0.0000  -0.0000  -0.0000   0.0000   0.0000   0.0000
    48  -0.0000   0.0000  -0.0000  -0.0000   0.0000  -0.0001  -0.0001   0.0006   0.0008  -0.0000
    49  -0.0000   0.0000   0.0000  -0.0000  -0.0000   0.0000   0.0001   0.0001  -0.0000   0.0000
    50  -0.0000   0.0000   0.0000  -0.0000   0.0000   0.0000   0.0000   0.0000  -0.0000  -0.0000
    51  -0.0000   0.0000   0.0000   0.0000   0.0000  -0.0000   0.0000   0.0000   0.0000  -0.0001
    52   0.0000  -0.0000   0.0000  -0.0000   0.0000  -0.0001   0.0001   0.0001   0.0002  -0.0000
    53  -0.0000   0.0000  -0.0000  -0.0000  -0.0000  -0.0000   0.0000   0.0005   0.0002  -0.0000
    54  -0.0000  -0.0000  -0.0000  -0.0000  -0.0000  -0.0000   0.0000   0.0000   0.0000   0.0000
    55   0.0000   0.0000   0.0000  -0.0000  -0.0000   0.0000  -0.0000  -0.0000  -0.0000  -0.0000
    56  -0.0000  -0.0000   0.0000  -0.0000  -0.0000   0.0000   0.0000  -0.0000  -0.0000  -0.0000
    57  -0.0000  -0.0000  -0.0000   0.0000  -0.0000  -0.0000   0.0000  -0.0000   0.0000  -0.0000
    58  -0.0000   0.0000   0.0000  -0.0000  -0.0000  -0.0000  -0.0001   0.0002   0.0000  -0.0000
    59   0.0000  -0.0000  -0.0000  -0.0000   0.0000   0.0000   0.0000  -0.0000  -0.0000   0.0000
    60   0.0000  -0.0000  -0.0000  -0.0000   0.0000   0.0000   0.0000  -0.0000  -0.0000  -0.0000
    61   0.0000   0.0000   0.0000   0.0000  -0.0000   0.0000  -0.0000   0.0000  -0.0000  -0.0000
    62  -0.0000  -0.0000  -0.0000   0.0000   0.0000  -0.0000  -0.0000  -0.0000   0.0000   0.0000
    63  -0.0000   0.0000   0.0000  -0.0000  -0.0000  -0.0000   0.0000  -0.0000   0.0000  -0.0000
    64   0.0000  -0.0000  -0.0000   0.0000  -0.0000   0.0000  -0.0000  -0.0000   0.0000  -0.0000
    65  -0.0000   0.0000   0.0000  -0.0000  -0.0000  -0.0000   0.0000   0.0001   0.0000  -0.0000
    66  -0.0000   0.0000   0.0000  -0.0000   0.0000   0.0000  -0.0000   0.0000  -0.0000   0.0000
    67  -0.0000   0.0000   0.0000  -0.0000  -0.0000   0.0000  -0.0000   0.0000  -0.0000  -0.0000
    68   0.0000  -0.0000   0.0000  -0.0000   0.0000   0.0000  -0.0001   0.0000  -0.0000   0.0000
    69   0.0000  -0.0000  -0.0000  -0.0000   0.0000  -0.0000   0.0000  -0.0000   0.0000   0.0000
    70   0.0000  -0.0000  -0.0000   0.0000   0.0000  -0.0000   0.0000  -0.0000   0.0000  -0.0001
    71  -0.0000   0.0000  -0.0000  -0.0000   0.0000   0.0000  -0.0000   0.0001  -0.0002   0.0000
    72  -0.0000   0.0001  -0.0000   0.0000  -0.0000  -0.0000  -0.0000  -0.0001   0.0001  -0.0000
    73  -0.0000  -0.0000   0.0000   0.0000   0.0000   0.0000   0.0000   0.0000  -0.0000   0.0000
    74   0.0000  -0.0000  -0.0000  -0.0000  -0.0000  -0.0000  -0.0000  -0.0000   0.0000  -0.0000
    75   0.0000   0.0000   0.0000  -0.0000   0.0000  -0.0000  -0.0000  -0.0000   0.0000   0.0001
    76  -0.0000   0.0000   0.0000  -0.0000  -0.0000  -0.0000  -0.0000   0.0000   0.0000  -0.0000
    77  -0.0000   0.0000   0.0000   0.0000  -0.0000   0.0000   0.0000  -0.0001  -0.0001  -0.0000
    78  -0.0000   0.0000   0.0000   0.0000  -0.0000  -0.0000  -0.0002   0.0000   0.0000  -0.0000
    79   0.0000  -0.0000  -0.0000   0.0001  -0.0000  -0.0000   0.0000   0.0000  -0.0000   0.0000
    80  -0.0000   0.0000   0.0000   0.0000   0.0001   0.0000  -0.0000  -0.0000   0.0000   0.0001
    81  -0.0000   0.0000   0.0001   0.0000  -0.0000  -0.0000  -0.0000   0.0000  -0.0001  -0.0000
    82   0.0001  -0.0000   0.0000  -0.0000  -0.0000   0.0000  -0.0000   0.0000  -0.0000  -0.0000
    83  -0.0000   0.0000  -0.0000  -0.0000   0.0000   1.0000  -0.0014   0.0004   0.0001  -0.0000
    84  -0.0000   0.0000  -0.0000  -0.0000   0.0000  -0.0004  -0.0000   0.0035   0.0009  -0.0000
    85   0.0000  -0.0000   0.0000   0.0000  -0.0000   0.0000   0.0000  -0.0005  -0.0002   0.0002
    86  -0.0000   0.0000  -0.0000   0.0000  -0.0000  -0.0000  -0.0000   0.0019   0.0007   0.0000
    87  -0.0000   0.0000  -0.0000  -0.0000  -0.0000  -0.0000  -0.0000   0.0008   0.0003   0.0001
    88  -0.0000  -0.0000  -0.0000  -0.0000   0.0000  -0.0001  -0.0000   0.0039   0.0003   0.0000
    89  -0.0000   0.0000  -0.0000   0.0000  -0.0000  -0.0001  -0.0000   0.0013   0.0003   0.0001
    90  -0.0000   0.0000  -0.0000  -0.0000   0.0000  -0.0002  -0.0000   0.0019   0.0005  -0.0001
    91   0.0000  -0.0000   0.0000  -0.0000  -0.0000   0.0000   0.0000  -0.0002  -0.0001   0.0001
    92   0.0000   0.0000  -0.0000   0.0000   0.0000  -0.0000  -0.0000  -0.0000   0.0000   0.0000
    93  -0.0000  -0.0000   0.0000   0.0000  -0.0000   0.0000   0.0000   0.0001  -0.0001  -0.0002
    94  -0.0000  -0.0000   0.0000  -0.0000   0.0000   0.0000   0.0000   0.0001  -0.0002   0.0001
    95   0.0000   0.0000  -0.0000  -0.0000  -0.0000  -0.0000  -0.0000  -0.0000   0.0001  -0.0001
    96   0.0000   0.0000  -0.0000  -0.0000  -0.0000  -0.0000  -0.0000  -0.0000   0.0001  -0.0000
    97   0.0000  -0.0000   0.0000   0.0000  -0.0000  -0.0001   0.0000  -0.0012  -0.0005   0.0000
    98   0.0000  -0.0000  -0.0000  -0.0000   0.0000  -0.0000  -0.0000  -0.0004  -0.0000   0.0000
    99   0.0000  -0.0000  -0.0000  -0.0000  -0.0000  -0.0000  -0.0000  -0.0000  -0.0000  -0.0000
   100  -0.0000   0.0000   0.0000  -0.0000   0.0000   0.0000   0.0000   0.0000   0.0000   0.0001
   101   0.0000  -0.0000  -0.0000   0.0000   0.0000  -0.0000  -0.0000  -0.0000  -0.0000   0.0000
   102   0.0000  -0.0000  -0.0000   0.0000   0.0000  -0.0000  -0.0000  -0.0000  -0.0000   0.0000
   103   0.0000  -0.0000  -0.0000  -0.0000   0.0000  -0.0000  -0.0000  -0.0001  -0.0000   0.0000
   104   0.0000  -0.0000  -0.0000   0.0000  -0.0000  -0.0000  -0.0000  -0.0001  -0.0000  -0.0000
   105   0.0000   0.0000  -0.0000  -0.0000   0.0000  -0.0002  -0.0000  -0.0001   0.0001  -0.0000
   106  -0.0000  -0.0000   0.0000  -0.0000   0.0000   0.0002   0.0000   0.0001  -0.0001  -0.0000
   107  -0.0000  -0.0000   0.0000   0.0000   0.0000   0.0000   0.0000   0.0000  -0.0000  -0.0000
   108  -0.0000   0.0000  -0.0000  -0.0000   0.0000  -0.0002  -0.0000   0.0000   0.0000  -0.0000

 MOs :     11       12       13       14       15       16       17       18       19       20
 occup:   2.00     2.00     2.00     2.00     2.00     2.00     2.00     2.00     2.00     2.00
 CF+SFO
     1  -0.0000   0.0000  -0.0000  -0.0000  -0.0000  -0.0000   0.0001  -0.0001   0.0000   0.0004
     2   0.0000  -0.0000   0.0000   0.0000  -0.0000   0.0000  -0.0009   0.0009  -0.0002  -0.0025
     3  -0.0000  -0.0001   0.0000   0.0000  -0.0000   0.0000  -0.0002   0.0002  -0.0000  -0.0004
     4   0.0000   0.0000  -0.0000  -0.0000  -0.0000  -0.0000  -0.0000   0.0000   0.0000  -0.0000
     5  -0.0000  -0.0000  -0.0000   0.0000  -0.0000   0.0000   0.0000  -0.0000   0.0000   0.0000
     6   0.0000   0.0000  -0.0000  -0.0000  -0.0000  -0.0000  -0.0001  -0.0001  -0.0000   0.0000
     7   0.0000  -0.0000  -0.0000   0.0000   0.0000  -0.0000  -0.0047   0.0048  -0.0003  -0.0119
     8   0.0002  -0.0022  -0.0000  -0.0000   0.0000  -0.0000  -0.0043   0.0042  -0.0005  -0.0075
     9  -0.0076   0.0000   0.0007  -0.0020   0.0000  -0.0000   0.0000  -0.0000   0.0000   0.0000
    10  -1.0000   0.0000  -0.0020  -0.0007  -0.0000   0.0000   0.0000  -0.0000   0.0000   0.0000
    11  -0.0000  -0.9999  -0.0001  -0.0005   0.0001  -0.0001   0.0062  -0.0064  -0.0007   0.0070
    12   0.0020   0.0001  -0.9999   0.0081   0.0001   0.0001   0.0000  -0.0000  -0.0000   0.0000
    13  -0.0007  -0.0005   0.0081   0.9999   0.0001   0.0000  -0.0000   0.0000   0.0000  -0.0000
    14   0.0000  -0.0001  -0.0001   0.0001  -0.9999   0.0120  -0.0000   0.0000   0.0000  -0.0000
    15   0.0000   0.0001  -0.0001   0.0000  -0.0120  -0.9999   0.0000  -0.0000   0.0000   0.0000
    16  -0.0000   0.0003  -0.0000  -0.0000  -0.0000  -0.0000  -0.7055  -0.7085   0.0044   0.0122
    17  -0.0000   0.0017  -0.0000  -0.0000  -0.0000  -0.0000  -0.0783   0.0727  -0.9798   0.1373
    18   0.0000  -0.0006   0.0000   0.0000   0.0000   0.0000   0.0370  -0.0215   0.0033   0.7716
    19  -0.0000  -0.0000  -0.0000  -0.0001  -0.0000   0.0000  -0.0000  -0.0000   0.0000  -0.0000
    20   0.0001   0.0000   0.0001  -0.0000  -0.0000  -0.0000   0.0000   0.0000  -0.0000  -0.0000
    21  -0.0001  -0.0000  -0.0000   0.0000   0.0000   0.0000   0.0000   0.0000   0.0000  -0.0000
    22   0.0001   0.0000   0.0000   0.0000   0.0000  -0.0000  -0.0000   0.0000  -0.0000  -0.0000
    23  -0.0000   0.0008  -0.0000  -0.0000  -0.0000  -0.0000  -0.0198   0.0347   0.0067  -0.1346
    24  -0.0000  -0.0004   0.0000   0.0000   0.0000   0.0000   0.0044   0.0055   0.0032  -0.0069
    25  -0.0000   0.0008  -0.0000  -0.0000  -0.0000  -0.0000   0.0038   0.0006   0.0016   0.0235
    26   0.0001  -0.0000   0.0002  -0.0002  -0.0000   0.0000  -0.0000  -0.0000   0.0000  -0.0000
    27  -0.0002   0.0000  -0.0002  -0.0002  -0.0000  -0.0000  -0.0000   0.0000   0.0000  -0.0000
    28  -0.0001   0.0000  -0.0002  -0.0002   0.0000  -0.0000  -0.0000   0.0000   0.0000  -0.0000
    29   0.0000   0.0000   0.0002  -0.0002   0.0000   0.0000  -0.0000   0.0000   0.0000  -0.0000
    30  -0.0000   0.0000  -0.0000   0.0000  -0.0001   0.0001   0.0000  -0.0000  -0.0000   0.0000
    31  -0.0000  -0.0000   0.0000  -0.0000  -0.0001  -0.0001   0.0000  -0.0000  -0.0000   0.0000
    32  -0.0000   0.0004  -0.0000   0.0000  -0.0000   0.0000  -0.0100   0.0085   0.0149  -0.0257
    33  -0.0000   0.0006  -0.0000  -0.0000  -0.0000  -0.0000  -0.0100   0.0060   0.0008   0.0067
    34  -0.0000   0.0000  -0.0001   0.0001  -0.0000  -0.0000   0.0000  -0.0000   0.0000   0.0000
    35   0.0000  -0.0000   0.0001   0.0001  -0.0000   0.0000  -0.0000  -0.0000  -0.0000   0.0000
    36  -0.0000  -0.0003   0.0000   0.0000   0.0000   0.0000   0.0011   0.0020  -0.0019   0.0051
    37  -0.0000  -0.0000   0.0000   0.0000  -0.0002   0.0003  -0.0000  -0.0000  -0.0000   0.0000
    38   0.0000  -0.0000  -0.0000   0.0000  -0.0003  -0.0002   0.0000  -0.0000   0.0000   0.0000
    39  -0.0001  -0.0000   0.0001   0.0001   0.0000  -0.0000  -0.0000   0.0000  -0.0000   0.0000
    40   0.0001  -0.0000  -0.0001   0.0001   0.0000   0.0000  -0.0000   0.0000  -0.0000   0.0000
    41   0.0000  -0.0000  -0.0000  -0.0000  -0.0000   0.0000  -0.0000   0.0000   0.0000  -0.0000
    42   0.0000   0.0000   0.0000   0.0000   0.0000   0.0000   0.0000  -0.0000  -0.0000   0.0000
    43  -0.0000  -0.0003  -0.0000  -0.0000  -0.0000  -0.0000  -0.0031   0.0044  -0.0010  -0.0047
    44   0.0001  -0.0000   0.0000   0.0004  -0.0000   0.0000  -0.0000   0.0000  -0.0000  -0.0000
    45  -0.0003   0.0000  -0.0004   0.0000  -0.0000   0.0000   0.0000  -0.0000   0.0000   0.0000
    46   0.0000  -0.0000   0.0000  -0.0000  -0.0001   0.0001   0.0000   0.0000   0.0000   0.0000
    47  -0.0000  -0.0000  -0.0000  -0.0000  -0.0001  -0.0001  -0.0000  -0.0000  -0.0000  -0.0000
    48   0.0000  -0.0004   0.0000   0.0000   0.0000   0.0000  -0.0022  -0.0010  -0.0035  -0.0043
    49  -0.0000   0.0001   0.0000   0.0000   0.0000   0.0000   0.0040   0.0056  -0.0011  -0.0009
    50   0.0001  -0.0000  -0.0001  -0.0001  -0.0000   0.0000   0.0000   0.0000  -0.0000  -0.0000
    51  -0.0000  -0.0000   0.0001  -0.0001  -0.0000   0.0000   0.0000   0.0000   0.0000  -0.0000
    52   0.0000   0.0004   0.0000   0.0000  -0.0000   0.0000  -0.0000   0.0019  -0.0002  -0.0037
    53  -0.0000  -0.0001   0.0000   0.0000   0.0000   0.0000  -0.0000   0.0005  -0.0014   0.0012
    54  -0.0000  -0.0000   0.0000  -0.0000  -0.0003   0.0000  -0.0000   0.0000  -0.0000   0.0000
    55  -0.0000  -0.0000   0.0000   0.0000  -0.0000  -0.0003   0.0000  -0.0000   0.0000  -0.0000
    56  -0.0000  -0.0000  -0.0003   0.0003   0.0000   0.0000   0.0000   0.0000  -0.0000  -0.0000
    57   0.0000   0.0000   0.0003   0.0003   0.0000  -0.0000   0.0000   0.0000  -0.0000   0.0000
    58  -0.0000   0.0002   0.0000   0.0000   0.0000   0.0000  -0.0016   0.0004   0.0004  -0.0031
    59   0.0000  -0.0000  -0.0000  -0.0000  -0.0000   0.0000   0.0000  -0.0000   0.0000  -0.0000
    60   0.0000  -0.0000  -0.0000  -0.0000  -0.0000   0.0000   0.0000  -0.0000   0.0000  -0.0000
    61   0.0000  -0.0000  -0.0000   0.0000   0.0000  -0.0000   0.0000  -0.0000   0.0000   0.0000
    62   0.0000   0.0000  -0.0000  -0.0000   0.0000   0.0000   0.0000   0.0000  -0.0000  -0.0000
    63  -0.0000  -0.0000  -0.0000   0.0000   0.0000   0.0000  -0.0000  -0.0000  -0.0000   0.0000
    64   0.0000   0.0000   0.0000   0.0000   0.0000  -0.0000  -0.0000  -0.0000  -0.0000  -0.0000
    65   0.0000   0.0001   0.0000   0.0000   0.0000   0.0000  -0.0000  -0.0001  -0.0003   0.0011
    66  -0.0000  -0.0000   0.0000  -0.0000  -0.0000   0.0000   0.0000   0.0000   0.0000   0.0000
    67  -0.0000  -0.0000  -0.0000  -0.0000   0.0000   0.0000   0.0000   0.0000  -0.0000   0.0000
    68  -0.0000   0.0000   0.0000   0.0000  -0.0000   0.0000  -0.0000   0.0003  -0.0001   0.0008
    69   0.0002   0.0000  -0.0001  -0.0000  -0.0000  -0.0000  -0.0000   0.0000  -0.0000  -0.0000
    70   0.0000  -0.0000   0.0000  -0.0001  -0.0000   0.0000  -0.0000   0.0000  -0.0000  -0.0000
    71  -0.0000  -0.0001   0.0000   0.0000  -0.0000   0.0000   0.0000  -0.0001  -0.0001   0.0001
    72   0.0000   0.0000  -0.0000  -0.0000   0.0000  -0.0000  -0.0000   0.0001   0.0001  -0.0002
    73  -0.0000  -0.0000   0.0000   0.0000   0.0000  -0.0004   0.0000  -0.0000   0.0000   0.0000
    74  -0.0000   0.0000   0.0000  -0.0000  -0.0004  -0.0000  -0.0000   0.0000  -0.0000  -0.0000
    75  -0.0000   0.0000  -0.0000   0.0004   0.0000  -0.0000  -0.0000   0.0000  -0.0000  -0.0000
    76  -0.0001   0.0000   0.0004   0.0000  -0.0000  -0.0000  -0.0000   0.0000   0.0000  -0.0000
    77   0.0000  -0.0004  -0.0000  -0.0000   0.0000  -0.0000   0.0001  -0.0001  -0.0001   0.0001
[...]
  108    5.37330596683816E-16  4.98732999343332E-16 -1.14491749414469E-16  3.31765864780564E-17

 column          97                    98                    99                   100
 row
   97    1.00000000000000E+00
   98   -2.07760241302535E-17  1.00000000000000E+00
   99   -1.56779869306140E-16 -1.86197694141196E-17  9.99999999999998E-01
  100    8.46628489021986E-17  5.15466664611933E-17 -8.41192097563249E-16  9.99999999999998E-01
  101    1.48311657415965E-16 -3.33206297246929E-16  1.59248037287656E-16 -2.66600880526102E-16
  102    1.77968821998180E-16  3.36116808332814E-16  1.11252685498001E-15 -6.51777440117191E-16
  103   -4.32790637366638E-16 -1.82889977542609E-16  1.31136984443377E-15 -6.81691606407004E-16
  104   -2.77987742959389E-17  2.43601911070008E-16 -8.77204121869156E-16 -9.14725795460724E-16
  105    2.05795124864905E-17  9.10463009509439E-17  5.31722934170527E-16  1.04108896309387E-15
  106    2.39107236614522E-16  5.94985588304574E-16  2.03438679205643E-16  9.97346937618016E-16
  107    1.83887623535797E-16 -2.23444432749487E-16  3.62647032089821E-16  1.77613918502003E-16
  108    5.34294830600857E-16 -7.28583859910259E-17 -1.68932251000398E-16  1.03378677146493E-16

 column         101                   102                   103                   104
 row
  101    1.00000000000000E+00
  102   -9.76887432494794E-17  1.00000000000000E+00
  103    3.73318918892696E-16 -8.02466811660328E-16  1.00000000000000E+00
  104    6.27780559970113E-16 -9.29506507155422E-16  1.20006262126362E-15  9.99999999999999E-01
  105    2.26261876090292E-16  6.22652172521182E-16  8.66505652376525E-16 -8.06147619802401E-16
  106   -1.09350894699346E-16  2.37716990850282E-16  5.76140164019350E-17 -9.75189032173876E-17
  107   -4.86396955842537E-16  2.02750764375381E-16 -2.97730641665621E-16  1.06742500082541E-15
  108   -2.68285827581538E-16  4.27446706502410E-17  2.36898174688083E-16 -6.53231808922516E-17

 column         105                   106                   107                   108
 row
  105    1.00000000000000E+00
  106   -3.29143874292339E-16  1.00000000000000E+00
  107    7.80655210342717E-17  5.76128080564962E-16  1.00000000000000E+00
  108    8.69530142333375E-17 -4.33680868994202E-17  8.53809210832335E-18  1.00000000000000E+00


 SFO contributions (%) per orbital
 (multiplication by the orbital occupation yields the SFO Gross Populations)

 Orb.:       18     19     20     21     22     23     24     25     26     27     28     29     30     31
 occup:     2.00   2.00   2.00   2.00   2.00   2.00   2.00   2.00   2.00   2.00   0.00   0.00   0.00   0.00
 CF+SFO     ----   ----   ----   ----   ----   ----   ----   ----   ----   ----   ----   ----   ----   ----
 ------
     16:   50.00   0.00   0.01   0.00   0.00   0.00   0.00   0.00   0.00   0.00   0.00   0.03  -0.04   0.00
     17:    1.03  95.32   1.05   0.00   0.00   1.08   0.00   0.00  -0.00   0.00   0.21   0.14   0.45  -0.00
     18:    0.22  -0.00  63.19   0.00  -0.00  34.29   0.00   0.00  -0.00  -0.00   1.16   0.22   0.02  -0.00
     19:    0.00   0.00   0.00  17.04  40.96   0.00  40.27   1.26   0.07   0.31   0.00   0.00   0.00   0.01
     20:    0.00   0.00   0.00  40.96  17.04   0.00   1.26  40.27   0.31   0.07   0.00  -0.00  -0.00   0.02
     21:    0.00   0.00   0.00   9.26   1.41   0.00   1.18   7.61  76.30   4.24   0.00   0.00  -0.00   0.00
     22:    0.00   0.00   0.00   1.41   9.26   0.00   7.61   1.18   4.24  76.30   0.00  -0.00   0.00   0.00
     23:    0.65   0.02   2.54   0.00   0.00  17.86   0.00   0.00   0.00   0.00  71.81  -0.95   6.69  -0.00
     24:   -0.08  -0.01   0.04   0.00   0.00   0.15   0.00   0.00   0.00   0.00   2.11  45.19  42.09   0.00
     25:    0.02   0.01   0.26  -0.00  -0.00   0.08   0.00   0.00   0.00   0.00   0.05  -2.30 -23.24   0.00
     26:    0.00  -0.00   0.00   0.22   0.02  -0.00  -0.06  -0.02  -0.11  -0.02   0.00  -0.00  -0.00  98.39
     29:    0.00   0.00   0.00   0.10   0.00   0.00   0.39   0.29   0.22   0.01   0.00   0.00   0.00   1.41
     33:    0.08   0.00  -0.07  -0.00  -0.00   0.80   0.00   0.00   0.00   0.00   1.63   0.55  -0.89   0.00
     84:   47.75   2.24   1.01  -0.00  -0.00   0.04   0.00   0.00  -0.00   0.00   0.18   0.28   0.95  -0.00
     85:    0.01   0.16   1.90  10.89  18.44   2.61  45.61   0.39   4.20  13.12   0.85   0.05   0.12  -0.17
     86:    0.10   2.19  25.51   1.03   5.50  35.02   1.67   8.55   1.05   2.80  11.43   0.65   1.61  -0.00
     87:    0.02   0.42   4.87  19.23   7.23   6.64   1.61  39.95  13.15   2.48   2.18   0.12   0.31  -0.15
     88:    0.05  -0.11  -0.08  -0.00  -0.00   0.51   0.00   0.00  -0.00  -0.00   5.59  57.28  77.95  -0.00
     89:   -0.00  -0.15  -0.13  -0.09  -0.15   0.26   0.05   0.00   0.06   0.17   0.34  -0.42  -2.19  -0.18
     90:   -0.00  -0.31  -0.26  -0.02  -0.09   0.54   0.02   0.00   0.01   0.10   0.72  -0.88  -4.59  -0.06


 Summation over all MOs, multiplied by occupation: Total SFO Gross Populations in this Irrep
 ===========================================================================================

     2.00    2.00    2.00    2.00    2.00    2.00    2.00    2.00    2.00    2.00    2.00    2.00
     2.00    2.00    2.00    2.00    1.99    1.96    2.00    2.00    2.00    2.00    0.43    0.00
     0.01    0.00    0.00    0.02    0.02    0.00    0.00    0.01    0.02    0.00    0.00   -0.00
     0.00    0.00    0.00    0.00    0.00    0.00    0.00    0.00    0.00    0.00    0.00   -0.00
     0.00    0.00    0.00   -0.00    0.00    0.00    0.00   -0.00   -0.00   -0.00   -0.00    0.00
     0.00    0.00    0.00    0.00   -0.00    0.00    0.00    0.00   -0.00   -0.00   -0.00    0.00
     0.00    0.00   -0.00   -0.00   -0.00    0.00    0.00    0.00    0.00   -0.00    2.00    1.98
     1.95    1.67    1.91    0.01    0.00   -0.00    0.00    0.00    0.00    0.00    0.00    0.00
    -0.00    0.00    0.00    0.00    0.00    0.00    0.00    0.00    0.00    0.00    0.00   -0.00



 List of all MOs, ordered by energy, with the most significant SFO gross populations
 ===================================================================================

 Each percentage contribution in the table below corresponds to the indicated SFO.
 In general, a SFO may be a linear combination of several Fragment Orbitals on the same,
 or on symmetry-related Fragments. Only the first 'member' of such a combination is
 specified here. A full definition of all SFOs is given in an earlier part of the output.
 The numbering of the SFOs in this table does NOT include the Core Orbitals, and starts
 from one for each symmetry representation, as in the SFO definition list earlier.

       E(eV)  Occ       MO           %     SFO (first member)   E(eV)  Occ   Fragment
 -------------------------------------------------------------------------------------

     -13.489  2.00    19 A         95.32%    17 A             -20.135  2.00     1 BrF
                                    2.24%     2 A             -15.093  2.00     2 F
                                    2.19%     4 A               2.944  2.00     2 F
      -5.665  2.00    20 A         63.19%    18 A             -11.857  2.00     1 BrF
                                   25.51%     4 A               2.944  2.00     2 F
                                    4.87%     5 A               2.944  2.00     2 F
                                    2.54%    23 A              -6.465  0.00     1 BrF
                                    1.90%     3 A               2.944  2.00     2 F
                                    1.05%    17 A             -20.135  2.00     1 BrF
                                    1.01%     2 A             -15.093  2.00     2 F
      -3.526  2.00    21 A         40.96%    20 A              -9.993  2.00     1 BrF
                                   19.23%     5 A               2.944  2.00     2 F
                                   17.04%    19 A              -9.993  2.00     1 BrF
                                   10.89%     3 A               2.944  2.00     2 F
                                    9.26%    21 A              -7.910  2.00     1 BrF
                                    1.41%    22 A              -7.910  2.00     1 BrF
                                    1.03%     4 A               2.944  2.00     2 F
      -3.526  2.00    22 A         40.96%    19 A              -9.993  2.00     1 BrF
                                   18.44%     3 A               2.944  2.00     2 F
                                   17.04%    20 A              -9.993  2.00     1 BrF
                                    9.26%    22 A              -7.910  2.00     1 BrF
                                    7.23%     5 A               2.944  2.00     2 F
                                    5.50%     4 A               2.944  2.00     2 F
                                    1.41%    21 A              -7.910  2.00     1 BrF
      -2.806  2.00    23 A         35.02%     4 A               2.944  2.00     2 F
                                   34.29%    18 A             -11.857  2.00     1 BrF
                                   17.86%    23 A              -6.465  0.00     1 BrF
                                    6.64%     5 A               2.944  2.00     2 F
                                    2.61%     3 A               2.944  2.00     2 F
                                    1.08%    17 A             -20.135  2.00     1 BrF
      -2.787  2.00    24 A         45.61%     3 A               2.944  2.00     2 F
                                   40.27%    19 A              -9.993  2.00     1 BrF
                                    7.61%    22 A              -7.910  2.00     1 BrF
                                    1.67%     4 A               2.944  2.00     2 F
                                    1.61%     5 A               2.944  2.00     2 F
                                    1.26%    20 A              -9.993  2.00     1 BrF
                                    1.18%    21 A              -7.910  2.00     1 BrF
      -2.787  2.00    25 A         40.27%    20 A              -9.993  2.00     1 BrF
                                   39.95%     5 A               2.944  2.00     2 F
                                    8.55%     4 A               2.944  2.00     2 F
                                    7.61%    21 A              -7.910  2.00     1 BrF
                                    1.26%    19 A              -9.993  2.00     1 BrF
                                    1.18%    22 A              -7.910  2.00     1 BrF
      -1.087  2.00    26 A         76.30%    21 A              -7.910  2.00     1 BrF
                                   13.15%     5 A               2.944  2.00     2 F
                                    4.24%    22 A              -7.910  2.00     1 BrF
                                    4.20%     3 A               2.944  2.00     2 F
                                    1.05%     4 A               2.944  2.00     2 F
      -1.087  2.00    27 A         76.30%    22 A              -7.910  2.00     1 BrF
                                   13.12%     3 A               2.944  2.00     2 F
                                    4.24%    21 A              -7.910  2.00     1 BrF
                                    2.80%     4 A               2.944  2.00     2 F
                                    2.48%     5 A               2.944  2.00     2 F
       2.317  0.00    28 A         71.81%    23 A              -6.465  0.00     1 BrF
                                   11.43%     4 A               2.944  2.00     2 F
                                    5.59%     6 A               7.773  0.00     2 F
                                    2.18%     5 A               2.944  2.00     2 F
                                    2.11%    24 A               0.814  0.00     1 BrF
                                    1.63%    33 A              11.828  0.00     1 BrF
                                    1.16%    18 A             -11.857  2.00     1 BrF
       5.630  0.00    29 A         57.28%     6 A               7.773  0.00     2 F
                                   45.19%    24 A               0.814  0.00     1 BrF
                                   -2.30%    25 A               3.332  0.00     1 BrF
       6.236  0.00    30 A         77.95%     6 A               7.773  0.00     2 F
                                   42.09%    24 A               0.814  0.00     1 BrF
                                  -23.24%    25 A               3.332  0.00     1 BrF
                                    6.69%    23 A              -6.465  0.00     1 BrF
                                   -4.59%     8 A              22.092  0.00     2 F
                                   -2.19%     7 A              22.092  0.00     2 F
                                    1.61%     4 A               2.944  2.00     2 F



 =======================================================================
 Electrostatic potential at the Nuclei due to electrons and other nuclei
 =======================================================================
  
         Atom                  Potential
         ----                  ---------
     1)   Br                176.12454328
     2)   F                  26.85979710
     3)   F                  26.85976222
 
 
 ========================
 No memory problems found
 ========================
 
 Maximum number of active allocate calls:         620
 
 *******************************************************************************

                             A D F   E X I T
 NORMAL TERMINATION



 =================
 Timing Statistics
 =================
  
 Total Used :                     CPU=        5.82      System=        0.21     Elapsed=        6.31

 Calls  Section                     ( Mean, Percentage )
 ---------------------------------------------------------------------------------------------------
     3  ><      ................      0.00    0.00             0.00    0.47             0.00    0.02
     1  INIT    ................      0.47    8.15             0.02   11.63             0.50    7.94
     1  GEOMET  ................      0.03    0.52             0.01    3.72             0.25    3.96
     1  FRAGM   ................      0.01    0.17             0.01    5.12             0.03    0.51
     1  INPUTA  ................      0.00    0.00             0.00    0.00             0.00    0.01
     1  ATDEN   ................      0.00    0.09             0.00    0.00             0.01    0.08
     1  MAINSY  ................      0.01    0.14             0.00    1.86             0.02    0.27
     1  SYMFIT  ................      0.00    0.02             0.00    0.47             0.00    0.04
     1  CORORT  ................      0.00    0.02             0.00    0.00             0.00    0.01
     1  SYMORB  ................      0.00    0.05             0.00    0.00             0.00    0.05
     1  CLSMAT  ................      0.01    0.14             0.00    0.00             0.01    0.11
     1  ORTHON  ................      0.01    0.26             0.00    0.00             0.02    0.25
     1  GENPT   ................      0.11    1.96             0.00    1.86             0.12    1.87
     1  PTBAS   ................      0.04    0.64             0.00    0.00             0.04    0.58
    16  FOCKY   ................      0.12   31.77             0.00    8.37             0.12   29.69
    16  FOCKTR  ................      0.00    0.52             0.00    0.47             0.00    0.50
    16  SDIIS   ................      0.00    0.98             0.00    1.86             0.00    0.99
     1  COREPS  ................      0.10    1.69             0.00    0.00             0.10    1.57
     1  TOTEN   ................      0.31    5.31             0.00    0.93             0.31    4.94
     1  POPAN   ................      0.00    0.07             0.00    0.00             0.01    0.13
     1  DEBYE   ................      0.00    0.05             0.00    0.00             0.00    0.04
     1  INPUTE  ................      0.00    0.00             0.00    0.00             0.00    0.02
     1  SYMORE  ................      0.00    0.03             0.00    0.00             0.00    0.02
     1  METS    ................      0.00    0.00             0.00    0.00             0.00    0.01
     1  CETS    ................      0.01    0.17             0.00    1.40             0.03    0.41
     1  POPUL   ................      2.72   46.78             0.13   60.93             2.87   45.49
     1  EXIT PROCEDURE .........      0.03    0.48             0.00    0.93             0.03    0.49


 Currently Open Files (EXIT00)
 ====================

 Unit    Access Format  Status   Type       Ident (file)
 -------------------------------------------------------
   3      SEQ    FORM   TRANSP  NORMAL      LOGFILE
                                          ( logfile )


 Buffered I/O statistics
 =======================
 Memory available:                     67108864
 Number of records fitting in memory:     16131
 Input :   1.3% of                        52664  *4k bytes
 Output:  13.1% of                         4055  *4k bytes
 Records from serial files evicted:           0
                    others evicted:           0
 Hash table lookups:     149930 with          0 conflicts (  0.00%)

 ***************************************************************************************************
 (LOGFILE)
 <May09-2019> <17:12:12>  ADF 2017  RunTime: May09-2019 17:12:12  Nodes: 1  Procs: 12
 <May09-2019> <17:12:12>  *** (NO TITLE) ***
 <May09-2019> <17:12:12>  RunType   : SINGLE POINT
 <May09-2019> <17:12:13>  Net Charge: -1 (Nuclei minus Electrons)
 <May09-2019> <17:12:13>  Symmetry  : NOSYM
 <May09-2019> <17:12:13>  >>>> FRAGM
  Coordinates
    Atom         X           Y           Z   (Angstrom)
    1.Br       -4.925156    3.099687   -0.045735
    2.F        -3.858520    1.365225    0.007200
    3.F        -5.991705    4.834007   -0.098666
 <May09-2019> <17:12:13>  >>>> CORORT
 <May09-2019> <17:12:13>  >>>> CLSMAT
 <May09-2019> <17:12:13>  >>>> ORTHON
 <May09-2019> <17:12:13>  >>>> GENPT
 <May09-2019> <17:12:13>  Block Length= 128
 <May09-2019> <17:12:13>  >>>> PTBAS
 <May09-2019> <17:12:13>  >>>> CYCLE
 <May09-2019> <17:12:13>              |Error|         MaxErr       Wt(A-DIIS)
 <May09-2019> <17:12:13>      1      1.70697188      0.91346216
 <May09-2019> <17:12:13>      2      1.44446607      0.62077038    100.0
 <May09-2019> <17:12:13>      3      0.98627872      0.42425989    100.0
 <May09-2019> <17:12:13>      4      0.94361805      0.40937208    100.0
 <May09-2019> <17:12:13>      5      4.07658293      1.63924920    100.0
 <May09-2019> <17:12:14>      6      1.71572526      0.51234257    100.0
 <May09-2019> <17:12:14>      7      0.29350562      0.09942636     99.4
 <May09-2019> <17:12:14>      8      0.37425413      0.13784255    100.0
 <May09-2019> <17:12:14>      9      0.07490023      0.02046244     19.7
 <May09-2019> <17:12:14>     10      0.05740383      0.01686912     16.0
 <May09-2019> <17:12:14>     11      0.00290988      0.00058754      0.0
 <May09-2019> <17:12:14>     12      0.00026082      0.00008563      0.0
 <May09-2019> <17:12:14>     13      0.00012882      0.00004666      0.0
 <May09-2019> <17:12:15>     14      0.00001008      0.00000273      0.0
 <May09-2019> <17:12:15>     15      0.00000225      0.00000074      0.0
 <May09-2019> <17:12:15>  SCF converged
 <May09-2019> <17:12:15>     16      0.00000012      0.00000004      0.0
 <May09-2019> <17:12:15>  >>>> TOTEN
 <May09-2019> <17:12:15>  >>>> POPAN
 <May09-2019> <17:12:15>  >>>> DEBYE
 <May09-2019> <17:12:15>  >>>> AMETS
 <May09-2019> <17:12:18>   Bond Energy          -0.12905334 a.u.
 <May09-2019> <17:12:18>   Bond Energy          -3.51172006 eV
 <May09-2019> <17:12:18>   Bond Energy         -80.98       kcal/mol
 <May09-2019> <17:12:18>  >>>> POPUL
 <May09-2019> <17:12:18>  NORMAL TERMINATION
 <May09-2019> <17:12:18>  END
