
Create H   file=TZ2P-H
XC
  GGA blyp
  DISPERSION Grimme3 BJDAMP
End
End Input

 *******************************************************************************
 *                                                                             *
 *  -------------------------------------                                      *
 *   Amsterdam Density Functional  (ADF)         2017                          *
 *  -------------------------------------                                      *
 *                                               r58813 2017-04-12             *
 *                                                                             *
 *                                                                             *
 *                              =================                              *
 *                              |               |                              *
 *                              |     A D F     |                              *
 *                              |               |                              *
 *                              =================                              *
 *                                                                             *
 *                                                                             *
 *   Online information and documentation:  https://www.scm.com/support/       *
 *   E-mail:  support@scm.com   info@scm.com                                   *
 *                                                                             *
 *   Scientific publications using ADF results must be properly referenced     *
 *   See the User Manuals (or the web site) for recommended citations          *
 *   The terms and conditions of the End User License Agreement apply to       *
 *   the use of ADF, https://www.scm.com/license-terms/                        *
 *                                                                             *
 **********************  x86_64_linux_intel / intelmpi  ************************
 
 Licensed to: VU/FEW (+ SARA) / ALGEMEEN / Amsterdam / THE NETHERLANDS
 SCM User ID: u7668
  
 ADF 2017  RunTime: May09-2019 17:12:36  Nodes: 1  Procs: 1

 Temporary files are created in /local/datastore0/tcst25/189808/kid_0.SkKQep

 Hydrogen (TZ2P)



 ===========================
 A T T A C H E D   F I L E S
 ===========================
  
 CREATE - Data File:    TZ2P-H
                        Hydrogen (TZ2P)



 ===============================
 M O D E L   P A R A M E T E R S
 ===============================
  
 DENSITY FUNCTIONAL POTENTIAL (scf)
    LDA:                               Exchange only                           == Not Default ==
    Gradient Corrections:              Becke88 LYP                             == Not Default ==

 SPIN  (restricted / unrestr.)
    Molecule:                          Restricted                               

 OTHER ASPECTS
    Relativistic Corrections:          ---                                      

    Nuclear Charge Density Model:      Point Charge Nuclei                      
    Core Treatment:                    Frozen Orbital(s)                        

    Hyperfine or Zeeman Interaction:   ---                                      

 Settings for Grimme 3 dispersion correction

      damping                        BJ
      s6                          1.000
      a1                          0.430
      s8                          2.700
      a2                          4.236

 Other (technical) parameters

      alpha                      14.000
      version                         4
 



 =====================================
 S Y M M E T R Y ,   E L E C T R O N S
 =====================================
  
 Symmetry: ATOM

 Irreducible Representations, including subspecies
 -------------------------------------------------
 S
 P:x  P:y  P:z
 D:z2  D:x2-y2  D:xy  D:xz  D:yz
 F:z3  F:z  F:xyz  F:z2x  F:z2y  F:x  F:y


 Configuration of Valence Electrons
 ==================================

          Occupation Numbers
          -------------------------------------------------
 S        1
 P        0
 D        0
 F        0
          -------------------------------------------------

 Total:   1

 Net Charge: 0 (Nuclei minus Electrons)

 Preset values for MO occupations will be applied through SCF cycle no. 1000000
 Thereafter, the program will assign electrons to MOs that are spatially
 similar to the occupied MOs in a "reference" cycle ("KeepOrbitals").
 The reference cycle is always the PREVIOUS cycle: it will evolve with
 the SCF procedure.



 ================================
 (Slater-type)  F U N C T I O N S  ***  (Basis and Fit)  ***
 ================================
  

 Atom Type    1  (H)
 ==============

 Valence Basis Sets:   5
 -----------------------
   1 S    0.690000
   1 S    0.920000
   1 S    1.580000
   2 P    1.250000
   3 D    2.500000


 BAS: List of all Elementary Cartesian Basis Functions
 =====================================================

 The numbering in the list below (to the right of the function characteristics) is referred
 to in print-outs of MO eigenvectors and Mulliken populations in the BAS representation
 (as contrasted to the SFO representation).

 Notes:
 1. The functions are characterized by a polynomial prefactor (powers of x,y,z and r) and
    an exponential decay factor alpha.
 2. Since the basis sets are specific for an atom TYPE, the individual functions occur on
    all atoms of that type.
 3. The word 'Core' in the left margin signals that it is a Core Function (CF) : not a
    degree of freedom in the valence set, but only used to ensure orthogonalization of
    the other valence basis functions on the frozen Core Orbitals.


 (power of) X  Y  Z  R     Alpha  on Atom
            ==========     =====     ==========

 H                                    1
                                  ---------------------------------------------------------------------------
            0  0  0  0     0.690      1
            0  0  0  0     0.920      2
            0  0  0  0     1.580      3
            1  0  0  0     1.250      4
            0  1  0  0     1.250      5
            0  0  1  0     1.250      6
            2  0  0  0     2.500      7
            1  1  0  0     2.500      8
            1  0  1  0     2.500      9
            0  2  0  0     2.500     10
            0  1  1  0     2.500     11
            0  0  2  0     2.500     12

 Total number of charge fitting functions (nprimf)        50
 Total number of Cartesian basis functions (naos)         12
 Total number of Cartesian core functions  (ncos)          0



 BAS: List of all Elementary Cartesian Basis Functions
 =====================================================

 The numbering in the list below (to the right of the function characteristics) is referred
 to in print-outs of MO eigenvectors and Mulliken populations in the BAS representation
 (as contrasted to the SFO representation).

 Notes:
 1. The functions are characterized by a polynomial prefactor (powers of x,y,z and r) and
    an exponential decay factor alpha.
 2. Since the basis sets are specific for an atom TYPE, the individual functions occur on
    all atoms of that type.
 3. The word 'Core' in the left margin signals that it is a Core Function (CF) : not a
    degree of freedom in the valence set, but only used to ensure orthogonalization of
    the other valence basis functions on the frozen Core Orbitals.


 (power of) X  Y  Z  R     Alpha  on Atom
            ==========     =====     ==========

 H                                    1
                                  ---------------------------------------------------------------------------
            0  0  0  0     0.690      1
            0  0  0  0     0.920      2
            0  0  0  0     1.580      3
            1  0  0  0     1.250      4
            0  1  0  0     1.250      5
            0  0  1  0     1.250      6
            2  0  0  0     2.500      7
            1  1  0  0     2.500      8
            1  0  1  0     2.500      9
            0  2  0  0     2.500     10
            0  1  1  0     2.500     11
            0  0  2  0     2.500     12
1
 ***************************************************************************************************



                                              ***********************
                                              *  T E C H N I C A L  *
                                              ***********************
  



 =============================================================
 P A R A L L E L I Z A T I O N  and  V E C T O R I Z A T I O N
 =============================================================
  
 Nr of parallel processes:                                1
 Maximum vector length in NumInt loops:                 128

 IO buffersize (Mb):                                     64.000000



 =====================
 S C F   U P D A T E S
 =====================
  
 Max. nr. of cycles:                               300
 Convergence criterion:                              0.0000000100
   secondary criterion:                              0.0000000100

 Mix parameter (when DIIS does not apply):           0.2000000000
 Special mix parameter for the first cycle:          1.0000000000
 Mixed ADIIS+DIIS will be used
    Max number of expansion vectors:                10
    Pure ADIIS when Max([F,P]) is above              0.1000000000
    Pure DIIS when Max([F,P]) is below               0.0010000000
 Automatic ElectronSmearing (in case of problematic SCF convergence) disabled



 =================
 P R E C I S I O N  ***  (General: NumInt, NeglectFunctionTails, ...)  ***
 =================
  

 NumInt:           Target precision:                12.0000000000
 -------           Initial precision:               10.0000000000
                   Min. precision (optimization):   10.0000000000

 Neglect Functions:          Basis functions:        0.1000000000E-13
 ------------------          Fit functions:          0.1000000000E-13



 ===========================
 L I N E A R   S C A L I N G
 ===========================
  

 Cut-off radii density fit:                        0.1000000000E-97
 Overlap cut-off criterion AO matrix elements:     0.1000000000E-97
 Cut-offs for Coulomb potential and fitted density:0.1000000000E-97
 Cut-off criterion for Coulomb multipole terms:    0.1000000000E-97
 Progressive Convergence parameter:                 0.000000000    
1
 ***************************************************************************************************



                                            ***************************
                                            *  C O M P U T A T I O N  *
                                            ***************************
  

 Number of elements of the density matrix on this node (used, total):        78        78



 ===========================================
 Numerical Integration : Fuzzy Cells (Becke)
 ===========================================
  
 Becke grid quality: VERYGOOD       
  
 Lebedev angular grid order:             min:  13 max:  41
 Nr. of radial points:                   min:  64 max:  64

 Total nr. of points:         64
 Nr. of blocks:                1
 Block length:                64
 Nr. of dummy points:          0


 Test of Precision of the Numerical Integration Grid
 ===================================================

 Integral of the Total Core Density:                   0.00000000000000



 ========================
 Density Fitting (zlmFit)
 ========================
  
 ZlmFit Fit Quality: VERYGOOD       
  
 Max L-expansion:                        min:   0 max:   0
 Nr. of radial interpolation points:     min: 130 max: 130



 =====
 S C F  ***  ScaSCF  ***
 =====
  

 CYCLE    1
 SCF Error: norm([F,P])=      0.000000000000, max([F,P])=      0.000000000000
 orbitals (Q,E):
 ---------------
 S :1...3            ( 1.00    -0.5000)  ( 0.00    -0.0900)  ( 0.00     1.2939)
 P :1...1            ( 0.00     0.1562)
 D :1...1            ( 0.00     2.2917)

 CYCLE    2
 SCF Error: norm([F,P])=      0.031002856008, max([F,P])=      0.026444239384
 orbitals (Q,E):
 ---------------
 S :1...2            ( 1.00    -0.2236)  ( 0.00     0.0977)
 P :1...1            ( 0.00     0.4190)
 D :1...1            ( 0.00     2.5863)

 CYCLE    3
  SDIIS (wt  0.000):  0.2055  0.7945
 A-DIIS (wt  1.000):  0.0000  1.0000
  DIIS coefficients:  0.0000  1.0000
 SCF Error: norm([F,P])=      0.009580013340, max([F,P])=      0.009328518993
 orbitals (Q,E):
 ---------------
 S :1...2            ( 1.00    -0.2440)  ( 0.00     0.0860)
 P :1...1            ( 0.00     0.4030)
 D :1...1            ( 0.00     2.5655)

 CYCLE    4
  SDIIS (wt  0.987):  0.1949  0.8051
 A-DIIS (wt  0.013):  0.0000  1.0000
  DIIS coefficients:  0.1923  0.8077
 SCF Error: norm([F,P])=      0.002320932075, max([F,P])=      0.002286403159
 orbitals (Q,E):
 ---------------
 S :1...2            ( 1.00    -0.2400)  ( 0.00     0.0880)
 P :1...1            ( 0.00     0.4062)
 D :1...1            ( 0.00     2.5697)

 CYCLE    5
  SDIIS (wt  1.000):  0.0132  0.9868
  DIIS coefficients:  0.0132  0.9868
 SCF Error: norm([F,P])=      0.000031553206, max([F,P])=      0.000029840661
 orbitals (Q,E):
 ---------------
 S :1...2            ( 1.00    -0.2400)  ( 0.00     0.0880)
 P :1...1            ( 0.00     0.4062)
 D :1...1            ( 0.00     2.5697)

 CYCLE    6
  SDIIS (wt  1.000): -0.0314  1.0314
  DIIS coefficients: -0.0314  1.0314
 SCF Error: norm([F,P])=      0.000000959925, max([F,P])=      0.000000913629
 orbitals (Q,E):
 ---------------
 S :1...2            ( 1.00    -0.2400)  ( 0.00     0.0880)
 P :1...1            ( 0.00     0.4062)
 D :1...1            ( 0.00     2.5697)

 CYCLE    7
  SDIIS (wt  1.000):  0.0045  0.9955
  DIIS coefficients:  0.0045  0.9955
 SCF Error: norm([F,P])=      0.000000004387, max([F,P])=      0.000000004212
 orbitals (Q,E):
 ---------------
 S :1...2            ( 1.00    -0.2400)  ( 0.00     0.0880)
 P :1...1            ( 0.00     0.4062)
 D :1...1            ( 0.00     2.5697)

 SCF CONVERGED

 CYCLE    8
1
 ***************************************************************************************************



                                                *******************
                                                *  R E S U L T S  *
                                                *******************
  
 *** Setting up for NEW gradients in Focky
 *** Using FIT density in Focky

 Orbital Energies, per Irrep and Spin:
 ======================================
                        Occup              E (au)              E (eV)       Diff (eV) with prev. cycle
                        -----      --------------------        ------       --------------------------
 S
               1        1.000     -0.24003723730291E+00        -6.532              -1.36E-09
               2        0.000      0.87974178151410E-01         2.394
               3        0.000      0.15021841144445E+01        40.877
 P
               1        0.000      0.40615190499536E+00        11.052
 D
               1        0.000      0.25696970808913E+01        69.925


 Partially Occupied:
               1 S                -0.24003723730291E+00
  
 LUMO :        2 S                 0.87974178151410E-01
  


 Orbital Energies, all Irreps
 ========================================

 Irrep        no.  (spin)   Occup              E (au)                E (eV)
 ---------------------------------------------------------------------------
 S             1             1.00       -0.24003723730291E+00        -6.5317
 S             2             0.00        0.87974178151410E-01         2.3939
 P             1             0.00        0.40615190499536E+00        11.0520
 S             3             0.00        0.15021841144445E+01        40.8765
 D             1             0.00        0.25696970808913E+01        69.9250


 All Electron Calculation, thus no Orbital Energies of the Core Orbitals are calculated



 =======================================
 M U L L I K E N   P O P U L A T I O N S
 =======================================
  
 The survey below gives for each atom:
 a) the total charge (Z minus electrons)
 b) the net spin polarization (nr of electrons spin-A minus spin-B)
 c) for each spin the atomic electron valence density (integrated) per L-value.

 Atom              Charge    Spin density          S         P         D         F
 ----              ------    ------------       ------    ------    ------    ------
 1 H              -0.0000                       1.0000    0.0000    0.0000    0.0000

 Populations of individual BAS functions
 ----------------------------------------
 1 H            0.2458  0.6250  0.1292  0.0000  0.0000  0.0000  0.0000  0.0000  0.0000  0.0000
                0.0000  0.0000

 Gross Charges per Atom (Z minus electrons)
 ==========================================
            -0.0000
 Net Total: -0.00000000



 =======================================================================
 Electrostatic potential at the Nuclei due to electrons and other nuclei
 =======================================================================
  
         Atom                  Potential
         ----                  ---------
     1)   H                   0.94873442
 
 
 ========================
 No memory problems found
 ========================
 
 Maximum number of active allocate calls:         363
 
 *******************************************************************************

                             A D F   E X I T
 NORMAL TERMINATION



 =================
 Timing Statistics
 =================
  
 Total Used :                     CPU=        0.30      System=        0.03     Elapsed=        0.33

 Calls  Section                     ( Mean, Percentage )
 ---------------------------------------------------------------------------------------------------
     3  ><      ................      0.00    0.33             0.00    0.00             0.00    0.16
     1  INIT    ................      0.01    3.01             0.01   55.56             0.03    7.92
     1  GEOMET  ................      0.01    2.01             0.00   11.11             0.01    2.72
     1  INPUTA  ................      0.00    0.33             0.00    3.70             0.00    0.58
     1  MAINSY  ................      0.00    1.00             0.00    3.70             0.00    1.39
     1  SYMFIT  ................      0.00    0.00             0.00    3.70             0.00    0.24
     1  CORORT  ................      0.00    0.00             0.00    0.00             0.00    0.08
     1  SYMORB  ................      0.00    0.00             0.00    3.70             0.00    0.28
     1  CLSMAT  ................      0.00    1.34             0.00    0.00             0.00    1.24
     1  ORTHON  ................      0.00    0.33             0.00    3.70             0.00    0.53
     1  GENPT   ................      0.01    3.01             0.00    3.70             0.01    3.01
     1  PTBAS   ................      0.00    1.00             0.00    0.00             0.00    1.09
     8  FOCKY   ................      0.03   69.57             0.00    7.41             0.03   63.81
     8  FOCKTR  ................      0.00    1.00             0.00    0.00             0.00    1.76
     8  SDIIS   ................      0.00    5.02             0.00    0.00             0.00    3.73
     1  COREPS  ................      0.01    4.68             0.00    3.70             0.02    4.81
     1  POPAN   ................      0.00    1.34             0.00    0.00             0.00    1.18
     1  DEBYE   ................      0.00    0.33             0.00    0.00             0.00    0.15
     1  EXIT PROCEDURE .........      0.02    5.69             0.00    0.00             0.02    5.33


 Currently Open Files (EXIT00)
 ====================

 Unit    Access Format  Status   Type       Ident (file)
 -------------------------------------------------------
   3      SEQ    FORM   TRANSP  NORMAL      LOGFILE
                                          ( logfile )


 Buffered I/O statistics
 =======================
 Memory available:                     67108864
 Number of records fitting in memory:     16131
 Input :   0.2% of                        17471  *4k bytes
 Output:  15.2% of                         1045  *4k bytes
 Records from serial files evicted:           0
                    others evicted:           0
 Hash table lookups:      44663 with          0 conflicts (  0.00%)

 ***************************************************************************************************
 (LOGFILE)
 <May09-2019> <17:12:36>  ADF 2017  RunTime: May09-2019 17:12:36  Nodes: 1  Procs: 1
 <May09-2019> <17:12:36>  Hydrogen (TZ2P)
 <May09-2019> <17:12:36>  RunType   : CREATE
 <May09-2019> <17:12:36>  Net Charge: 0 (Nuclei minus Electrons)
 <May09-2019> <17:12:36>  Symmetry  : ATOM
  Coordinates
    Atom         X           Y           Z   (Angstrom)
    1.H         0.000000    0.000000    0.000000
 <May09-2019> <17:12:36>  >>>> CORORT
 <May09-2019> <17:12:36>  >>>> CLSMAT
 <May09-2019> <17:12:36>  >>>> ORTHON
 <May09-2019> <17:12:36>  >>>> GENPT
 <May09-2019> <17:12:36>  Block Length=  64
 <May09-2019> <17:12:36>  >>>> PTBAS
 <May09-2019> <17:12:36>  >>>> CYCLE
 <May09-2019> <17:12:36>              |Error|         MaxErr       Wt(A-DIIS)
 <May09-2019> <17:12:36>      1      0.00000000      0.00000000
 <May09-2019> <17:12:36>      2      0.03100286      0.02644424
 <May09-2019> <17:12:36>      3      0.00958001      0.00932852    100.0
 <May09-2019> <17:12:36>      4      0.00232093      0.00228640      1.3
 <May09-2019> <17:12:36>      5      0.00003155      0.00002984      0.0
 <May09-2019> <17:12:36>      6      0.00000096      0.00000091      0.0
 <May09-2019> <17:12:36>      7      0.00000000      0.00000000      0.0
 <May09-2019> <17:12:36>  SCF converged
 <May09-2019> <17:12:36>      8      0.00000000      0.00000000      0.0
 <May09-2019> <17:12:36>  >>>> POPAN
 <May09-2019> <17:12:36>  >>>> DEBYE
 <May09-2019> <17:12:36>  NORMAL TERMINATION
 <May09-2019> <17:12:36>  END

Create F   file=TZ2P-F
XC
  GGA blyp
  DISPERSION Grimme3 BJDAMP
End
End Input

 *******************************************************************************
 *                                                                             *
 *  -------------------------------------                                      *
 *   Amsterdam Density Functional  (ADF)         2017                          *
 *  -------------------------------------                                      *
 *                                               r58813 2017-04-12             *
 *                                                                             *
 *                                                                             *
 *                              =================                              *
 *                              |               |                              *
 *                              |     A D F     |                              *
 *                              |               |                              *
 *                              =================                              *
 *                                                                             *
 *                                                                             *
 *   Online information and documentation:  https://www.scm.com/support/       *
 *   E-mail:  support@scm.com   info@scm.com                                   *
 *                                                                             *
 *   Scientific publications using ADF results must be properly referenced     *
 *   See the User Manuals (or the web site) for recommended citations          *
 *   The terms and conditions of the End User License Agreement apply to       *
 *   the use of ADF, https://www.scm.com/license-terms/                        *
 *                                                                             *
 **********************  x86_64_linux_intel / intelmpi  ************************
 
 Licensed to: VU/FEW (+ SARA) / ALGEMEEN / Amsterdam / THE NETHERLANDS
 SCM User ID: u7668
  
 ADF 2017  RunTime: May09-2019 17:12:36  Nodes: 1  Procs: 1

 Temporary files are created in /local/datastore0/tcst25/189808/kid_0.YKvEvS

 Fluorine (TZ2P)



 ===========================
 A T T A C H E D   F I L E S
 ===========================
  
 CREATE - Data File:    TZ2P-F
                        Fluorine (TZ2P)



 ===============================
 M O D E L   P A R A M E T E R S
 ===============================
  
 DENSITY FUNCTIONAL POTENTIAL (scf)
    LDA:                               Exchange only                           == Not Default ==
    Gradient Corrections:              Becke88 LYP                             == Not Default ==

 SPIN  (restricted / unrestr.)
    Molecule:                          Restricted                               

 OTHER ASPECTS
    Relativistic Corrections:          ---                                      

    Nuclear Charge Density Model:      Point Charge Nuclei                      
    Core Treatment:                    Frozen Orbital(s)                        

    Hyperfine or Zeeman Interaction:   ---                                      

 Settings for Grimme 3 dispersion correction

      damping                        BJ
      s6                          1.000
      a1                          0.430
      s8                          2.700
      a2                          4.236

 Other (technical) parameters

      alpha                      14.000
      version                         4
 



 =====================================
 S Y M M E T R Y ,   E L E C T R O N S
 =====================================
  
 Symmetry: ATOM

 Irreducible Representations, including subspecies
 -------------------------------------------------
 S
 P:x  P:y  P:z
 D:z2  D:x2-y2  D:xy  D:xz  D:yz
 F:z3  F:z  F:xyz  F:z2x  F:z2y  F:x  F:y


 Configuration of Valence Electrons
 ==================================

          Occupation Numbers
          -------------------------------------------------
 S        2*2
 P        5
 D        0
 F        0
          -------------------------------------------------

 Total:   9

 Net Charge: 0 (Nuclei minus Electrons)

 Preset values for MO occupations will be applied through SCF cycle no. 1000000
 Thereafter, the program will assign electrons to MOs that are spatially
 similar to the occupied MOs in a "reference" cycle ("KeepOrbitals").
 The reference cycle is always the PREVIOUS cycle: it will evolve with
 the SCF procedure.



 ================================
 (Slater-type)  F U N C T I O N S  ***  (Basis and Fit)  ***
 ================================
  

 Atom Type    1  (F)
 ==============

 Valence Basis Sets:  10
 -----------------------
   1 S   10.880000
   1 S    7.700000
   2 S    3.240000
   2 S    1.940000
   2 S    0.740000
   2 P    4.540000
   2 P    2.300000
   2 P    1.240000
   3 D    2.000000
   4 F    3.000000


 BAS: List of all Elementary Cartesian Basis Functions
 =====================================================

 The numbering in the list below (to the right of the function characteristics) is referred
 to in print-outs of MO eigenvectors and Mulliken populations in the BAS representation
 (as contrasted to the SFO representation).

 Notes:
 1. The functions are characterized by a polynomial prefactor (powers of x,y,z and r) and
    an exponential decay factor alpha.
 2. Since the basis sets are specific for an atom TYPE, the individual functions occur on
    all atoms of that type.
 3. The word 'Core' in the left margin signals that it is a Core Function (CF) : not a
    degree of freedom in the valence set, but only used to ensure orthogonalization of
    the other valence basis functions on the frozen Core Orbitals.


 (power of) X  Y  Z  R     Alpha  on Atom
            ==========     =====     ==========

 F                                    1
                                  ---------------------------------------------------------------------------
            0  0  0  0    10.880      1
            0  0  0  0     7.700      2
            0  0  0  1     3.240      3
            0  0  0  1     1.940      4
            0  0  0  1     0.740      5
            1  0  0  0     4.540      6
            0  1  0  0     4.540      7
            0  0  1  0     4.540      8
            1  0  0  0     2.300      9
            0  1  0  0     2.300     10
            0  0  1  0     2.300     11
            1  0  0  0     1.240     12
            0  1  0  0     1.240     13
            0  0  1  0     1.240     14
            2  0  0  0     2.000     15
            1  1  0  0     2.000     16
            1  0  1  0     2.000     17
            0  2  0  0     2.000     18
            0  1  1  0     2.000     19
            0  0  2  0     2.000     20
            3  0  0  0     3.000     21
            2  1  0  0     3.000     22
            2  0  1  0     3.000     23
            1  2  0  0     3.000     24
            1  1  1  0     3.000     25
            1  0  2  0     3.000     26
            0  3  0  0     3.000     27
            0  2  1  0     3.000     28
            0  1  2  0     3.000     29
            0  0  3  0     3.000     30

 Total number of charge fitting functions (nprimf)        85
 Total number of Cartesian basis functions (naos)         30
 Total number of Cartesian core functions  (ncos)          0



 BAS: List of all Elementary Cartesian Basis Functions
 =====================================================

 The numbering in the list below (to the right of the function characteristics) is referred
 to in print-outs of MO eigenvectors and Mulliken populations in the BAS representation
 (as contrasted to the SFO representation).

 Notes:
 1. The functions are characterized by a polynomial prefactor (powers of x,y,z and r) and
    an exponential decay factor alpha.
 2. Since the basis sets are specific for an atom TYPE, the individual functions occur on
    all atoms of that type.
 3. The word 'Core' in the left margin signals that it is a Core Function (CF) : not a
    degree of freedom in the valence set, but only used to ensure orthogonalization of
    the other valence basis functions on the frozen Core Orbitals.


 (power of) X  Y  Z  R     Alpha  on Atom
            ==========     =====     ==========

 F                                    1
                                  ---------------------------------------------------------------------------
            0  0  0  0    10.880      1
            0  0  0  0     7.700      2
            0  0  0  1     3.240      3
            0  0  0  1     1.940      4
            0  0  0  1     0.740      5
            1  0  0  0     4.540      6
            0  1  0  0     4.540      7
            0  0  1  0     4.540      8
            1  0  0  0     2.300      9
            0  1  0  0     2.300     10
            0  0  1  0     2.300     11
            1  0  0  0     1.240     12
            0  1  0  0     1.240     13
            0  0  1  0     1.240     14
            2  0  0  0     2.000     15
            1  1  0  0     2.000     16
            1  0  1  0     2.000     17
            0  2  0  0     2.000     18
            0  1  1  0     2.000     19
            0  0  2  0     2.000     20
            3  0  0  0     3.000     21
            2  1  0  0     3.000     22
            2  0  1  0     3.000     23
            1  2  0  0     3.000     24
            1  1  1  0     3.000     25
            1  0  2  0     3.000     26
            0  3  0  0     3.000     27
            0  2  1  0     3.000     28
            0  1  2  0     3.000     29
            0  0  3  0     3.000     30
1
 ***************************************************************************************************



                                              ***********************
                                              *  T E C H N I C A L  *
                                              ***********************
  



 =============================================================
 P A R A L L E L I Z A T I O N  and  V E C T O R I Z A T I O N
 =============================================================
  
 Nr of parallel processes:                                1
 Maximum vector length in NumInt loops:                 128

 IO buffersize (Mb):                                     64.000000



 =====================
 S C F   U P D A T E S
 =====================
  
 Max. nr. of cycles:                               300
 Convergence criterion:                              0.0000000100
   secondary criterion:                              0.0000000100

 Mix parameter (when DIIS does not apply):           0.2000000000
 Special mix parameter for the first cycle:          1.0000000000
 Mixed ADIIS+DIIS will be used
    Max number of expansion vectors:                10
    Pure ADIIS when Max([F,P]) is above              0.1000000000
    Pure DIIS when Max([F,P]) is below               0.0010000000
 Automatic ElectronSmearing (in case of problematic SCF convergence) disabled



 =================
 P R E C I S I O N  ***  (General: NumInt, NeglectFunctionTails, ...)  ***
 =================
  

 NumInt:           Target precision:                12.0000000000
 -------           Initial precision:               10.0000000000
                   Min. precision (optimization):   10.0000000000

 Neglect Functions:          Basis functions:        0.1000000000E-13
 ------------------          Fit functions:          0.1000000000E-13



 ===========================
 L I N E A R   S C A L I N G
 ===========================
  

 Cut-off radii density fit:                        0.1000000000E-97
 Overlap cut-off criterion AO matrix elements:     0.1000000000E-97
 Cut-offs for Coulomb potential and fitted density:0.1000000000E-97
 Cut-off criterion for Coulomb multipole terms:    0.1000000000E-97
 Progressive Convergence parameter:                 0.000000000    
1
 ***************************************************************************************************



                                            ***************************
                                            *  C O M P U T A T I O N  *
                                            ***************************
  

 Number of elements of the density matrix on this node (used, total):       465       465



 ===========================================
 Numerical Integration : Fuzzy Cells (Becke)
 ===========================================
  
 Becke grid quality: VERYGOOD       
  
 Lebedev angular grid order:             min:  13 max:  41
 Nr. of radial points:                   min:  76 max:  76

 Total nr. of points:         76
 Nr. of blocks:                1
 Block length:                76
 Nr. of dummy points:          0


 Test of Precision of the Numerical Integration Grid
 ===================================================

 Integral of the Total Core Density:                   0.00000000000000



 ========================
 Density Fitting (zlmFit)
 ========================
  
 ZlmFit Fit Quality: VERYGOOD       
  
 Max L-expansion:                        min:   0 max:   0
 Nr. of radial interpolation points:     min: 170 max: 170



 =====
 S C F  ***  ScaSCF  ***
 =====
  

 CYCLE    1
 SCF Error: norm([F,P])=      0.000000000000, max([F,P])=      0.000000000000
 orbitals (Q,E):
 ---------------
 S :1...5            ( 2.00   -40.4878)  ( 2.00   -10.0106)  ( 0.00    -4.4145)  ( 0.00    -2.1243)
                     ( 0.00    34.3132)
 P :1...3            ( 5.00   -10.1248)  ( 0.00    -4.4262)  ( 0.00    -2.4124)
 D :1...1            ( 0.00    -4.0000)
 F :1...1            ( 0.00    -2.2500)

 CYCLE    2
  SDIIS (wt  0.000):  1.0000 -0.0000
 A-DIIS (wt  1.000):  0.0000  1.0000
  DIIS coefficients:  0.0000  1.0000
 SCF Error: norm([F,P])=     11.373794780581, max([F,P])=      4.777759414031
 orbitals (Q,E):
 ---------------
 S :1...3            ( 2.00   -18.8794)  ( 2.00    -0.0304)  ( 0.00     0.3093)
 P :1...2            ( 5.00     0.3553)  ( 0.00     1.5643)
 D :1...1            ( 0.00     1.6494)
 F :1...1            ( 0.00     4.0453)

 CYCLE    3
  SDIIS (wt  0.000):  0.2302  0.7698
 A-DIIS (wt  1.000):  0.4427  0.5573
  DIIS coefficients:  0.4427  0.5573
 SCF Error: norm([F,P])=      5.107371177545, max([F,P])=      3.125425661947
 orbitals (Q,E):
 ---------------
 S :1...3            ( 2.00   -24.7932)  ( 2.00    -1.7827)  ( 0.00    -0.0636)
 P :1...2            ( 5.00    -1.0793)  ( 0.00     0.2021)
 D :1...1            ( 0.00     0.6865)
 F :1...1            ( 0.00     2.8888)

 CYCLE    4
  SDIIS (wt  0.000): -0.0128  0.1085  0.9043
 A-DIIS (wt  1.000):  0.0000  0.0000  1.0000
  DIIS coefficients:  0.0000  0.0000  1.0000
 SCF Error: norm([F,P])=      0.965884247460, max([F,P])=      0.451655557762
 orbitals (Q,E):
 ---------------
 S :1...3            ( 2.00   -23.6749)  ( 2.00    -0.7847)  ( 0.00     0.0644)
 P :1...2            ( 5.00    -0.1299)  ( 0.00     0.5762)
 D :1...1            ( 0.00     1.2513)
 F :1...1            ( 0.00     3.5825)

 CYCLE    5
  SDIIS (wt  0.000):  0.0122 -0.0391  0.5749  0.4520
 A-DIIS (wt  1.000):  0.0000  0.0000  0.6712  0.3288
  DIIS coefficients:  0.0000  0.0000  0.6712  0.3288
 SCF Error: norm([F,P])=      1.674963411166, max([F,P])=      0.825318021724
 orbitals (Q,E):
 ---------------
 S :1...3            ( 2.00   -24.3044)  ( 2.00    -1.0529)  ( 0.00     0.0313)
 P :1...2            ( 5.00    -0.3714)  ( 0.00     0.4442)
 D :1...1            ( 0.00     1.1317)
 F :1...1            ( 0.00     3.4351)

 CYCLE    6
  SDIIS (wt  0.024):  0.0029  0.0040  0.0564 -0.0876  1.0243
 A-DIIS (wt  0.976):  0.0000  0.0000  0.0000  0.0000  1.0000
  DIIS coefficients:  0.0001  0.0001  0.0013 -0.0021  1.0006
 SCF Error: norm([F,P])=      0.199607562059, max([F,P])=      0.097634841195
 orbitals (Q,E):
 ---------------
 S :1...3            ( 2.00   -24.5137)  ( 2.00    -1.1478)  ( 0.00     0.0173)
 P :1...2            ( 5.00    -0.4644)  ( 0.00     0.4071)
 D :1...1            ( 0.00     1.0935)
 F :1...1            ( 0.00     3.3875)

 CYCLE    7
  SDIIS (wt  0.000): -0.0005  0.0010  0.0222 -0.0066  0.6116  0.3724
 A-DIIS (wt  1.000):  0.0000  0.0000  0.0000  0.0000  0.6122  0.3878
  DIIS coefficients:  0.0000  0.0000  0.0000  0.0000  0.6122  0.3878
 SCF Error: norm([F,P])=      0.266507541611, max([F,P])=      0.126514736478
 orbitals (Q,E):
 ---------------
 S :1...3            ( 2.00   -24.3946)  ( 2.00    -1.0985)  ( 0.00     0.0225)
 P :1...2            ( 5.00    -0.4159)  ( 0.00     0.4255)
 D :1...1            ( 0.00     1.1136)
 F :1...1            ( 0.00     3.4123)

 CYCLE    8
  SDIIS (wt  0.859):  0.0000 -0.0000 -0.0010  0.0023  0.0294 -0.0834  1.0527
 A-DIIS (wt  0.141):  0.0000  0.0000  0.0000  0.0000  0.0000  0.0000  1.0000
  DIIS coefficients:  0.0000 -0.0000 -0.0009  0.0020  0.0252 -0.0716  1.0453
 SCF Error: norm([F,P])=      0.030968782312, max([F,P])=      0.014981503364
 orbitals (Q,E):
 ---------------
 S :1...3            ( 2.00   -24.3770)  ( 2.00    -1.0904)  ( 0.00     0.0233)
 P :1...2            ( 5.00    -0.4080)  ( 0.00     0.4287)
 D :1...1            ( 0.00     1.1172)
 F :1...1            ( 0.00     3.4167)

 CYCLE    9
  SDIIS (wt  0.981): -0.0000  0.0000 -0.0001 -0.0004  0.0017  0.0154  0.0457  0.9377
 A-DIIS (wt  0.019):  0.0000  0.0000  0.0000  0.0000  0.0000  0.0000  0.0000  1.0000
  DIIS coefficients: -0.0000  0.0000 -0.0001 -0.0004  0.0017  0.0151  0.0448  0.9389
 SCF Error: norm([F,P])=      0.006059807168, max([F,P])=      0.002904332574
 orbitals (Q,E):
 ---------------
 S :1...3            ( 2.00   -24.3801)  ( 2.00    -1.0917)  ( 0.00     0.0232)
 P :1...2            ( 5.00    -0.4093)  ( 0.00     0.4282)
 D :1...1            ( 0.00     1.1167)
 F :1...1            ( 0.00     3.4160)

 CYCLE   10
  SDIIS (wt  1.000): -0.0000  0.0000  0.0000 -0.0000 -0.0005 -0.0009  1.0014
  DIIS coefficients: -0.0000  0.0000  0.0000 -0.0000 -0.0005 -0.0009  1.0014
 SCF Error: norm([F,P])=      0.000165577008, max([F,P])=      0.000079185307
 orbitals (Q,E):
 ---------------
 S :1...3            ( 2.00   -24.3800)  ( 2.00    -1.0917)  ( 0.00     0.0232)
 P :1...2            ( 5.00    -0.4092)  ( 0.00     0.4282)
 D :1...1            ( 0.00     1.1167)
 F :1...1            ( 0.00     3.4160)

 CYCLE   11
  SDIIS (wt  1.000): -0.0000  0.0000 -0.0000 -0.0003 -0.0117  1.0121
  DIIS coefficients: -0.0000  0.0000 -0.0000 -0.0003 -0.0117  1.0121
 SCF Error: norm([F,P])=      0.000000045105, max([F,P])=      0.000000021900
 orbitals (Q,E):
 ---------------
 S :1...3            ( 2.00   -24.3800)  ( 2.00    -1.0917)  ( 0.00     0.0232)
 P :1...2            ( 5.00    -0.4092)  ( 0.00     0.4282)
 D :1...1            ( 0.00     1.1167)
 F :1...1            ( 0.00     3.4160)

 CYCLE   12
  SDIIS (wt  1.000): -0.0000  0.0075  0.9925
  DIIS coefficients: -0.0000  0.0075  0.9925
 SCF Error: norm([F,P])=      0.000000000763, max([F,P])=      0.000000000374
 orbitals (Q,E):
 ---------------
 S :1...3            ( 2.00   -24.3800)  ( 2.00    -1.0917)  ( 0.00     0.0232)
 P :1...2            ( 5.00    -0.4092)  ( 0.00     0.4282)
 D :1...1            ( 0.00     1.1167)
 F :1...1            ( 0.00     3.4160)

 SCF CONVERGED

 CYCLE   13
1
 ***************************************************************************************************



                                                *******************
                                                *  R E S U L T S  *
                                                *******************
  
 *** Setting up for NEW gradients in Focky
 *** Using FIT density in Focky

 Orbital Energies, per Irrep and Spin:
 ======================================
                        Occup              E (au)              E (eV)       Diff (eV) with prev. cycle
                        -----      --------------------        ------       --------------------------
 S
               1        2.000     -0.24380013662793E+02      -663.414              -5.72E-10
               2        2.000     -0.10916696572490E+01       -29.706              -4.12E-10
               3        0.000      0.23171521938657E-01         0.631
               4        0.000      0.15801599788495E+01        42.998
               5        0.000      0.48367571090263E+02      1316.149
 P
               1        5.000     -0.40924594303695E+00       -11.136              -3.95E-10
               2        0.000      0.42818717158446E+00        11.652
               3        0.000      0.45634501130520E+01       124.178
 D
               1        0.000      0.11166683619357E+01        30.386
 F
               1        0.000      0.34160293329535E+01        92.955


 Partially Occupied:
               1 P                -0.40924594303695E+00
  
 HOMO :        2 S                -0.10916696572490E+01
 LUMO :        3 S                 0.23171521938657E-01
  


 Orbital Energies, all Irreps
 ========================================

 Irrep        no.  (spin)   Occup              E (au)                E (eV)
 ---------------------------------------------------------------------------
 S             1             2.00       -0.24380013662793E+02      -663.4139
 S             2             2.00       -0.10916696572490E+01       -29.7058
 P             1             5.00       -0.40924594303695E+00       -11.1361
 S             3             0.00        0.23171521938657E-01         0.6305
 P             2             0.00        0.42818717158446E+00        11.6516
 D             1             0.00        0.11166683619357E+01        30.3861
 S             4             0.00        0.15801599788495E+01        42.9983
 F             1             0.00        0.34160293329535E+01        92.9549
 P             3             0.00        0.45634501130520E+01       124.1778
 S             5             0.00        0.48367571090263E+02      1316.1486


 All Electron Calculation, thus no Orbital Energies of the Core Orbitals are calculated



 =======================================
 M U L L I K E N   P O P U L A T I O N S
 =======================================
  
 The survey below gives for each atom:
 a) the total charge (Z minus electrons)
 b) the net spin polarization (nr of electrons spin-A minus spin-B)
 c) for each spin the atomic electron valence density (integrated) per L-value.

 Atom              Charge    Spin density          S         P         D         F
 ----              ------    ------------       ------    ------    ------    ------
 1 F               0.0000                       4.0000    5.0000    0.0000    0.0000

 Populations of individual BAS functions
 ----------------------------------------
 1 F            0.5735  1.4020  1.1462  0.8789 -0.0006  0.3652  0.3652  0.3652  0.9146  0.9146
                0.9146  0.3869  0.3869  0.3869  0.0000  0.0000  0.0000  0.0000  0.0000  0.0000
                0.0000  0.0000  0.0000  0.0000  0.0000  0.0000  0.0000  0.0000  0.0000  0.0000

 Gross Charges per Atom (Z minus electrons)
 ==========================================
             0.0000
 Net Total:  0.00000000



 =======================================================================
 Electrostatic potential at the Nuclei due to electrons and other nuclei
 =======================================================================
  
         Atom                  Potential
         ----                  ---------
     1)   F                  26.51041126
 
 
 ========================
 No memory problems found
 ========================
 
 Maximum number of active allocate calls:         447
 
 *******************************************************************************

                             A D F   E X I T
 NORMAL TERMINATION



 =================
 Timing Statistics
 =================
  
 Total Used :                     CPU=        0.51      System=        0.03     Elapsed=        0.54

 Calls  Section                     ( Mean, Percentage )
 ---------------------------------------------------------------------------------------------------
     3  ><      ................      0.00    0.00             0.00    0.00             0.00    0.10
     1  INIT    ................      0.01    1.58             0.02   53.33             0.03    4.83
     1  GEOMET  ................      0.00    0.59             0.01   20.00             0.01    1.66
     1  INPUTA  ................      0.00    0.20             0.00    3.33             0.00    0.36
     1  MAINSY  ................      0.00    0.99             0.00    0.00             0.00    0.91
     1  SYMFIT  ................      0.00    0.00             0.00    3.33             0.00    0.16
     1  CORORT  ................      0.00    0.00             0.00    0.00             0.00    0.05
     1  SYMORB  ................      0.00    0.00             0.00    3.33             0.00    0.20
     1  CLSMAT  ................      0.01    1.19             0.00    0.00             0.01    0.99
     1  ORTHON  ................      0.00    0.40             0.00    0.00             0.00    0.35
     1  GENPT   ................      0.01    2.96             0.00    0.00             0.02    2.80
     1  PTBAS   ................      0.00    0.59             0.00    0.00             0.00    0.67
    13  FOCKY   ................      0.03   76.48             0.00    0.00             0.03   71.85
    13  FOCKTR  ................      0.00    2.17             0.00    3.33             0.00    2.14
    13  SDIIS   ................      0.00    4.35             0.00    0.00             0.00    4.15
     1  COREPS  ................      0.02    4.35             0.00    0.00             0.02    4.11
     1  POPAN   ................      0.00    0.99             0.00    3.33             0.01    1.11
     1  DEBYE   ................      0.00    0.00             0.00    0.00             0.00    0.10
     1  EXIT PROCEDURE .........      0.02    3.16             0.00   10.00             0.02    3.47


 Currently Open Files (EXIT00)
 ====================

 Unit    Access Format  Status   Type       Ident (file)
 -------------------------------------------------------
   3      SEQ    FORM   TRANSP  NORMAL      LOGFILE
                                          ( logfile )


 Buffered I/O statistics
 =======================
 Memory available:                     67108864
 Number of records fitting in memory:     16131
 Input :   0.1% of                        27805  *4k bytes
 Output:  13.5% of                         1382  *4k bytes
 Records from serial files evicted:           0
                    others evicted:           0
 Hash table lookups:      71840 with          0 conflicts (  0.00%)

 ***************************************************************************************************
 (LOGFILE)
 <May09-2019> <17:12:36>  ADF 2017  RunTime: May09-2019 17:12:36  Nodes: 1  Procs: 1
 <May09-2019> <17:12:36>  Hydrogen (TZ2P)
 <May09-2019> <17:12:36>  RunType   : CREATE
 <May09-2019> <17:12:36>  Net Charge: 0 (Nuclei minus Electrons)
 <May09-2019> <17:12:36>  Symmetry  : ATOM
  Coordinates
    Atom         X           Y           Z   (Angstrom)
    1.H         0.000000    0.000000    0.000000
 <May09-2019> <17:12:36>  >>>> CORORT
 <May09-2019> <17:12:36>  >>>> CLSMAT
 <May09-2019> <17:12:36>  >>>> ORTHON
 <May09-2019> <17:12:36>  >>>> GENPT
 <May09-2019> <17:12:36>  Block Length=  64
 <May09-2019> <17:12:36>  >>>> PTBAS
 <May09-2019> <17:12:36>  >>>> CYCLE
 <May09-2019> <17:12:36>              |Error|         MaxErr       Wt(A-DIIS)
 <May09-2019> <17:12:36>      1      0.00000000      0.00000000
 <May09-2019> <17:12:36>      2      0.03100286      0.02644424
 <May09-2019> <17:12:36>      3      0.00958001      0.00932852    100.0
 <May09-2019> <17:12:36>      4      0.00232093      0.00228640      1.3
 <May09-2019> <17:12:36>      5      0.00003155      0.00002984      0.0
 <May09-2019> <17:12:36>      6      0.00000096      0.00000091      0.0
 <May09-2019> <17:12:36>      7      0.00000000      0.00000000      0.0
 <May09-2019> <17:12:36>  SCF converged
 <May09-2019> <17:12:36>      8      0.00000000      0.00000000      0.0
 <May09-2019> <17:12:36>  >>>> POPAN
 <May09-2019> <17:12:36>  >>>> DEBYE
 <May09-2019> <17:12:36>  NORMAL TERMINATION
 <May09-2019> <17:12:36>  END
 <May09-2019> <17:12:36>  ADF 2017  RunTime: May09-2019 17:12:36  Nodes: 1  Procs: 1
 <May09-2019> <17:12:36>  Fluorine (TZ2P)
 <May09-2019> <17:12:36>  RunType   : CREATE
 <May09-2019> <17:12:36>  Net Charge: 0 (Nuclei minus Electrons)
 <May09-2019> <17:12:36>  Symmetry  : ATOM
  Coordinates
    Atom         X           Y           Z   (Angstrom)
    1.F         0.000000    0.000000    0.000000
 <May09-2019> <17:12:36>  >>>> CORORT
 <May09-2019> <17:12:36>  >>>> CLSMAT
 <May09-2019> <17:12:36>  >>>> ORTHON
 <May09-2019> <17:12:36>  >>>> GENPT
 <May09-2019> <17:12:36>  Block Length=  76
 <May09-2019> <17:12:36>  >>>> PTBAS
 <May09-2019> <17:12:36>  >>>> CYCLE
 <May09-2019> <17:12:36>              |Error|         MaxErr       Wt(A-DIIS)
 <May09-2019> <17:12:36>      1      0.00000000      0.00000000
 <May09-2019> <17:12:36>      2     11.37379478      4.77775941    100.0
 <May09-2019> <17:12:36>      3      5.10737118      3.12542566    100.0
 <May09-2019> <17:12:36>      4      0.96588425      0.45165556    100.0
 <May09-2019> <17:12:36>      5      1.67496341      0.82531802    100.0
 <May09-2019> <17:12:36>      6      0.19960756      0.09763484     97.6
 <May09-2019> <17:12:36>      7      0.26650754      0.12651474    100.0
 <May09-2019> <17:12:36>      8      0.03096878      0.01498150     14.1
 <May09-2019> <17:12:36>      9      0.00605981      0.00290433      1.9
 <May09-2019> <17:12:36>     10      0.00016558      0.00007919      0.0
 <May09-2019> <17:12:36>     11      0.00000005      0.00000002      0.0
 <May09-2019> <17:12:36>     12      0.00000000      0.00000000      0.0
 <May09-2019> <17:12:37>  SCF converged
 <May09-2019> <17:12:37>     13      0.00000000      0.00000000      0.0
 <May09-2019> <17:12:37>  >>>> POPAN
 <May09-2019> <17:12:37>  >>>> DEBYE
 <May09-2019> <17:12:37>  NORMAL TERMINATION
 <May09-2019> <17:12:37>  END


 Parallel Execution: Process Information
 ==============================================================================
 Rank   Node Name                              NodeID   MyNodeRank  NodeMaster
    0   BAZIS-cn076                               0          0          0
    1   BAZIS-cn076                               0          1         -1
    2   BAZIS-cn076                               0          2         -1
    3   BAZIS-cn076                               0          3         -1
    4   BAZIS-cn076                               0          4         -1
    5   BAZIS-cn076                               0          5         -1
    6   BAZIS-cn076                               0          6         -1
    7   BAZIS-cn076                               0          7         -1
    8   BAZIS-cn076                               0          8         -1
    9   BAZIS-cn076                               0          9         -1
   10   BAZIS-cn076                               0         10         -1
   11   BAZIS-cn076                               0         11         -1
 ==============================================================================


May use up to 30736MB of RAM as shared memory on node 0


XC
  GGA blyp
  DISPERSION Grimme3 BJDAMP
END

SCF
  iterations 250
END

SYMMETRY nosym
CHARGE 0

ZLMFIT
  Quality normal
END

BECKEGRID
  Quality good
End

ATOMS
    1.F        -3.569077    0.026568    0.140371
    2.H        -2.626797    0.379303    0.730098
END

Fragments
H t21.H
F t21.F
End
end input

 *******************************************************************************
 *                                                                             *
 *  -------------------------------------                                      *
 *   Amsterdam Density Functional  (ADF)         2017                          *
 *  -------------------------------------                                      *
 *                                               r58813 2017-04-12             *
 *                                                                             *
 *                                                                             *
 *                              =================                              *
 *                              |               |                              *
 *                              |     A D F     |                              *
 *                              |               |                              *
 *                              =================                              *
 *                                                                             *
 *                                                                             *
 *   Online information and documentation:  https://www.scm.com/support/       *
 *   E-mail:  support@scm.com   info@scm.com                                   *
 *                                                                             *
 *   Scientific publications using ADF results must be properly referenced     *
 *   See the User Manuals (or the web site) for recommended citations          *
 *   The terms and conditions of the End User License Agreement apply to       *
 *   the use of ADF, https://www.scm.com/license-terms/                        *
 *                                                                             *
 **********************  x86_64_linux_intel / intelmpi  ************************
 
 Licensed to: VU/FEW (+ SARA) / ALGEMEEN / Amsterdam / THE NETHERLANDS
 SCM User ID: u7668
  
 ADF 2017  RunTime: May09-2019 17:12:37  Nodes: 1  Procs: 12

 Temporary files are created in /local/datastore0/tcst25/189808/kid_0.9yUmeH


Communication costs MPI_COMM_WORLD:      2.519 usec per message,   0.0110 usec per 8-byte item
Communication costs for intra-node:      2.517 usec per message,   0.0109 usec per 8-byte item

 *** (NO TITLE) ***



 ===========================
 A T T A C H E D   F I L E S
 ===========================
  



 ===============================
 M O D E L   P A R A M E T E R S
 ===============================
  
 DENSITY FUNCTIONAL POTENTIAL (scf)
    LDA:                               Exchange only                           == Not Default ==
    Gradient Corrections:              Becke88 LYP                             == Not Default ==

 SPIN  (restricted / unrestr.)
    Molecule:                          Restricted                               
    Fragments:                         Restricted                               

 OTHER ASPECTS
    Relativistic Corrections:          ---                                      

    Nuclear Charge Density Model:      Point Charge Nuclei                      
    Core Treatment:                    Frozen Orbital(s)                        

    Hyperfine or Zeeman Interaction:   ---                                      

 Settings for Grimme 3 dispersion correction

      damping                        BJ
      s6                          1.000
      a1                          0.430
      s8                          2.700
      a2                          4.236

 Other (technical) parameters

      alpha                      14.000
      version                         4
 


 Fragment File(s)
 ----------------
 F:
         file : t21.F
         jobid: ADF 2017  RunTime: May09-2019 17:12:36  Nodes: 1  Procs: 1
         title: Fluorine (TZ2P)
 H:
         file : t21.H
         jobid: ADF 2017  RunTime: May09-2019 17:12:36  Nodes: 1  Procs: 1
         title: Hydrogen (TZ2P)



                                        ************************************
                                        *  R U N   T Y P E : SINGLE POINT  *
                                        ************************************
  



 ===============
 G E O M E T R Y  ***  Linear Molecule  ***
 ===============
  

 ATOMS
 =====                            X Y Z                    CHARGE
                                (Angstrom)             Nucl     +Core       At.Mass
                       --------------------------    ----------------       -------
    1  F              -3.5691    0.0266    0.1404      9.00      9.00       18.9984
    2  H              -2.6268    0.3793    0.7301      1.00      1.00        1.0078


 FRAGMENTS
 =========                                     Atoms in this Fragment     Cart. coord.s (Angstrom)
                                               -------------------------------------------------------
    1  F                                                 1  F           -3.5691    0.0266    0.1404
    2  H                                                 2  H           -2.6268    0.3793    0.7301


 Interatomic Distance Matrix (Angstrom)
 --------------------------------------

   1)     0.000
   2)     1.166   0.000



 =====================================
 S Y M M E T R Y ,   E L E C T R O N S
 =====================================
  
 Symmetry: NOSYM

 Irreducible Representations, including subspecies
 -------------------------------------------------
 A


 Configuration of Valence Electrons
 ==================================
 ( determined in the SCF procedure )

 Total:   10

 Net Charge: 0 (Nuclei minus Electrons)

 Aufbau principle for MO occupations will be applied through SCF cycle no.     125
 Thereafter, the program will assign electrons to MOs that are spatially
 similar to the occupied MOs in a "reference" cycle ("KeepOrbitals").
 The reference cycle is always the PREVIOUS cycle: it will evolve with
 the SCF procedure.
1
 ***************************************************************************************************



                                      ****************************************
                                      *  B U I L D : (Fragments, Functions)  *
                                      ****************************************
  



 =======
 S F O s  ***  (Symmetrized Fragment Orbitals)  ***
 =======
  
 SFOs are linear combinations of (valence) Fragment Orbitals (FOs), such that the SFOs transform as the
 irreducible representations of the (molecular) symmetry group. Each SFO is therefore characterized by
 an irrep of the molecule and by a few (or only one) generating FOs.
 The SFOs constitute a symmetry-adapted basis for the Fock matrix. The MO eigenvector coefficients in
 this basis provide a direct interpretation of the MOs in terms of Frontier Orbital Theory.

 The SFOs are combined with auxiliary Core Functions (CFs) to ensure orthogonalization on the (frozen)
 Core Orbitals (COs). The Core-orthogonalized SFOs (CSFOs) constitute the true Fock basis.

 The FOs, and hence also the (C)SFOs are combinations of the elementary basis functions (BAS). The basis
 functions that participate in the description of the SFOs depend on the irrep. The indices of the
 involved functions are printed below for each irrep.
 (The complete list of primitive basis functions is printed in another section)

 Total nr. of (C)SFOs (summation over all irreps) :    37

 NOTE: a (C)SFO that is defined as a combination of more than one FO is usually NOT normalized.



                                       === A ===
 Nr. of SFOs :   37
 Cartesian basis functions that participate in this irrep (total number =    42) :
      1     2     3     4     5     6     9    12     7    10
     13     8    11    14    15    16    17    18    19    20
     21    22    23    24    25    26    27    28    29    30
     31    32    33    34    35    36    37    38    39    40
     41    42

    SFO  (index         Fragment          Generating    Expansion in Fragment Orbitals
  indx  incl.CFs)   Occup   Orb.Energy   FragmentType  Coeff.   Orbital     on Fragment
 --------------------------------------------------------------------------------------
     1       1      2.000     -24.380 au  F             1.00      1 S               1
                        (    -663.414 eV)
     2       2      2.000      -1.092 au  F             1.00      2 S               1
                        (     -29.706 eV)
     3       3       --         0.023 au  F             1.00      3 S               1
                        (       0.631 eV)
     4       4       --         1.580 au  F             1.00      4 S               1
                        (      42.998 eV)
     5       5       --        48.368 au  F             1.00      5 S               1
                        (    1316.149 eV)
     6       6      1.667      -0.409 au  F             1.00      1 P:x             1
                        (     -11.136 eV)
     7       7       --         0.428 au  F             1.00      2 P:x             1
                        (      11.652 eV)
     8       8       --         4.563 au  F             1.00      3 P:x             1
                        (     124.178 eV)
     9       9      1.667      -0.409 au  F             1.00      1 P:y             1
                        (     -11.136 eV)
    10      10       --         0.428 au  F             1.00      2 P:y             1
                        (      11.652 eV)
    11      11       --         4.563 au  F             1.00      3 P:y             1
                        (     124.178 eV)
    12      12      1.667      -0.409 au  F             1.00      1 P:z             1
                        (     -11.136 eV)
    13      13       --         0.428 au  F             1.00      2 P:z             1
                        (      11.652 eV)
    14      14       --         4.563 au  F             1.00      3 P:z             1
                        (     124.178 eV)
    15      15       --         1.117 au  F             1.00      1 D:z2            1
                        (      30.386 eV)
    16      16       --         1.117 au  F             1.00      1 D:x2-y2         1
                        (      30.386 eV)
    17      17       --         1.117 au  F             1.00      1 D:xy            1
                        (      30.386 eV)
    18      18       --         1.117 au  F             1.00      1 D:xz            1
                        (      30.386 eV)
    19      19       --         1.117 au  F             1.00      1 D:yz            1
                        (      30.386 eV)
    20      20       --         3.416 au  F             1.00      1 F:z3            1
                        (      92.955 eV)
    21      21       --         3.416 au  F             1.00      1 F:z             1
                        (      92.955 eV)
    22      22       --         3.416 au  F             1.00      1 F:xyz           1
                        (      92.955 eV)
    23      23       --         3.416 au  F             1.00      1 F:z2x           1
                        (      92.955 eV)
    24      24       --         3.416 au  F             1.00      1 F:z2y           1
                        (      92.955 eV)
    25      25       --         3.416 au  F             1.00      1 F:x             1
                        (      92.955 eV)
    26      26       --         3.416 au  F             1.00      1 F:y             1
                        (      92.955 eV)
    27      27      1.000      -0.240 au  H             1.00      1 S               2
                        (      -6.532 eV)
    28      28       --         0.088 au  H             1.00      2 S               2
                        (       2.394 eV)
    29      29       --         1.502 au  H             1.00      3 S               2
                        (      40.877 eV)
    30      30       --         0.406 au  H             1.00      1 P:x             2
                        (      11.052 eV)
    31      31       --         0.406 au  H             1.00      1 P:y             2
                        (      11.052 eV)
    32      32       --         0.406 au  H             1.00      1 P:z             2
                        (      11.052 eV)
    33      33       --         2.570 au  H             1.00      1 D:z2            2
                        (      69.925 eV)
    34      34       --         2.570 au  H             1.00      1 D:x2-y2         2
                        (      69.925 eV)
    35      35       --         2.570 au  H             1.00      1 D:xy            2
                        (      69.925 eV)
    36      36       --         2.570 au  H             1.00      1 D:xz            2
                        (      69.925 eV)
    37      37       --         2.570 au  H             1.00      1 D:yz            2
                        (      69.925 eV)



 ================================
 (Slater-type)  F U N C T I O N S  ***  (Basis and Fit)  ***
 ================================
  

 Atom Type    1  (F)
 ==============

 Valence Basis Sets:  10
 -----------------------
   1 S   10.880000
   1 S    7.700000
   2 S    3.240000
   2 S    1.940000
   2 S    0.740000
   2 P    4.540000
   2 P    2.300000
   2 P    1.240000
   3 D    2.000000
   4 F    3.000000

 Atom Type    2  (H)
 ==============

 Valence Basis Sets:   5
 -----------------------
   1 S    0.690000
   1 S    0.920000
   1 S    1.580000
   2 P    1.250000
   3 D    2.500000


 BAS: List of all Elementary Cartesian Basis Functions
 =====================================================

 The numbering in the list below (to the right of the function characteristics) is referred
 to in print-outs of MO eigenvectors and Mulliken populations in the BAS representation
 (as contrasted to the SFO representation).

 Notes:
 1. The functions are characterized by a polynomial prefactor (powers of x,y,z and r) and
    an exponential decay factor alpha.
 2. Since the basis sets are specific for an atom TYPE, the individual functions occur on
    all atoms of that type.
 3. The word 'Core' in the left margin signals that it is a Core Function (CF) : not a
    degree of freedom in the valence set, but only used to ensure orthogonalization of
    the other valence basis functions on the frozen Core Orbitals.


 (power of) X  Y  Z  R     Alpha  on Atom
            ==========     =====     ==========

 F                                    1
                                  ---------------------------------------------------------------------------
            0  0  0  0    10.880      1
            0  0  0  0     7.700      2
            0  0  0  1     3.240      3
            0  0  0  1     1.940      4
            0  0  0  1     0.740      5
            1  0  0  0     4.540      6
            0  1  0  0     4.540      7
            0  0  1  0     4.540      8
            1  0  0  0     2.300      9
            0  1  0  0     2.300     10
            0  0  1  0     2.300     11
            1  0  0  0     1.240     12
            0  1  0  0     1.240     13
            0  0  1  0     1.240     14
            2  0  0  0     2.000     15
            1  1  0  0     2.000     16
            1  0  1  0     2.000     17
            0  2  0  0     2.000     18
            0  1  1  0     2.000     19
            0  0  2  0     2.000     20
            3  0  0  0     3.000     21
            2  1  0  0     3.000     22
            2  0  1  0     3.000     23
            1  2  0  0     3.000     24
            1  1  1  0     3.000     25
            1  0  2  0     3.000     26
            0  3  0  0     3.000     27
            0  2  1  0     3.000     28
            0  1  2  0     3.000     29
            0  0  3  0     3.000     30

 H                                    2
                                  ---------------------------------------------------------------------------
            0  0  0  0     0.690     31
            0  0  0  0     0.920     32
            0  0  0  0     1.580     33
            1  0  0  0     1.250     34
            0  1  0  0     1.250     35
            0  0  1  0     1.250     36
            2  0  0  0     2.500     37
            1  1  0  0     2.500     38
            1  0  1  0     2.500     39
            0  2  0  0     2.500     40
            0  1  1  0     2.500     41
            0  0  2  0     2.500     42

 Total number of charge fitting functions (nprimf)       135
 Total number of Cartesian basis functions (naos)         42
 Total number of Cartesian core functions  (ncos)          0

1
 ***************************************************************************************************



                                              ***********************
                                              *  T E C H N I C A L  *
                                              ***********************
  



 =============================================================
 P A R A L L E L I Z A T I O N  and  V E C T O R I Z A T I O N
 =============================================================
  
 Nr of parallel processes:                               12
 Maximum vector length in NumInt loops:                 128

 IO buffersize (Mb):                                     64.000000



 =====================
 S C F   U P D A T E S
 =====================
  
 Max. nr. of cycles:                               250
 Convergence criterion:                              0.0000010000
   secondary criterion:                              0.0010000000

 Mix parameter (when DIIS does not apply):           0.2000000000
 Mixed ADIIS+DIIS will be used
    Max number of expansion vectors:                10
    Pure ADIIS when Max([F,P]) is above              0.1000000000
    Pure DIIS when Max([F,P]) is below               0.0010000000
 Automatic ElectronSmearing (in case of problematic SCF convergence) disabled



 =================
 P R E C I S I O N  ***  (General: NumInt, NeglectFunctionTails, ...)  ***
 =================
  

 NumInt:           Target precision:                 6.0000000000
 -------           Initial precision:                6.0000000000
                   Min. precision (optimization):    6.0000000000

 Neglect Functions:          Basis functions:        0.1000000000E-07
 ------------------          Fit functions:          0.1000000000E-07



 ===========================
 L I N E A R   S C A L I N G
 ===========================
  

 Cut-off radii density fit:                        0.1000000000E-09
 Overlap cut-off criterion AO matrix elements:     0.1000000000E-07
 Cut-offs for Coulomb potential and fitted density:0.1000000000E-09
 Cut-off criterion for Coulomb multipole terms:    0.1000000000E-09
 Progressive Convergence parameter:                 0.000000000    
1
 ***************************************************************************************************



                                            ***************************
                                            *  C O M P U T A T I O N  *
                                            ***************************
  

 Number of elements of the density matrix on this node (used, total):       465       903



 ===========================================
 Numerical Integration : Fuzzy Cells (Becke)
 ===========================================
  
 Becke grid quality: GOOD           
  
 Lebedev angular grid order:             min:  11 max:  31
 Nr. of radial points:                   min:  54 max:  65

 Total nr. of points:      25820
 Nr. of blocks:              202
 Block length:               128
 Nr. of dummy points:         36


 Test of Precision of the Numerical Integration Grid
 ===================================================

 Integral of the Total Core Density:                   0.00000000000000



 ========================
 Density Fitting (zlmFit)
 ========================
  
 ZlmFit Fit Quality: NORMAL         
  
 Max L-expansion:                        min:   6 max:   7
 Nr. of radial interpolation points:     min:  39 max:  51



 =====
 S C F  ***  ScaSCF  ***
 =====
  
 Initial density matrix is calculated as sum of fragments

 CYCLE    1
 SCF Error: norm([F,P])=      1.007200757330, max([F,P])=      0.881737737126
 orbitals (Q,E):
 ---------------
 A :1...15           ( 2.00   -24.4112)  ( 2.00    -1.1433)  ( 2.00    -0.5211)  ( 2.00    -0.4402)
                     ( 2.00    -0.4402)  ( 0.00    -0.1040)  ( 0.00     0.0470)  ( 0.00     0.1280)
                     ( 0.00     0.3491)  ( 0.00     0.3491)  ( 0.00     0.5945)  ( 0.00     0.5945)
                     ( 0.00     0.6001)  ( 0.00     0.8983)  ( 0.00     1.0553)

 CYCLE    2
  SDIIS (wt  0.000):  0.2134  0.7866
 A-DIIS (wt  1.000):  0.2402  0.7598
  DIIS coefficients:  0.2402  0.7598
 SCF Error: norm([F,P])=      0.532639598105, max([F,P])=      0.192168705479
 orbitals (Q,E):
 ---------------
 A :1...6            ( 2.00   -24.0332)  ( 2.00    -0.9455)  ( 2.00    -0.3813)  ( 2.00    -0.2405)
                     ( 2.00    -0.2405)  ( 0.00    -0.0727)

 CYCLE    3
  SDIIS (wt  0.000): -0.0002  0.6446  0.3556
 A-DIIS (wt  1.000):  0.0000  0.6779  0.3221
  DIIS coefficients:  0.0000  0.6779  0.3221
 SCF Error: norm([F,P])=      0.960428136632, max([F,P])=      0.349259662732
 orbitals (Q,E):
 ---------------
 A :1...6            ( 2.00   -24.2434)  ( 2.00    -1.0256)  ( 2.00    -0.4359)  ( 2.00    -0.3170)
                     ( 2.00    -0.3170)  ( 0.00    -0.0931)

 CYCLE    4
  SDIIS (wt  0.397):  0.1583 -0.0754  0.9171
 A-DIIS (wt  0.603):  0.1070  0.0000  0.8930
  DIIS coefficients:  0.1274 -0.0300  0.9025
 SCF Error: norm([F,P])=      0.170403809865, max([F,P])=      0.060671428308
 orbitals (Q,E):
 ---------------
 A :1...6            ( 2.00   -24.3194)  ( 2.00    -1.0591)  ( 2.00    -0.4611)  ( 2.00    -0.3511)
                     ( 2.00    -0.3511)  ( 0.00    -0.0988)

 CYCLE    5
  SDIIS (wt  0.560):  0.0576 -0.0174  0.5741  0.3857
 A-DIIS (wt  0.440):  0.0000  0.0000  0.4019  0.5981
  DIIS coefficients:  0.0323 -0.0098  0.4983  0.4791
 SCF Error: norm([F,P])=      0.131456164629, max([F,P])=      0.044556858702
 orbitals (Q,E):
 ---------------
 A :1...6            ( 2.00   -24.2792)  ( 2.00    -1.0424)  ( 2.00    -0.4483)  ( 2.00    -0.3345)
                     ( 2.00    -0.3345)  ( 0.00    -0.0958)

 CYCLE    6
  SDIIS (wt  0.969):  0.0074 -0.0075  0.1565  0.1767  0.6668
 A-DIIS (wt  0.031):  0.0000  0.0000  0.0000  0.0000  1.0000
  DIIS coefficients:  0.0072 -0.0072  0.1516  0.1712  0.6772
 SCF Error: norm([F,P])=      0.011790024020, max([F,P])=      0.004090242327
 orbitals (Q,E):
 ---------------
 A :1...6            ( 2.00   -24.2831)  ( 2.00    -1.0441)  ( 2.00    -0.4496)  ( 2.00    -0.3360)
                     ( 2.00    -0.3360)  ( 0.00    -0.0966)

 CYCLE    7
  SDIIS (wt  1.000):  0.0001 -0.0001 -0.0021  0.0050  0.1112  0.8859
  DIIS coefficients:  0.0001 -0.0001 -0.0021  0.0050  0.1112  0.8859
 SCF Error: norm([F,P])=      0.000378787225, max([F,P])=      0.000110205670
 orbitals (Q,E):
 ---------------
 A :1...6            ( 2.00   -24.2830)  ( 2.00    -1.0440)  ( 2.00    -0.4495)  ( 2.00    -0.3360)
                     ( 2.00    -0.3360)  ( 0.00    -0.0965)

 CYCLE    8
  SDIIS (wt  1.000):  0.0000  0.0000 -0.0002 -0.0001  0.0021  0.0185  0.9797
  DIIS coefficients:  0.0000  0.0000 -0.0002 -0.0001  0.0021  0.0185  0.9797
 SCF Error: norm([F,P])=      0.000021837518, max([F,P])=      0.000008011447
 orbitals (Q,E):
 ---------------
 A :1...6            ( 2.00   -24.2830)  ( 2.00    -1.0440)  ( 2.00    -0.4495)  ( 2.00    -0.3360)
                     ( 2.00    -0.3360)  ( 0.00    -0.0965)

 CYCLE    9
  SDIIS (wt  1.000): -0.0000  0.0000 -0.0000 -0.0001 -0.0004 -0.0014  0.0729  0.9290
  DIIS coefficients: -0.0000  0.0000 -0.0000 -0.0001 -0.0004 -0.0014  0.0729  0.9290
 SCF Error: norm([F,P])=      0.000002525933, max([F,P])=      0.000000915753
 orbitals (Q,E):
 ---------------
 A :1...6            ( 2.00   -24.2830)  ( 2.00    -1.0440)  ( 2.00    -0.4495)  ( 2.00    -0.3360)
                     ( 2.00    -0.3360)  ( 0.00    -0.0965)

 SCF CONVERGED

 CYCLE   10
1
 ***************************************************************************************************



                                                *******************
                                                *  R E S U L T S  *
                                                *******************
  
 *** Setting up for NEW gradients in Focky
 *** Using FIT density in Focky

 Orbital Energies, per Irrep and Spin:
 ======================================
                        Occup              E (au)              E (eV)       Diff (eV) with prev. cycle
                        -----      --------------------        ------       --------------------------
 A
               1        2.000     -0.24282991301943E+02      -660.774               5.96E-07
               2        2.000     -0.10440384764709E+01       -28.410               1.64E-07
               3        2.000     -0.44954198397482E+00       -12.233               2.69E-07
               4        2.000     -0.33600200578297E+00        -9.143               1.83E-07
               5        2.000     -0.33600185413132E+00        -9.143               1.83E-07
               6        0.000     -0.96526768203439E-01        -2.627
               7        0.000      0.69677377081547E-01         1.896
               8        0.000      0.12970256639200E+00         3.529
               9        0.000      0.37692927099267E+00        10.257
              10        0.000      0.37693731577729E+00        10.257
              11        0.000      0.62429384190012E+00        16.988
              12        0.000      0.62430365262988E+00        16.988
[...]
  Pauli Repulsion (Delta E^Pauli):       0.336672525405797          9.1613           211.27           883.93
  Electrostatic Interaction:            -0.086006190805322         -2.3403           -53.97          -225.81
 (Electrostatic Interaction =
  Delta V_elstat in the BB paper)
                                      --------------------     -----------       ----------      -----------
  Total Steric Interaction:              0.250666334600475          6.8210           157.30           658.12
 (Total Steric Interaction =
  Delta E^0 in the BB paper)

Orbital Interactions
  A:                                    -0.502838782816009        -13.6829          -315.54         -1320.20
                                      --------------------     -----------       ----------      -----------
  Total Orbital Interactions:           -0.502838782816009        -13.6829          -315.54         -1320.20

Alternative Decomposition Orb.Int.
  Kinetic:                              -1.373158142060986        -37.3655          -861.67         -3605.23
  Coulomb:                               0.871121247386589         23.7044           546.64          2287.13
  XC:                                   -0.000801888141613         -0.0218            -0.50            -2.11
                                      --------------------     -----------       ----------      -----------
  Total Orbital Interactions:           -0.502838782816009        -13.6829          -315.54         -1320.20

  Residu (E=Steric+OrbInt+Res):         -0.000002743423420         -0.0001            -0.00            -0.01
  Dispersion Energy:                    -0.000232570610764         -0.0063            -0.15            -0.61

Total Bonding Energy:                   -0.252407762249718         -6.8684          -158.39          -662.70


Summary of Bonding Energy (energy terms are taken from the energy decomposition above)
======================================================================================

  Electrostatic Energy:                 -0.086006190805322         -2.3403           -53.97          -225.81
  Kinetic Energy:                        0.003575306110781          0.0973             2.24             9.39
  Coulomb (Steric+OrbInt) Energy:       -0.005214558595783         -0.1419            -3.27           -13.69
  XC Energy:                            -0.164529748348631         -4.4771          -103.24          -431.97
  Dispersion Energy:                    -0.000232570610764         -0.0063            -0.15            -0.61
                                      --------------------     -----------       ----------      -----------
  Total Bonding Energy:                 -0.252407762249718         -6.8684          -158.39          -662.70


Correction terms (incorporated in energies above; only for test purposes):

1. Indication of fit-quality: 1st-order fit-correction used in the energy (hartree):   0.0001051089
2. Electrostatic (Fit correction):   0.0000000000



 =========================================
 F R A G M E N T   E N E R G Y   T E R M S  ***  (summed over all fragments)  ***
 =========================================
  

The energy terms below are (parts of) the Total Energy of the fragments from which the molecule
 is built.

Exchange and Correlation
  Exchange LDA:                         -9.204606937283616       -250.4701         -5775.98        -24166.69
  Exchange GGA:                         -1.005146737128506        -27.3514          -630.74         -2639.01
  Correlation LDA:                       0.000000000000000          0.0000             0.00             0.00
  Correlation GGA:                      -0.341016036577079         -9.2795          -213.99          -895.34
                                      --------------------     -----------       ----------      -----------
  Total XC:                            -10.550769710989201       -287.1011         -6620.71        -27701.04
1



 =======================================================
 S F O   P O P U L A T I O N S ,   M O   A N A L Y S I S
 =======================================================
  
 A Mulliken population analysis is performed on (input-)selected MOs. All populations refer to SFOs.
 BAS populations may have been printed directly after the SCF part.


                                       === A ===


 SFO contributions (%) per orbital
 (multiplication by the orbital occupation yields the SFO Gross Populations)

 Orb.:        1      2      3      4      5      6      7      8      9
 occup:     2.00   2.00   2.00   2.00   2.00   0.00   0.00   0.00   0.00
 CF+SFO     ----   ----   ----   ----   ----   ----   ----   ----   ----
 ------
      1:   99.98   0.00   0.00  -0.00   0.00  -0.00  -0.00   0.00   0.00
      2:    0.00  94.22   3.69  -0.00   0.00   0.80  -0.16  -1.13   0.00
      3:   -0.00  -0.01  -0.34  -0.00   0.00  -9.63 146.51 -11.54  -0.00
      4:   -0.00   0.00  -0.09   0.00  -0.00  -0.18  -1.18   2.68  -0.00
      6:   -0.00   0.64  48.33  33.23   0.95  10.54   2.61   2.64   0.45
      7:    0.00  -0.01  -0.03   0.03   0.00  -1.32  -8.57  -0.05  14.26
      9:   -0.00   0.09   6.77   6.98  82.44   1.48   0.37   0.37   0.57
     10:    0.00  -0.00  -0.00   0.01   0.09  -0.18  -1.20  -0.01  18.12
     12:   -0.00   0.25  18.93  58.22  15.04   4.13   1.02   1.04   0.38
     13:    0.00  -0.01  -0.01   0.06   0.02  -0.52  -3.36  -0.02  12.16
     27:    0.01   3.94  19.67   0.00  -0.00  78.25  -0.56  -8.12  -0.00
     28:    0.00  -0.08   2.27  -0.00   0.00  10.69 -32.69 113.05   0.00
     29:    0.00  -0.35   0.17   0.00  -0.00  -0.40   3.56   1.53   0.00
     30:    0.00   0.71  -0.00   0.44   0.01   3.73  -3.57  -0.59  16.82
     31:    0.00   0.10  -0.00   0.09   1.10   0.52  -0.50  -0.08  21.37
     32:    0.00   0.28  -0.00   0.77   0.20   1.46  -1.40  -0.23  14.35


 Summation over all MOs, multiplied by occupation: Total SFO Gross Populations in this Irrep
 ===========================================================================================

     2.00    1.96   -0.01   -0.00   -0.00    1.66   -0.00    0.00    1.93    0.00    0.00    1.85
     0.00    0.00    0.00    0.00    0.00    0.01    0.00    0.00    0.00    0.00    0.00    0.00
     0.00    0.00    0.47    0.04   -0.00    0.02    0.03    0.03    0.00    0.00    0.00    0.00
     0.00



 List of all MOs, ordered by energy, with the most significant SFO gross populations
 ===================================================================================

 Each percentage contribution in the table below corresponds to the indicated SFO.
 In general, a SFO may be a linear combination of several Fragment Orbitals on the same,
 or on symmetry-related Fragments. Only the first 'member' of such a combination is
 specified here. A full definition of all SFOs is given in an earlier part of the output.
 The numbering of the SFOs in this table does NOT include the Core Orbitals, and starts
 from one for each symmetry representation, as in the SFO definition list earlier.

       E(eV)  Occ       MO           %     SFO (first member)   E(eV)  Occ   Fragment
 -------------------------------------------------------------------------------------

     -12.233  2.00     3 A         48.33%     1 P:x           -11.136  1.67     1 F
                                   19.67%     1 S              -6.532  1.00     2 H
                                   18.93%     1 P:z           -11.136  1.67     1 F
                                    6.77%     1 P:y           -11.136  1.67     1 F
                                    3.69%     2 S             -29.706  2.00     1 F
                                    2.27%     2 S               2.394  0.00     2 H
      -9.143  2.00     4 A         58.22%     1 P:z           -11.136  1.67     1 F
                                   33.23%     1 P:x           -11.136  1.67     1 F
                                    6.98%     1 P:y           -11.136  1.67     1 F
      -9.143  2.00     5 A         82.44%     1 P:y           -11.136  1.67     1 F
                                   15.04%     1 P:z           -11.136  1.67     1 F
                                    1.10%     1 P:y            11.052  0.00     2 H
      -2.627  0.00     6 A         78.25%     1 S              -6.532  1.00     2 H
                                   10.69%     2 S               2.394  0.00     2 H
                                   10.54%     1 P:x           -11.136  1.67     1 F
                                   -9.63%     3 S               0.631  0.00     1 F
                                    4.13%     1 P:z           -11.136  1.67     1 F
                                    3.73%     1 P:x            11.052  0.00     2 H
                                    1.48%     1 P:y           -11.136  1.67     1 F
                                    1.46%     1 P:z            11.052  0.00     2 H
                                   -1.32%     2 P:x            11.652  0.00     1 F
       1.896  0.00     7 A        146.51%     3 S               0.631  0.00     1 F
                                  -32.69%     2 S               2.394  0.00     2 H
                                   -8.57%     2 P:x            11.652  0.00     1 F
                                   -3.57%     1 P:x            11.052  0.00     2 H
                                    3.56%     3 S              40.877  0.00     2 H
                                   -3.36%     2 P:z            11.652  0.00     1 F
                                    2.61%     1 P:x           -11.136  1.67     1 F
                                   -1.40%     1 P:z            11.052  0.00     2 H
                                   -1.20%     2 P:y            11.652  0.00     1 F
                                   -1.18%     4 S              42.998  0.00     1 F
                                    1.02%     1 P:z           -11.136  1.67     1 F



 =======================================================================
 Electrostatic potential at the Nuclei due to electrons and other nuclei
 =======================================================================
  
         Atom                  Potential
         ----                  ---------
     1)   F                  26.59802767
     2)   H                   0.86455519
 
 
 ========================
 No memory problems found
 ========================
 
 Maximum number of active allocate calls:         752
 
 *******************************************************************************

                             A D F   E X I T
 NORMAL TERMINATION



 =================
 Timing Statistics
 =================
  
 Total Used :                     CPU=        0.99      System=        0.05     Elapsed=        1.05

 Calls  Section                     ( Mean, Percentage )
 ---------------------------------------------------------------------------------------------------
     3  ><      ................      0.00    0.00             0.00    0.00             0.00    0.05
     1  INIT    ................      0.43   43.06             0.02   29.09             0.44   42.31
     1  GEOMET  ................      0.02    2.11             0.01   14.55             0.03    2.79
     1  FRAGM   ................      0.01    0.91             0.01   14.55             0.02    1.58
     1  INPUTA  ................      0.00    0.00             0.00    0.00             0.00    0.02
     1  ATDEN   ................      0.00    0.40             0.00    5.45             0.01    0.65
     1  MAINSY  ................      0.00    0.50             0.00    1.82             0.01    0.57
     1  SYMFIT  ................      0.00    0.00             0.00    1.82             0.00    0.12
     1  CORORT  ................      0.00    0.00             0.00    1.82             0.00    0.03
     1  SYMORB  ................      0.00    0.20             0.00    0.00             0.00    0.25
     1  CLSMAT  ................      0.01    0.70             0.00    1.82             0.01    0.77
     1  ORTHON  ................      0.00    0.30             0.00    0.00             0.00    0.25
     1  GENPT   ................      0.05    4.93             0.00    1.82             0.05    4.73
     1  PTBAS   ................      0.01    0.70             0.00    0.00             0.01    0.74
    10  FOCKY   ................      0.03   30.68             0.00    9.09             0.03   29.07
    10  FOCKTR  ................      0.00    0.00             0.00    0.00             0.00    0.68
    10  SDIIS   ................      0.00    2.31             0.00    3.64             0.00    2.12
     1  COREPS  ................      0.02    2.52             0.00    0.00             0.03    2.45
     1  TOTEN   ................      0.07    7.24             0.01   10.91             0.08    7.39
     1  POPAN   ................      0.00    0.20             0.00    0.00             0.00    0.21
     1  DEBYE   ................      0.00    0.30             0.00    0.00             0.00    0.18
     1  INPUTE  ................      0.00    0.00             0.00    0.00             0.00    0.04
     1  SYMORE  ................      0.00    0.00             0.00    0.00             0.00    0.08
     1  METS    ................      0.00    0.10             0.00    0.00             0.00    0.07
     1  CETS    ................      0.00    0.20             0.00    0.00             0.00    0.17
     1  ELNRGY  ................      0.00    0.20             0.00    0.00             0.00    0.20
     1  POPUL   ................      0.01    0.60             0.00    1.82             0.01    0.70
     1  EXIT PROCEDURE .........      0.02    1.81             0.00    1.82             0.02    1.79


 Currently Open Files (EXIT00)
 ====================

 Unit    Access Format  Status   Type       Ident (file)
 -------------------------------------------------------
   3      SEQ    FORM   TRANSP  NORMAL      LOGFILE
                                          ( logfile )


 Buffered I/O statistics
 =======================
 Memory available:                     67108864
 Number of records fitting in memory:     16131
 Input :   2.1% of                        31585  *4k bytes
 Output:  12.8% of                         2244  *4k bytes
 Records from serial files evicted:           0
                    others evicted:           0
 Hash table lookups:      86214 with          0 conflicts (  0.00%)

 ***************************************************************************************************
 (LOGFILE)
 <May09-2019> <17:12:36>  ADF 2017  RunTime: May09-2019 17:12:36  Nodes: 1  Procs: 1
 <May09-2019> <17:12:36>  Hydrogen (TZ2P)
 <May09-2019> <17:12:36>  RunType   : CREATE
 <May09-2019> <17:12:36>  Net Charge: 0 (Nuclei minus Electrons)
 <May09-2019> <17:12:36>  Symmetry  : ATOM
  Coordinates
    Atom         X           Y           Z   (Angstrom)
    1.H         0.000000    0.000000    0.000000
 <May09-2019> <17:12:36>  >>>> CORORT
 <May09-2019> <17:12:36>  >>>> CLSMAT
 <May09-2019> <17:12:36>  >>>> ORTHON
 <May09-2019> <17:12:36>  >>>> GENPT
 <May09-2019> <17:12:36>  Block Length=  64
 <May09-2019> <17:12:36>  >>>> PTBAS
 <May09-2019> <17:12:36>  >>>> CYCLE
 <May09-2019> <17:12:36>              |Error|         MaxErr       Wt(A-DIIS)
 <May09-2019> <17:12:36>      1      0.00000000      0.00000000
 <May09-2019> <17:12:36>      2      0.03100286      0.02644424
 <May09-2019> <17:12:36>      3      0.00958001      0.00932852    100.0
 <May09-2019> <17:12:36>      4      0.00232093      0.00228640      1.3
 <May09-2019> <17:12:36>      5      0.00003155      0.00002984      0.0
 <May09-2019> <17:12:36>      6      0.00000096      0.00000091      0.0
 <May09-2019> <17:12:36>      7      0.00000000      0.00000000      0.0
 <May09-2019> <17:12:36>  SCF converged
 <May09-2019> <17:12:36>      8      0.00000000      0.00000000      0.0
 <May09-2019> <17:12:36>  >>>> POPAN
 <May09-2019> <17:12:36>  >>>> DEBYE
 <May09-2019> <17:12:36>  NORMAL TERMINATION
 <May09-2019> <17:12:36>  END
 <May09-2019> <17:12:36>  ADF 2017  RunTime: May09-2019 17:12:36  Nodes: 1  Procs: 1
 <May09-2019> <17:12:36>  Fluorine (TZ2P)
 <May09-2019> <17:12:36>  RunType   : CREATE
 <May09-2019> <17:12:36>  Net Charge: 0 (Nuclei minus Electrons)
 <May09-2019> <17:12:36>  Symmetry  : ATOM
  Coordinates
    Atom         X           Y           Z   (Angstrom)
    1.F         0.000000    0.000000    0.000000
 <May09-2019> <17:12:36>  >>>> CORORT
 <May09-2019> <17:12:36>  >>>> CLSMAT
 <May09-2019> <17:12:36>  >>>> ORTHON
 <May09-2019> <17:12:36>  >>>> GENPT
 <May09-2019> <17:12:36>  Block Length=  76
 <May09-2019> <17:12:36>  >>>> PTBAS
 <May09-2019> <17:12:36>  >>>> CYCLE
 <May09-2019> <17:12:36>              |Error|         MaxErr       Wt(A-DIIS)
 <May09-2019> <17:12:36>      1      0.00000000      0.00000000
 <May09-2019> <17:12:36>      2     11.37379478      4.77775941    100.0
 <May09-2019> <17:12:36>      3      5.10737118      3.12542566    100.0
 <May09-2019> <17:12:36>      4      0.96588425      0.45165556    100.0
 <May09-2019> <17:12:36>      5      1.67496341      0.82531802    100.0
 <May09-2019> <17:12:36>      6      0.19960756      0.09763484     97.6
 <May09-2019> <17:12:36>      7      0.26650754      0.12651474    100.0
 <May09-2019> <17:12:36>      8      0.03096878      0.01498150     14.1
 <May09-2019> <17:12:36>      9      0.00605981      0.00290433      1.9
 <May09-2019> <17:12:36>     10      0.00016558      0.00007919      0.0
 <May09-2019> <17:12:36>     11      0.00000005      0.00000002      0.0
 <May09-2019> <17:12:36>     12      0.00000000      0.00000000      0.0
 <May09-2019> <17:12:37>  SCF converged
 <May09-2019> <17:12:37>     13      0.00000000      0.00000000      0.0
 <May09-2019> <17:12:37>  >>>> POPAN
 <May09-2019> <17:12:37>  >>>> DEBYE
 <May09-2019> <17:12:37>  NORMAL TERMINATION
 <May09-2019> <17:12:37>  END
 <May09-2019> <17:12:37>  ADF 2017  RunTime: May09-2019 17:12:37  Nodes: 1  Procs: 12
 <May09-2019> <17:12:37>  *** (NO TITLE) ***
 <May09-2019> <17:12:37>  RunType   : SINGLE POINT
 <May09-2019> <17:12:37>  Net Charge: 0 (Nuclei minus Electrons)
 <May09-2019> <17:12:37>  Symmetry  : NOSYM
 <May09-2019> <17:12:37>  >>>> FRAGM
  Coordinates
    Atom         X           Y           Z   (Angstrom)
    1.F        -3.569077    0.026568    0.140371
    2.H        -2.626797    0.379303    0.730098
 <May09-2019> <17:12:37>  >>>> CORORT
 <May09-2019> <17:12:37>  >>>> CLSMAT
 <May09-2019> <17:12:37>  >>>> ORTHON
 <May09-2019> <17:12:37>  >>>> GENPT
 <May09-2019> <17:12:37>  Block Length= 128
 <May09-2019> <17:12:37>  >>>> PTBAS
 <May09-2019> <17:12:37>  >>>> CYCLE
 <May09-2019> <17:12:37>              |Error|         MaxErr       Wt(A-DIIS)
 <May09-2019> <17:12:37>      1      1.00720076      0.88173774
 <May09-2019> <17:12:37>      2      0.53263960      0.19216871    100.0
 <May09-2019> <17:12:37>      3      0.96042814      0.34925966    100.0
 <May09-2019> <17:12:37>      4      0.17040381      0.06067143     60.3
 <May09-2019> <17:12:38>      5      0.13145616      0.04455686     44.0
 <May09-2019> <17:12:38>      6      0.01179002      0.00409024      3.1
 <May09-2019> <17:12:38>      7      0.00037879      0.00011021      0.0
 <May09-2019> <17:12:38>      8      0.00002184      0.00000801      0.0
 <May09-2019> <17:12:38>      9      0.00000253      0.00000092      0.0
 <May09-2019> <17:12:38>  SCF converged
 <May09-2019> <17:12:38>     10      0.00000006      0.00000002      0.0
 <May09-2019> <17:12:38>  >>>> TOTEN
 <May09-2019> <17:12:38>  >>>> POPAN
 <May09-2019> <17:12:38>  >>>> DEBYE
 <May09-2019> <17:12:38>  >>>> AMETS
 <May09-2019> <17:12:38>   Bond Energy          -0.25240776 a.u.
 <May09-2019> <17:12:38>   Bond Energy          -6.86836468 eV
 <May09-2019> <17:12:38>   Bond Energy        -158.39       kcal/mol
 <May09-2019> <17:12:38>  >>>> POPUL
 <May09-2019> <17:12:38>  NORMAL TERMINATION
 <May09-2019> <17:12:38>  END
