
Create Br   file=TZ2P-Br
XC
  GGA blyp
  DISPERSION Grimme3 BJDAMP
End
End Input

 *******************************************************************************
 *                                                                             *
 *  -------------------------------------                                      *
 *   Amsterdam Density Functional  (ADF)         development version           *
 *  -------------------------------------                                      *
 *                                               r61132 2017-09-08             *
 *                                                                             *
 *                                                                             *
 *                              =================                              *
 *                              |               |                              *
 *                              |     A D F     |                              *
 *                              |               |                              *
 *                              =================                              *
 *                                                                             *
 *                                                                             *
 *   Online information and documentation:  https://www.scm.com/support/       *
 *   E-mail:  support@scm.com   info@scm.com                                   *
 *                                                                             *
 *   Scientific publications using ADF results must be properly referenced     *
 *   See the User Manuals (or the web site) for recommended citations          *
 *   The terms and conditions of the End User License Agreement apply to       *
 *   the use of ADF, https://www.scm.com/license-terms/                        *
 *                                                                             *
 **********************  x86_64_linux_intel / intelmpi  ************************
 
 Licensed to: VU/FEW (+ SARA) / ALGEMEEN / Amsterdam / THE NETHERLANDS
 SCM User ID: u7668
  
 ADF development version  RunTime: Apr18-2019 13:53:49  Nodes: 1  Procs: 1

 Temporary files are created in /local/datastore0/tcst25/186692/kid_0.8VLJXl

 Bromine (TZ2P)



 ===========================
 A T T A C H E D   F I L E S
 ===========================
  
 CREATE - Data File:    TZ2P-Br
                        Bromine (TZ2P)



 ===============================
 M O D E L   P A R A M E T E R S
 ===============================
  
 DENSITY FUNCTIONAL POTENTIAL (scf)
    LDA:                               Exchange only                           == Not Default ==
    Gradient Corrections:              Becke88 LYP                             == Not Default ==

 SPIN  (restricted / unrestr.)
    Molecule:                          Restricted                               

 OTHER ASPECTS
    Relativistic Corrections:          ---                                      

    Nuclear Charge Density Model:      Point Charge Nuclei                      
    Core Treatment:                    Frozen Orbital(s)                        

    Hyperfine or Zeeman Interaction:   ---                                      

 Settings for Grimme 3 dispersion correction

      damping                        BJ
      s6                          1.000
      a1                          0.430
      s8                          2.700
      a2                          4.236

 Other (technical) parameters

      alpha                      14.000
      version                         4
 



 =====================================
 S Y M M E T R Y ,   E L E C T R O N S
 =====================================
  
 Symmetry: ATOM

 Irreducible Representations, including subspecies
 -------------------------------------------------
 S
 P:x  P:y  P:z
 D:z2  D:x2-y2  D:xy  D:xz  D:yz
 F:z3  F:z  F:xyz  F:z2x  F:z2y  F:x  F:y


 Configuration of Valence Electrons
 ==================================

          Occupation Numbers
          -------------------------------------------------
 S        4*2
 P        2*6 5
 D        10
 F        0
          -------------------------------------------------

 Total:   35

 Net Charge: 0 (Nuclei minus Electrons)

 Preset values for MO occupations will be applied through SCF cycle no. 1000000
 Thereafter, the program will assign electrons to MOs that are spatially
 similar to the occupied MOs in a "reference" cycle ("KeepOrbitals").
 The reference cycle is always the PREVIOUS cycle: it will evolve with
 the SCF procedure.



 ================================
 (Slater-type)  F U N C T I O N S  ***  (Basis and Fit)  ***
 ================================
  

 Atom Type    1  (Br)
 ==============

 Valence Basis Sets:  20
 -----------------------
   1 S   41.300000
   1 S   32.800000
   2 S   13.900000
   2 P   19.450000
   2 P   13.100000
   3 S    7.200000
   3 S    4.950000
   3 P    7.900000
   3 P    5.050000
   3 D   10.900000
   3 D    6.050000
   3 D    3.500000
   4 S    4.500000
   4 S    2.800000
   4 S    1.800000
   4 P    3.250000
   4 P    1.950000
   4 P    1.200000
   4 D    1.800000
   4 F    1.800000


 BAS: List of all Elementary Cartesian Basis Functions
 =====================================================

 The numbering in the list below (to the right of the function characteristics) is referred
 to in print-outs of MO eigenvectors and Mulliken populations in the BAS representation
 (as contrasted to the SFO representation).

 Notes:
 1. The functions are characterized by a polynomial prefactor (powers of x,y,z and r) and
    an exponential decay factor alpha.
 2. Since the basis sets are specific for an atom TYPE, the individual functions occur on
    all atoms of that type.
 3. The word 'Core' in the left margin signals that it is a Core Function (CF) : not a
    degree of freedom in the valence set, but only used to ensure orthogonalization of
    the other valence basis functions on the frozen Core Orbitals.


 (power of) X  Y  Z  R     Alpha  on Atom
            ==========     =====     ==========

 Br                                   1
                                  ---------------------------------------------------------------------------
            0  0  0  0    41.300      1
            0  0  0  0    32.800      2
            0  0  0  1    13.900      3
            1  0  0  0    19.450      4
            0  1  0  0    19.450      5
            0  0  1  0    19.450      6
            1  0  0  0    13.100      7
            0  1  0  0    13.100      8
            0  0  1  0    13.100      9
            0  0  0  2     7.200     10
            0  0  0  2     4.950     11
            1  0  0  1     7.900     12
            0  1  0  1     7.900     13
            0  0  1  1     7.900     14
            1  0  0  1     5.050     15
            0  1  0  1     5.050     16
            0  0  1  1     5.050     17
            2  0  0  0    10.900     18
            1  1  0  0    10.900     19
            1  0  1  0    10.900     20
            0  2  0  0    10.900     21
            0  1  1  0    10.900     22
            0  0  2  0    10.900     23
            2  0  0  0     6.050     24
            1  1  0  0     6.050     25
            1  0  1  0     6.050     26
            0  2  0  0     6.050     27
            0  1  1  0     6.050     28
            0  0  2  0     6.050     29
            2  0  0  0     3.500     30
            1  1  0  0     3.500     31
            1  0  1  0     3.500     32
            0  2  0  0     3.500     33
            0  1  1  0     3.500     34
            0  0  2  0     3.500     35
            0  0  0  3     4.500     36
            0  0  0  3     2.800     37
            0  0  0  3     1.800     38
            1  0  0  2     3.250     39
            0  1  0  2     3.250     40
            0  0  1  2     3.250     41
            1  0  0  2     1.950     42
            0  1  0  2     1.950     43
            0  0  1  2     1.950     44
            1  0  0  2     1.200     45
            0  1  0  2     1.200     46
            0  0  1  2     1.200     47
            2  0  0  1     1.800     48
            1  1  0  1     1.800     49
            1  0  1  1     1.800     50
            0  2  0  1     1.800     51
            0  1  1  1     1.800     52
            0  0  2  1     1.800     53
            3  0  0  0     1.800     54
            2  1  0  0     1.800     55
            2  0  1  0     1.800     56
            1  2  0  0     1.800     57
            1  1  1  0     1.800     58
            1  0  2  0     1.800     59
            0  3  0  0     1.800     60
            0  2  1  0     1.800     61
            0  1  2  0     1.800     62
            0  0  3  0     1.800     63

 Total number of charge fitting functions (nprimf)       170
 Total number of Cartesian basis functions (naos)         63
 Total number of Cartesian core functions  (ncos)          0



 BAS: List of all Elementary Cartesian Basis Functions
 =====================================================

 The numbering in the list below (to the right of the function characteristics) is referred
 to in print-outs of MO eigenvectors and Mulliken populations in the BAS representation
 (as contrasted to the SFO representation).

 Notes:
 1. The functions are characterized by a polynomial prefactor (powers of x,y,z and r) and
    an exponential decay factor alpha.
 2. Since the basis sets are specific for an atom TYPE, the individual functions occur on
    all atoms of that type.
 3. The word 'Core' in the left margin signals that it is a Core Function (CF) : not a
    degree of freedom in the valence set, but only used to ensure orthogonalization of
    the other valence basis functions on the frozen Core Orbitals.


 (power of) X  Y  Z  R     Alpha  on Atom
            ==========     =====     ==========

 Br                                   1
                                  ---------------------------------------------------------------------------
            0  0  0  0    41.300      1
            0  0  0  0    32.800      2
            0  0  0  1    13.900      3
            1  0  0  0    19.450      4
            0  1  0  0    19.450      5
            0  0  1  0    19.450      6
            1  0  0  0    13.100      7
            0  1  0  0    13.100      8
            0  0  1  0    13.100      9
            0  0  0  2     7.200     10
            0  0  0  2     4.950     11
            1  0  0  1     7.900     12
            0  1  0  1     7.900     13
            0  0  1  1     7.900     14
            1  0  0  1     5.050     15
            0  1  0  1     5.050     16
            0  0  1  1     5.050     17
            2  0  0  0    10.900     18
            1  1  0  0    10.900     19
            1  0  1  0    10.900     20
            0  2  0  0    10.900     21
            0  1  1  0    10.900     22
            0  0  2  0    10.900     23
            2  0  0  0     6.050     24
            1  1  0  0     6.050     25
            1  0  1  0     6.050     26
            0  2  0  0     6.050     27
            0  1  1  0     6.050     28
            0  0  2  0     6.050     29
            2  0  0  0     3.500     30
            1  1  0  0     3.500     31
            1  0  1  0     3.500     32
            0  2  0  0     3.500     33
            0  1  1  0     3.500     34
            0  0  2  0     3.500     35
            0  0  0  3     4.500     36
            0  0  0  3     2.800     37
            0  0  0  3     1.800     38
            1  0  0  2     3.250     39
            0  1  0  2     3.250     40
            0  0  1  2     3.250     41
            1  0  0  2     1.950     42
            0  1  0  2     1.950     43
            0  0  1  2     1.950     44
            1  0  0  2     1.200     45
            0  1  0  2     1.200     46
            0  0  1  2     1.200     47
            2  0  0  1     1.800     48
            1  1  0  1     1.800     49
            1  0  1  1     1.800     50
            0  2  0  1     1.800     51
            0  1  1  1     1.800     52
            0  0  2  1     1.800     53
            3  0  0  0     1.800     54
            2  1  0  0     1.800     55
            2  0  1  0     1.800     56
            1  2  0  0     1.800     57
            1  1  1  0     1.800     58
            1  0  2  0     1.800     59
            0  3  0  0     1.800     60
            0  2  1  0     1.800     61
            0  1  2  0     1.800     62
            0  0  3  0     1.800     63
1
 ***************************************************************************************************



                                              ***********************
                                              *  T E C H N I C A L  *
                                              ***********************
  



 =============================================================
 P A R A L L E L I Z A T I O N  and  V E C T O R I Z A T I O N
 =============================================================
  
 Nr of parallel processes:                                1
 Maximum vector length in NumInt loops:                 128

 IO buffersize (Mb):                                     64.000000



 =====================
 S C F   U P D A T E S
 =====================
  
 Max. nr. of cycles:                               300
 Convergence criterion:                              0.0000000100
   secondary criterion:                              0.0000000100

 Mix parameter (when DIIS does not apply):           0.2000000000
 Special mix parameter for the first cycle:          1.0000000000
 Mixed ADIIS+DIIS will be used
    Max number of expansion vectors:                10
    Pure ADIIS when Max([F,P]) is above              0.1000000000
    Pure DIIS when Max([F,P]) is below               0.0010000000
 Automatic ElectronSmearing (in case of problematic SCF convergence) disabled



 =================
 P R E C I S I O N  ***  (General: NumInt, NeglectFunctionTails, ...)  ***
 =================
  

 NumInt:           Target precision:                12.0000000000
 -------           Initial precision:               10.0000000000
                   Min. precision (optimization):   10.0000000000

 Neglect Functions:          Basis functions:        0.1000000000E-13
 ------------------          Fit functions:          0.1000000000E-13



 ===========================
 L I N E A R   S C A L I N G
 ===========================
  

 Cut-off radii density fit:                        0.1000000000E-97
 Overlap cut-off criterion AO matrix elements:     0.1000000000E-97
 Cut-offs for Coulomb potential and fitted density:0.1000000000E-97
 Cut-off criterion for Coulomb multipole terms:    0.1000000000E-97
 Progressive Convergence parameter:                 0.000000000    
1
 ***************************************************************************************************



                                            ***************************
                                            *  C O M P U T A T I O N  *
                                            ***************************
  

 Number of elements of the density matrix on this node (used, total):      2016      2016



 ===========================================
 Numerical Integration : Fuzzy Cells (Becke)
 ===========================================
  
 Becke grid quality: VERYGOOD       
  
 Lebedev angular grid order:             min:  13 max:  41
 Nr. of radial points:                   min: 106 max: 106

 Total nr. of points:        106
 Nr. of blocks:                1
 Block length:               106
 Nr. of dummy points:          0


 Test of Precision of the Numerical Integration Grid
 ===================================================

 Integral of the Total Core Density:                   0.00000000000000



 ========================
 Density Fitting (zlmFit)
 ========================
  
 ZlmFit Fit Quality: VERYGOOD       
  
 Max L-expansion:                        min:   0 max:   0
 Nr. of radial interpolation points:     min: 240 max: 240



 =====
 S C F  ***  ScaSCF  ***
 =====
  

 CYCLE    1
 SCF Error: norm([F,P])=      0.000000000000, max([F,P])=      0.000000000000
 orbitals (Q,E):
 ---------------
 S :1...8            ( 2.00  -612.4786)  ( 2.00  -152.6714)  ( 2.00   -67.1618)  ( 2.00   -37.3471)
                     ( 0.00   -23.4672)  ( 0.00   -15.4322)  ( 0.00    -9.8352)  ( 0.00   627.8721)
 P :1...7            ( 6.00  -153.0715)  ( 6.00   -67.2002)  ( 5.00   -36.6918)  ( 0.00   -21.5714)
                     ( 0.00   -12.7861)  ( 0.00    -7.3590)  ( 0.00    16.5106)
 D :1...4            (10.00   -67.9473)  ( 0.00   -38.1263)  ( 0.00   -23.3212)  ( 0.00   -12.4393)
 F :1...1            ( 0.00   -14.1300)

 CYCLE    2
  SDIIS (wt  0.000):  1.0000 -0.0000
 A-DIIS (wt  1.000):  0.0000  1.0000
  DIIS coefficients:  0.0000  1.0000
 SCF Error: norm([F,P])=    133.903788591766, max([F,P])=     33.002638835768
 orbitals (Q,E):
 ---------------
 S :1...5            ( 2.00  -440.6623)  ( 2.00   -34.4608)  ( 2.00    -0.4838)  ( 2.00     0.2836)
                     ( 0.00     1.7588)
 P :1...4            ( 6.00   -26.4444)  ( 6.00     0.0834)  ( 5.00     0.3720)  ( 0.00     1.4169)
 D :1...2            (10.00     0.6774)  ( 0.00     3.4882)
 F :1...1            ( 0.00     1.3965)

 CYCLE    3
  SDIIS (wt  0.000):  0.1412  0.8588
 A-DIIS (wt  1.000):  0.4812  0.5188
  DIIS coefficients:  0.4812  0.5188
 SCF Error: norm([F,P])=     49.629143697465, max([F,P])=     17.595188807560
 orbitals (Q,E):
 ---------------
 S :1...5            ( 2.00  -480.8932)  ( 2.00   -64.7226)  ( 2.00   -13.6294)  ( 2.00    -3.4868)
                     ( 0.00    -0.5582)
 P :1...4            ( 6.00   -58.1726)  ( 6.00   -11.4786)  ( 5.00    -2.7508)  ( 0.00    -0.3243)
 D :1...2            (10.00    -7.6458)  ( 0.00    -1.4985)
 F :1...1            ( 0.00    -0.1774)

 CYCLE    4
  SDIIS (wt  0.000):  0.0224 -0.0021  0.9797
 A-DIIS (wt  1.000):  0.0000  0.0000  1.0000
  DIIS coefficients:  0.0000  0.0000  1.0000
 SCF Error: norm([F,P])=      9.092094844053, max([F,P])=      2.124855053538
 orbitals (Q,E):
 ---------------
 S :1...5            ( 2.00  -477.9553)  ( 2.00   -58.6455)  ( 2.00    -6.0025)  ( 2.00    -0.0887)
                     ( 0.00     0.6741)
 P :1...4            ( 6.00   -52.5726)  ( 6.00    -3.9206)  ( 5.00     0.0754)  ( 0.00     0.4470)
 D :1...2            (10.00    -0.2229)  ( 0.00     0.6460)
 F :1...1            ( 0.00     1.2104)

 CYCLE    5
  SDIIS (wt  0.000):  0.0181 -0.0308  0.6039  0.4089
 A-DIIS (wt  1.000):  0.0000  0.0000  0.5822  0.4178
  DIIS coefficients:  0.0000  0.0000  0.5822  0.4178
 SCF Error: norm([F,P])=     11.701584191545, max([F,P])=      3.988425979038
 orbitals (Q,E):
 ---------------
 S :1...5            ( 2.00  -481.8352)  ( 2.00   -62.3102)  ( 2.00    -8.5155)  ( 2.00    -0.7697)
                     ( 0.00     0.1875)
 P :1...4            ( 6.00   -56.2897)  ( 6.00    -6.4201)  ( 5.00    -0.3523)  ( 0.00     0.1239)
 D :1...2            (10.00    -2.6384)  ( 0.00     0.1906)
 F :1...1            ( 0.00     0.7840)

 CYCLE    6
  SDIIS (wt  0.000): -0.0026 -0.0016  0.0582  0.1076  0.8383
 A-DIIS (wt  1.000):  0.0000  0.0000  0.0000  0.0000  1.0000
  DIIS coefficients:  0.0000  0.0000  0.0000  0.0000  1.0000
 SCF Error: norm([F,P])=      1.823540048332, max([F,P])=      0.456619293025
 orbitals (Q,E):
 ---------------
 S :1...5            ( 2.00  -480.3974)  ( 2.00   -61.3034)  ( 2.00    -8.2095)  ( 2.00    -0.6754)
                     ( 0.00     0.2537)
 P :1...4            ( 6.00   -55.2073)  ( 6.00    -6.1080)  ( 5.00    -0.2621)  ( 0.00     0.1463)
 D :1...2            (10.00    -2.3134)  ( 0.00     0.2796)
 F :1...1            ( 0.00     0.8617)

 CYCLE    7
  SDIIS (wt  0.000): -0.0001  0.0001  0.0162 -0.0122  0.4359  0.5600
 A-DIIS (wt  1.000):  0.0000  0.0000  0.0000  0.0000  0.5218  0.4782
  DIIS coefficients:  0.0000  0.0000  0.0000  0.0000  0.5218  0.4782
 SCF Error: norm([F,P])=      1.607695839970, max([F,P])=      0.415842628956
 orbitals (Q,E):
 ---------------
 S :1...5            ( 2.00  -481.0075)  ( 2.00   -61.7929)  ( 2.00    -8.4313)  ( 2.00    -0.7171)
                     ( 0.00     0.2346)
 P :1...4            ( 6.00   -55.7193)  ( 6.00    -6.3308)  ( 5.00    -0.2925)  ( 0.00     0.1353)
 D :1...2            (10.00    -2.5382)  ( 0.00     0.2584)
 F :1...1            ( 0.00     0.8462)

 CYCLE    8
  SDIIS (wt  0.813): -0.0000  0.0000  0.0003 -0.0007  0.1156  0.1336  0.7512
 A-DIIS (wt  0.187):  0.0000  0.0000  0.0000  0.0000  0.0000  0.0000  1.0000
  DIIS coefficients: -0.0000  0.0000  0.0003 -0.0005  0.0941  0.1086  0.7976
 SCF Error: norm([F,P])=      0.065754007621, max([F,P])=      0.019467288040
 orbitals (Q,E):
 ---------------
 S :1...5            ( 2.00  -480.9996)  ( 2.00   -61.7672)  ( 2.00    -8.3915)  ( 2.00    -0.6991)
                     ( 0.00     0.2415)
 P :1...4            ( 6.00   -55.6965)  ( 6.00    -6.2914)  ( 5.00    -0.2791)  ( 0.00     0.1389)
 D :1...2            (10.00    -2.4995)  ( 0.00     0.2673)
 F :1...1            ( 0.00     0.8551)

 CYCLE    9
  SDIIS (wt  0.928): -0.0000 -0.0000 -0.0004  0.0001  0.0270  0.0241  0.3726  0.5766
 A-DIIS (wt  0.072):  0.0000  0.0000  0.0000  0.0000  0.0000  0.0000  0.1253  0.8747
  DIIS coefficients: -0.0000 -0.0000 -0.0004  0.0001  0.0251  0.0224  0.3549  0.5979
 SCF Error: norm([F,P])=      0.026013191770, max([F,P])=      0.008091160141
 orbitals (Q,E):
 ---------------
 S :1...5            ( 2.00  -481.0129)  ( 2.00   -61.7801)  ( 2.00    -8.4039)  ( 2.00    -0.7064)
                     ( 0.00     0.2380)
 P :1...4            ( 6.00   -55.7094)  ( 6.00    -6.3038)  ( 5.00    -0.2850)  ( 0.00     0.1366)
 D :1...2            (10.00    -2.5117)  ( 0.00     0.2628)
 F :1...1            ( 0.00     0.8506)

 CYCLE   10
  SDIIS (wt  1.000): -0.0000  0.0000 -0.0000 -0.0000  0.0019  0.0015  0.0216  0.0490  0.9260
  DIIS coefficients: -0.0000  0.0000 -0.0000 -0.0000  0.0019  0.0015  0.0216  0.0490  0.9260
 SCF Error: norm([F,P])=      0.000463673934, max([F,P])=      0.000100374140
 orbitals (Q,E):
 ---------------
 S :1...5            ( 2.00  -481.0128)  ( 2.00   -61.7801)  ( 2.00    -8.4038)  ( 2.00    -0.7064)
                     ( 0.00     0.2380)
 P :1...4            ( 6.00   -55.7094)  ( 6.00    -6.3036)  ( 5.00    -0.2850)  ( 0.00     0.1366)
 D :1...2            (10.00    -2.5116)  ( 0.00     0.2628)
 F :1...1            ( 0.00     0.8506)

 CYCLE   11
  SDIIS (wt  1.000): -0.0000  0.0000 -0.0000 -0.0000  0.0000  0.0000  0.0003  0.0002 -0.0123  1.0118
  DIIS coefficients: -0.0000  0.0000 -0.0000 -0.0000  0.0000  0.0000  0.0003  0.0002 -0.0123  1.0118
 SCF Error: norm([F,P])=      0.000010859570, max([F,P])=      0.000002783508
 orbitals (Q,E):
 ---------------
 S :1...5            ( 2.00  -481.0127)  ( 2.00   -61.7800)  ( 2.00    -8.4038)  ( 2.00    -0.7064)
                     ( 0.00     0.2380)
 P :1...4            ( 6.00   -55.7094)  ( 6.00    -6.3036)  ( 5.00    -0.2850)  ( 0.00     0.1366)
 D :1...2            (10.00    -2.5116)  ( 0.00     0.2628)
 F :1...1            ( 0.00     0.8506)

 CYCLE   12
  SDIIS (wt  1.000): -0.0000  0.0000  0.0000 -0.0114  1.0114
  DIIS coefficients: -0.0000  0.0000  0.0000 -0.0114  1.0114
 SCF Error: norm([F,P])=      0.000000253930, max([F,P])=      0.000000059057
 orbitals (Q,E):
 ---------------
 S :1...5            ( 2.00  -481.0127)  ( 2.00   -61.7800)  ( 2.00    -8.4038)  ( 2.00    -0.7064)
                     ( 0.00     0.2380)
 P :1...4            ( 6.00   -55.7094)  ( 6.00    -6.3036)  ( 5.00    -0.2850)  ( 0.00     0.1366)
 D :1...2            (10.00    -2.5116)  ( 0.00     0.2628)
 F :1...1            ( 0.00     0.8506)

 CYCLE   13
  SDIIS (wt  1.000):  0.0000 -0.0000 -0.0002  0.0471  0.9531
  DIIS coefficients:  0.0000 -0.0000 -0.0002  0.0471  0.9531
 SCF Error: norm([F,P])=      0.000000008155, max([F,P])=      0.000000002198
 orbitals (Q,E):
 ---------------
 S :1...5            ( 2.00  -481.0127)  ( 2.00   -61.7800)  ( 2.00    -8.4038)  ( 2.00    -0.7064)
                     ( 0.00     0.2380)
 P :1...4            ( 6.00   -55.7094)  ( 6.00    -6.3036)  ( 5.00    -0.2850)  ( 0.00     0.1366)
 D :1...2            (10.00    -2.5116)  ( 0.00     0.2628)
 F :1...1            ( 0.00     0.8506)

 SCF CONVERGED

 CYCLE   14
1
 ***************************************************************************************************



                                                *******************
                                                *  R E S U L T S  *
                                                *******************
  
 *** Setting up for NEW gradients in Focky
 *** Using FIT density in Focky

 Orbital Energies, per Irrep and Spin:
 ======================================
                        Occup              E (au)              E (eV)       Diff (eV) with prev. cycle
                        -----      --------------------        ------       --------------------------
 S
               1        2.000     -0.48101274587878E+03    -13089.023              -3.04E-09
               2        2.000     -0.61780048652771E+02     -1681.121              -1.34E-09
               3        2.000     -0.84037718795878E+01      -228.678              -2.41E-09
               4        2.000     -0.70640809652969E+00       -19.222              -2.95E-09
               5        0.000      0.23797090184223E+00         6.476
               6        0.000      0.24655941619106E+01        67.092
               7        0.000      0.14293653166501E+02       388.950
               8        0.000      0.74647931329125E+03     20312.736
 P
               1        6.000     -0.55709370544448E+02     -1515.929              -1.52E-09
               2        6.000     -0.63036166135521E+01      -171.530              -2.40E-09
               3        5.000     -0.28498840632730E+00        -7.755              -2.43E-09
               4        0.000      0.13662305746043E+00         3.718
               5        0.000      0.12150701661255E+01        33.064
               6        0.000      0.88352207867398E+01       240.419
               7        0.000      0.10087703617678E+03      2745.004
 D
               1       10.000     -0.25115984206637E+01       -68.344              -2.32E-09
               2        0.000      0.26280809227207E+00         7.151
               3        0.000      0.26773687643252E+01        72.855
               4        0.000      0.20605889125446E+02       560.715
 F
               1        0.000      0.85063213392399E+00        23.147


 Partially Occupied:
               3 P                -0.28498840632730E+00
  
 HOMO :        4 S                -0.70640809652969E+00
 LUMO :        4 P                 0.13662305746043E+00
  


 Orbital Energies, all Irreps
 ========================================

 Irrep        no.  (spin)   Occup              E (au)                E (eV)
 ---------------------------------------------------------------------------
 S             1             2.00       -0.48101274587878E+03    -13089.0228
 S             2             2.00       -0.61780048652771E+02     -1681.1207
 P             1             6.00       -0.55709370544448E+02     -1515.9291
 S             3             2.00       -0.84037718795878E+01      -228.6783
 P             2             6.00       -0.63036166135521E+01      -171.5301
 D             1            10.00       -0.25115984206637E+01       -68.3441
 S             4             2.00       -0.70640809652969E+00       -19.2223
 P             3             5.00       -0.28498840632730E+00        -7.7549
 P             4             0.00        0.13662305746043E+00         3.7177
 S             5             0.00        0.23797090184223E+00         6.4755
 D             2             0.00        0.26280809227207E+00         7.1514
 F             1             0.00        0.85063213392399E+00        23.1469
 P             5             0.00        0.12150701661255E+01        33.0637
 S             6             0.00        0.24655941619106E+01        67.0922
 D             3             0.00        0.26773687643252E+01        72.8549
 P             6             0.00        0.88352207867398E+01       240.4186
 S             7             0.00        0.14293653166501E+02       388.9501
 D             4             0.00        0.20605889125446E+02       560.7148
 P             7             0.00        0.10087703617678E+03      2745.0038
 S             8             0.00        0.74647931329125E+03     20312.7356


 All Electron Calculation, thus no Orbital Energies of the Core Orbitals are calculated



 =======================================
 M U L L I K E N   P O P U L A T I O N S
 =======================================
  
 The survey below gives for each atom:
 a) the total charge (Z minus electrons)
 b) the net spin polarization (nr of electrons spin-A minus spin-B)
 c) for each spin the atomic electron valence density (integrated) per L-value.

 Atom              Charge    Spin density          S         P         D         F
 ----              ------    ------------       ------    ------    ------    ------
 1 Br              0.0000                       8.0000   17.0000   10.0000    0.0000

 Populations of individual BAS functions
 ----------------------------------------
 1 Br           0.3604  1.5689  2.0728  0.7136  0.7136  0.7136  1.2644  1.2644  1.2644  1.4494
                0.5676  1.1356  1.1356  1.1356  0.8920  0.8920  0.8920  0.2683  0.4025  0.4025
                0.2683  0.4025  0.2683  0.7743  1.1615  1.1615  0.7743  1.1615  0.7743  0.2907
                0.4361  0.4361  0.2907  0.4361  0.2907  0.2958  1.2583  0.4268  0.5585  0.5585
                0.5585  0.8946  0.8946  0.8946  0.2080  0.2080  0.2080 -0.0001 -0.0001 -0.0001
               -0.0001 -0.0001 -0.0001  0.0000  0.0000  0.0000  0.0000  0.0000  0.0000  0.0000
                0.0000  0.0000  0.0000

 Gross Charges per Atom (Z minus electrons)
 ==========================================
             0.0000
 Net Total:  0.00000000



 =======================================================================
 Electrostatic potential at the Nuclei due to electrons and other nuclei
 =======================================================================
  
         Atom                  Potential
         ----                  ---------
     1)   Br                175.92949555
 
 
 ========================
 No memory problems found
 ========================
 
 Maximum number of active allocate calls:         447
 
 *******************************************************************************

                             A D F   E X I T
 NORMAL TERMINATION



 =================
 Timing Statistics
 =================
  
 Total Used :                     CPU=        0.82      System=        0.03     Elapsed=        0.85

 Calls  Section                     ( Mean, Percentage )
 ---------------------------------------------------------------------------------------------------
     3  ><      ................      0.00    0.12             0.00    0.00             0.00    0.10
     1  INIT    ................      0.01    1.10             0.01   51.72             0.03    3.03
     1  GEOMET  ................      0.01    0.86             0.00    3.45             0.01    1.01
     1  INPUTA  ................      0.00    0.12             0.00    0.00             0.00    0.19
     1  MAINSY  ................      0.01    0.73             0.00    0.00             0.01    0.71
     1  SYMFIT  ................      0.00    0.00             0.00    3.45             0.00    0.09
     1  CORORT  ................      0.00    0.12             0.00    0.00             0.00    0.03
     1  SYMORB  ................      0.00    0.00             0.00    0.00             0.00    0.08
     1  CLSMAT  ................      0.00    0.61             0.00    0.00             0.01    0.62
     1  ORTHON  ................      0.00    0.12             0.00    3.45             0.00    0.20
     1  GENPT   ................      0.02    3.06             0.00    0.00             0.03    2.97
     1  PTBAS   ................      0.00    0.49             0.00    0.00             0.00    0.44
    14  FOCKY   ................      0.05   81.76             0.00   10.34             0.05   79.01
    14  FOCKTR  ................      0.00    1.47             0.00    3.45             0.00    1.43
    14  SDIIS   ................      0.00    2.33             0.00    6.90             0.00    2.67
     1  COREPS  ................      0.03    4.28             0.00    3.45             0.04    4.30
     1  POPAN   ................      0.01    0.73             0.00    0.00             0.01    0.62
     1  DEBYE   ................      0.00    0.00             0.00    0.00             0.00    0.10
     1  EXIT PROCEDURE .........      0.02    2.08             0.00   13.80             0.02    2.42


 Currently Open Files (EXIT00)
 ====================

 Unit    Access Format  Status   Type       Ident (file)
 -------------------------------------------------------
   3      SEQ    FORM   TRANSP  NORMAL      LOGFILE
                                          ( logfile )


 Buffered I/O statistics
 =======================
 Memory available:                     67108864
 Number of records fitting in memory:     16131
 Input :   0.1% of                        29683  *4k bytes
 Output:  11.9% of                         1574  *4k bytes
 Records from serial files evicted:           0
                    others evicted:           0
 Hash table lookups:      77061 with          0 conflicts (  0.00%)

 ***************************************************************************************************
 (LOGFILE)
 <Apr18-2019> <13:53:49>  ADF development version  RunTime: Apr18-2019 13:53:49  Nodes: 1  Procs: 1
 <Apr18-2019> <13:53:49>  Bromine (TZ2P)
 <Apr18-2019> <13:53:49>  RunType   : CREATE
 <Apr18-2019> <13:53:49>  Net Charge: 0 (Nuclei minus Electrons)
 <Apr18-2019> <13:53:49>  Symmetry  : ATOM
  Coordinates
    Atom         X           Y           Z   (Angstrom)
    1.Br        0.000000    0.000000    0.000000
 <Apr18-2019> <13:53:49>  >>>> CORORT
 <Apr18-2019> <13:53:49>  >>>> CLSMAT
 <Apr18-2019> <13:53:49>  >>>> ORTHON
 <Apr18-2019> <13:53:49>  >>>> GENPT
 <Apr18-2019> <13:53:49>  Block Length= 106
 <Apr18-2019> <13:53:49>  >>>> PTBAS
 <Apr18-2019> <13:53:49>  >>>> CYCLE
 <Apr18-2019> <13:53:49>              |Error|         MaxErr       Wt(A-DIIS)
 <Apr18-2019> <13:53:49>      1      0.00000000      0.00000000
 <Apr18-2019> <13:53:49>      2    133.90378859     33.00263884    100.0
 <Apr18-2019> <13:53:49>      3     49.62914370     17.59518881    100.0
 <Apr18-2019> <13:53:49>      4      9.09209484      2.12485505    100.0
 <Apr18-2019> <13:53:49>      5     11.70158419      3.98842598    100.0
 <Apr18-2019> <13:53:49>      6      1.82354005      0.45661929    100.0
 <Apr18-2019> <13:53:49>      7      1.60769584      0.41584263    100.0
 <Apr18-2019> <13:53:49>      8      0.06575401      0.01946729     18.7
 <Apr18-2019> <13:53:49>      9      0.02601319      0.00809116      7.2
 <Apr18-2019> <13:53:49>     10      0.00046367      0.00010037      0.0
 <Apr18-2019> <13:53:50>     11      0.00001086      0.00000278      0.0
 <Apr18-2019> <13:53:50>     12      0.00000025      0.00000006      0.0
 <Apr18-2019> <13:53:50>     13      0.00000001      0.00000000      0.0
 <Apr18-2019> <13:53:50>  SCF converged
 <Apr18-2019> <13:53:50>     14      0.00000000      0.00000000      0.0
 <Apr18-2019> <13:53:50>  >>>> POPAN
 <Apr18-2019> <13:53:50>  >>>> DEBYE
 <Apr18-2019> <13:53:50>  NORMAL TERMINATION
 <Apr18-2019> <13:53:50>  END

Create F   file=TZ2P-F
XC
  GGA blyp
  DISPERSION Grimme3 BJDAMP
End
End Input

 *******************************************************************************
 *                                                                             *
 *  -------------------------------------                                      *
 *   Amsterdam Density Functional  (ADF)         development version           *
 *  -------------------------------------                                      *
 *                                               r61132 2017-09-08             *
 *                                                                             *
 *                                                                             *
 *                              =================                              *
 *                              |               |                              *
 *                              |     A D F     |                              *
 *                              |               |                              *
 *                              =================                              *
 *                                                                             *
 *                                                                             *
 *   Online information and documentation:  https://www.scm.com/support/       *
 *   E-mail:  support@scm.com   info@scm.com                                   *
 *                                                                             *
 *   Scientific publications using ADF results must be properly referenced     *
 *   See the User Manuals (or the web site) for recommended citations          *
 *   The terms and conditions of the End User License Agreement apply to       *
 *   the use of ADF, https://www.scm.com/license-terms/                        *
 *                                                                             *
 **********************  x86_64_linux_intel / intelmpi  ************************
 
 Licensed to: VU/FEW (+ SARA) / ALGEMEEN / Amsterdam / THE NETHERLANDS
 SCM User ID: u7668
  
 ADF development version  RunTime: Apr18-2019 13:53:50  Nodes: 1  Procs: 1

 Temporary files are created in /local/datastore0/tcst25/186692/kid_0.VXmBak

 Fluorine (TZ2P)



 ===========================
 A T T A C H E D   F I L E S
 ===========================
  
 CREATE - Data File:    TZ2P-F
                        Fluorine (TZ2P)



 ===============================
 M O D E L   P A R A M E T E R S
 ===============================
  
 DENSITY FUNCTIONAL POTENTIAL (scf)
    LDA:                               Exchange only                           == Not Default ==
    Gradient Corrections:              Becke88 LYP                             == Not Default ==

 SPIN  (restricted / unrestr.)
    Molecule:                          Restricted                               

 OTHER ASPECTS
    Relativistic Corrections:          ---                                      

    Nuclear Charge Density Model:      Point Charge Nuclei                      
    Core Treatment:                    Frozen Orbital(s)                        

    Hyperfine or Zeeman Interaction:   ---                                      

 Settings for Grimme 3 dispersion correction

      damping                        BJ
      s6                          1.000
      a1                          0.430
      s8                          2.700
      a2                          4.236

 Other (technical) parameters

      alpha                      14.000
      version                         4
 



 =====================================
 S Y M M E T R Y ,   E L E C T R O N S
 =====================================
  
 Symmetry: ATOM

 Irreducible Representations, including subspecies
 -------------------------------------------------
 S
 P:x  P:y  P:z
 D:z2  D:x2-y2  D:xy  D:xz  D:yz
 F:z3  F:z  F:xyz  F:z2x  F:z2y  F:x  F:y


 Configuration of Valence Electrons
 ==================================

          Occupation Numbers
          -------------------------------------------------
 S        2*2
 P        5
 D        0
 F        0
          -------------------------------------------------

 Total:   9

 Net Charge: 0 (Nuclei minus Electrons)

 Preset values for MO occupations will be applied through SCF cycle no. 1000000
 Thereafter, the program will assign electrons to MOs that are spatially
 similar to the occupied MOs in a "reference" cycle ("KeepOrbitals").
 The reference cycle is always the PREVIOUS cycle: it will evolve with
 the SCF procedure.



 ================================
 (Slater-type)  F U N C T I O N S  ***  (Basis and Fit)  ***
 ================================
  

 Atom Type    1  (F)
 ==============

 Valence Basis Sets:  10
 -----------------------
   1 S   10.880000
   1 S    7.700000
   2 S    3.240000
   2 S    1.940000
   2 S    0.740000
   2 P    4.540000
   2 P    2.300000
   2 P    1.240000
   3 D    2.000000
   4 F    3.000000


 BAS: List of all Elementary Cartesian Basis Functions
 =====================================================

 The numbering in the list below (to the right of the function characteristics) is referred
 to in print-outs of MO eigenvectors and Mulliken populations in the BAS representation
 (as contrasted to the SFO representation).

 Notes:
 1. The functions are characterized by a polynomial prefactor (powers of x,y,z and r) and
    an exponential decay factor alpha.
 2. Since the basis sets are specific for an atom TYPE, the individual functions occur on
    all atoms of that type.
 3. The word 'Core' in the left margin signals that it is a Core Function (CF) : not a
    degree of freedom in the valence set, but only used to ensure orthogonalization of
    the other valence basis functions on the frozen Core Orbitals.


 (power of) X  Y  Z  R     Alpha  on Atom
            ==========     =====     ==========

 F                                    1
                                  ---------------------------------------------------------------------------
            0  0  0  0    10.880      1
            0  0  0  0     7.700      2
            0  0  0  1     3.240      3
            0  0  0  1     1.940      4
            0  0  0  1     0.740      5
            1  0  0  0     4.540      6
            0  1  0  0     4.540      7
            0  0  1  0     4.540      8
            1  0  0  0     2.300      9
            0  1  0  0     2.300     10
            0  0  1  0     2.300     11
            1  0  0  0     1.240     12
            0  1  0  0     1.240     13
            0  0  1  0     1.240     14
            2  0  0  0     2.000     15
            1  1  0  0     2.000     16
            1  0  1  0     2.000     17
            0  2  0  0     2.000     18
            0  1  1  0     2.000     19
            0  0  2  0     2.000     20
            3  0  0  0     3.000     21
            2  1  0  0     3.000     22
            2  0  1  0     3.000     23
            1  2  0  0     3.000     24
            1  1  1  0     3.000     25
            1  0  2  0     3.000     26
            0  3  0  0     3.000     27
            0  2  1  0     3.000     28
            0  1  2  0     3.000     29
            0  0  3  0     3.000     30

 Total number of charge fitting functions (nprimf)        85
 Total number of Cartesian basis functions (naos)         30
 Total number of Cartesian core functions  (ncos)          0



 BAS: List of all Elementary Cartesian Basis Functions
 =====================================================

 The numbering in the list below (to the right of the function characteristics) is referred
 to in print-outs of MO eigenvectors and Mulliken populations in the BAS representation
 (as contrasted to the SFO representation).

 Notes:
 1. The functions are characterized by a polynomial prefactor (powers of x,y,z and r) and
    an exponential decay factor alpha.
 2. Since the basis sets are specific for an atom TYPE, the individual functions occur on
    all atoms of that type.
 3. The word 'Core' in the left margin signals that it is a Core Function (CF) : not a
    degree of freedom in the valence set, but only used to ensure orthogonalization of
    the other valence basis functions on the frozen Core Orbitals.


 (power of) X  Y  Z  R     Alpha  on Atom
            ==========     =====     ==========

 F                                    1
                                  ---------------------------------------------------------------------------
            0  0  0  0    10.880      1
            0  0  0  0     7.700      2
            0  0  0  1     3.240      3
            0  0  0  1     1.940      4
            0  0  0  1     0.740      5
            1  0  0  0     4.540      6
            0  1  0  0     4.540      7
            0  0  1  0     4.540      8
            1  0  0  0     2.300      9
            0  1  0  0     2.300     10
            0  0  1  0     2.300     11
            1  0  0  0     1.240     12
            0  1  0  0     1.240     13
            0  0  1  0     1.240     14
            2  0  0  0     2.000     15
            1  1  0  0     2.000     16
            1  0  1  0     2.000     17
            0  2  0  0     2.000     18
            0  1  1  0     2.000     19
            0  0  2  0     2.000     20
            3  0  0  0     3.000     21
            2  1  0  0     3.000     22
            2  0  1  0     3.000     23
            1  2  0  0     3.000     24
            1  1  1  0     3.000     25
            1  0  2  0     3.000     26
            0  3  0  0     3.000     27
            0  2  1  0     3.000     28
            0  1  2  0     3.000     29
            0  0  3  0     3.000     30
1
 ***************************************************************************************************



                                              ***********************
                                              *  T E C H N I C A L  *
                                              ***********************
  



 =============================================================
 P A R A L L E L I Z A T I O N  and  V E C T O R I Z A T I O N
 =============================================================
  
 Nr of parallel processes:                                1
 Maximum vector length in NumInt loops:                 128

 IO buffersize (Mb):                                     64.000000



 =====================
 S C F   U P D A T E S
 =====================
  
 Max. nr. of cycles:                               300
 Convergence criterion:                              0.0000000100
   secondary criterion:                              0.0000000100

 Mix parameter (when DIIS does not apply):           0.2000000000
 Special mix parameter for the first cycle:          1.0000000000
 Mixed ADIIS+DIIS will be used
    Max number of expansion vectors:                10
    Pure ADIIS when Max([F,P]) is above              0.1000000000
    Pure DIIS when Max([F,P]) is below               0.0010000000
 Automatic ElectronSmearing (in case of problematic SCF convergence) disabled



 =================
 P R E C I S I O N  ***  (General: NumInt, NeglectFunctionTails, ...)  ***
 =================
  

 NumInt:           Target precision:                12.0000000000
 -------           Initial precision:               10.0000000000
                   Min. precision (optimization):   10.0000000000

 Neglect Functions:          Basis functions:        0.1000000000E-13
 ------------------          Fit functions:          0.1000000000E-13



 ===========================
 L I N E A R   S C A L I N G
 ===========================
  

 Cut-off radii density fit:                        0.1000000000E-97
 Overlap cut-off criterion AO matrix elements:     0.1000000000E-97
 Cut-offs for Coulomb potential and fitted density:0.1000000000E-97
 Cut-off criterion for Coulomb multipole terms:    0.1000000000E-97
 Progressive Convergence parameter:                 0.000000000    
1
 ***************************************************************************************************



                                            ***************************
                                            *  C O M P U T A T I O N  *
                                            ***************************
  

 Number of elements of the density matrix on this node (used, total):       465       465



 ===========================================
 Numerical Integration : Fuzzy Cells (Becke)
 ===========================================
  
 Becke grid quality: VERYGOOD       
  
 Lebedev angular grid order:             min:  13 max:  41
 Nr. of radial points:                   min:  76 max:  76

 Total nr. of points:         76
 Nr. of blocks:                1
 Block length:                76
 Nr. of dummy points:          0


 Test of Precision of the Numerical Integration Grid
 ===================================================

 Integral of the Total Core Density:                   0.00000000000000



 ========================
 Density Fitting (zlmFit)
 ========================
  
 ZlmFit Fit Quality: VERYGOOD       
  
 Max L-expansion:                        min:   0 max:   0
 Nr. of radial interpolation points:     min: 170 max: 170



 =====
 S C F  ***  ScaSCF  ***
 =====
  

 CYCLE    1
 SCF Error: norm([F,P])=      0.000000000000, max([F,P])=      0.000000000000
 orbitals (Q,E):
 ---------------
 S :1...5            ( 2.00   -40.4878)  ( 2.00   -10.0106)  ( 0.00    -4.4145)  ( 0.00    -2.1243)
                     ( 0.00    34.3132)
 P :1...3            ( 5.00   -10.1248)  ( 0.00    -4.4262)  ( 0.00    -2.4124)
 D :1...1            ( 0.00    -4.0000)
 F :1...1            ( 0.00    -2.2500)

 CYCLE    2
  SDIIS (wt  0.000):  1.0000 -0.0000
 A-DIIS (wt  1.000):  0.0000  1.0000
  DIIS coefficients:  0.0000  1.0000
 SCF Error: norm([F,P])=     11.373794780581, max([F,P])=      4.777759414031
 orbitals (Q,E):
 ---------------
 S :1...3            ( 2.00   -18.8794)  ( 2.00    -0.0304)  ( 0.00     0.3093)
 P :1...2            ( 5.00     0.3553)  ( 0.00     1.5643)
 D :1...1            ( 0.00     1.6494)
 F :1...1            ( 0.00     4.0453)

 CYCLE    3
  SDIIS (wt  0.000):  0.2302  0.7698
 A-DIIS (wt  1.000):  0.4427  0.5573
  DIIS coefficients:  0.4427  0.5573
 SCF Error: norm([F,P])=      5.107371177545, max([F,P])=      3.125425661947
 orbitals (Q,E):
 ---------------
 S :1...3            ( 2.00   -24.7932)  ( 2.00    -1.7827)  ( 0.00    -0.0636)
 P :1...2            ( 5.00    -1.0793)  ( 0.00     0.2021)
 D :1...1            ( 0.00     0.6865)
 F :1...1            ( 0.00     2.8888)

 CYCLE    4
  SDIIS (wt  0.000): -0.0128  0.1085  0.9043
 A-DIIS (wt  1.000):  0.0000  0.0000  1.0000
  DIIS coefficients:  0.0000  0.0000  1.0000
 SCF Error: norm([F,P])=      0.965884247460, max([F,P])=      0.451655557762
 orbitals (Q,E):
 ---------------
 S :1...3            ( 2.00   -23.6749)  ( 2.00    -0.7847)  ( 0.00     0.0644)
 P :1...2            ( 5.00    -0.1299)  ( 0.00     0.5762)
 D :1...1            ( 0.00     1.2513)
 F :1...1            ( 0.00     3.5825)

 CYCLE    5
  SDIIS (wt  0.000):  0.0122 -0.0391  0.5749  0.4520
 A-DIIS (wt  1.000):  0.0000  0.0000  0.6712  0.3288
  DIIS coefficients:  0.0000  0.0000  0.6712  0.3288
 SCF Error: norm([F,P])=      1.674963411166, max([F,P])=      0.825318021724
 orbitals (Q,E):
 ---------------
 S :1...3            ( 2.00   -24.3044)  ( 2.00    -1.0529)  ( 0.00     0.0313)
 P :1...2            ( 5.00    -0.3714)  ( 0.00     0.4442)
 D :1...1            ( 0.00     1.1317)
 F :1...1            ( 0.00     3.4351)

 CYCLE    6
  SDIIS (wt  0.024):  0.0029  0.0040  0.0564 -0.0876  1.0243
 A-DIIS (wt  0.976):  0.0000  0.0000  0.0000  0.0000  1.0000
  DIIS coefficients:  0.0001  0.0001  0.0013 -0.0021  1.0006
 SCF Error: norm([F,P])=      0.199607562059, max([F,P])=      0.097634841195
 orbitals (Q,E):
 ---------------
 S :1...3            ( 2.00   -24.5137)  ( 2.00    -1.1478)  ( 0.00     0.0173)
 P :1...2            ( 5.00    -0.4644)  ( 0.00     0.4071)
 D :1...1            ( 0.00     1.0935)
 F :1...1            ( 0.00     3.3875)

 CYCLE    7
  SDIIS (wt  0.000): -0.0005  0.0010  0.0222 -0.0066  0.6116  0.3724
 A-DIIS (wt  1.000):  0.0000  0.0000  0.0000  0.0000  0.6122  0.3878
  DIIS coefficients:  0.0000  0.0000  0.0000  0.0000  0.6122  0.3878
 SCF Error: norm([F,P])=      0.266507541610, max([F,P])=      0.126514736478
 orbitals (Q,E):
 ---------------
 S :1...3            ( 2.00   -24.3946)  ( 2.00    -1.0985)  ( 0.00     0.0225)
 P :1...2            ( 5.00    -0.4159)  ( 0.00     0.4255)
 D :1...1            ( 0.00     1.1136)
 F :1...1            ( 0.00     3.4123)

 CYCLE    8
  SDIIS (wt  0.859):  0.0000 -0.0000 -0.0010  0.0023  0.0294 -0.0834  1.0527
 A-DIIS (wt  0.141):  0.0000  0.0000  0.0000  0.0000  0.0000  0.0000  1.0000
  DIIS coefficients:  0.0000 -0.0000 -0.0009  0.0020  0.0252 -0.0716  1.0453
 SCF Error: norm([F,P])=      0.030968782312, max([F,P])=      0.014981503364
 orbitals (Q,E):
 ---------------
 S :1...3            ( 2.00   -24.3770)  ( 2.00    -1.0904)  ( 0.00     0.0233)
 P :1...2            ( 5.00    -0.4080)  ( 0.00     0.4287)
 D :1...1            ( 0.00     1.1172)
 F :1...1            ( 0.00     3.4167)

 CYCLE    9
  SDIIS (wt  0.981): -0.0000  0.0000 -0.0001 -0.0004  0.0017  0.0154  0.0457  0.9377
 A-DIIS (wt  0.019):  0.0000  0.0000  0.0000  0.0000  0.0000  0.0000  0.0000  1.0000
  DIIS coefficients: -0.0000  0.0000 -0.0001 -0.0004  0.0017  0.0151  0.0448  0.9389
 SCF Error: norm([F,P])=      0.006059807167, max([F,P])=      0.002904332574
 orbitals (Q,E):
 ---------------
 S :1...3            ( 2.00   -24.3801)  ( 2.00    -1.0917)  ( 0.00     0.0232)
 P :1...2            ( 5.00    -0.4093)  ( 0.00     0.4282)
 D :1...1            ( 0.00     1.1167)
 F :1...1            ( 0.00     3.4160)

 CYCLE   10
  SDIIS (wt  1.000): -0.0000  0.0000  0.0000 -0.0000 -0.0005 -0.0009  1.0014
  DIIS coefficients: -0.0000  0.0000  0.0000 -0.0000 -0.0005 -0.0009  1.0014
 SCF Error: norm([F,P])=      0.000165576581, max([F,P])=      0.000079185113
 orbitals (Q,E):
 ---------------
 S :1...3            ( 2.00   -24.3800)  ( 2.00    -1.0917)  ( 0.00     0.0232)
 P :1...2            ( 5.00    -0.4092)  ( 0.00     0.4282)
 D :1...1            ( 0.00     1.1167)
 F :1...1            ( 0.00     3.4160)

 CYCLE   11
  SDIIS (wt  1.000): -0.0000  0.0000 -0.0000 -0.0003 -0.0117  1.0121
  DIIS coefficients: -0.0000  0.0000 -0.0000 -0.0003 -0.0117  1.0121
 SCF Error: norm([F,P])=      0.000000045102, max([F,P])=      0.000000021900
 orbitals (Q,E):
 ---------------
 S :1...3            ( 2.00   -24.3800)  ( 2.00    -1.0917)  ( 0.00     0.0232)
 P :1...2            ( 5.00    -0.4092)  ( 0.00     0.4282)
 D :1...1            ( 0.00     1.1167)
 F :1...1            ( 0.00     3.4160)

 CYCLE   12
  SDIIS (wt  1.000): -0.0000  0.0075  0.9925
  DIIS coefficients: -0.0000  0.0075  0.9925
 SCF Error: norm([F,P])=      0.000000000761, max([F,P])=      0.000000000372
 orbitals (Q,E):
 ---------------
 S :1...3            ( 2.00   -24.3800)  ( 2.00    -1.0917)  ( 0.00     0.0232)
 P :1...2            ( 5.00    -0.4092)  ( 0.00     0.4282)
 D :1...1            ( 0.00     1.1167)
 F :1...1            ( 0.00     3.4160)

 SCF CONVERGED

 CYCLE   13
1
 ***************************************************************************************************



                                                *******************
                                                *  R E S U L T S  *
                                                *******************
  
 *** Setting up for NEW gradients in Focky
 *** Using FIT density in Focky

 Orbital Energies, per Irrep and Spin:
 ======================================
                        Occup              E (au)              E (eV)       Diff (eV) with prev. cycle
                        -----      --------------------        ------       --------------------------
 S
               1        2.000     -0.24380013662793E+02      -663.414              -5.70E-10
               2        2.000     -0.10916696572490E+01       -29.706              -4.11E-10
               3        0.000      0.23171521938657E-01         0.631
               4        0.000      0.15801599788495E+01        42.998
               5        0.000      0.48367571090263E+02      1316.149
 P
               1        5.000     -0.40924594303694E+00       -11.136              -3.94E-10
               2        0.000      0.42818717158446E+00        11.652
               3        0.000      0.45634501130520E+01       124.178
 D
               1        0.000      0.11166683619357E+01        30.386
 F
               1        0.000      0.34160293329535E+01        92.955


 Partially Occupied:
               1 P                -0.40924594303694E+00
  
 HOMO :        2 S                -0.10916696572490E+01
 LUMO :        3 S                 0.23171521938657E-01
  


 Orbital Energies, all Irreps
 ========================================

 Irrep        no.  (spin)   Occup              E (au)                E (eV)
 ---------------------------------------------------------------------------
 S             1             2.00       -0.24380013662793E+02      -663.4139
 S             2             2.00       -0.10916696572490E+01       -29.7058
 P             1             5.00       -0.40924594303694E+00       -11.1361
 S             3             0.00        0.23171521938657E-01         0.6305
 P             2             0.00        0.42818717158446E+00        11.6516
 D             1             0.00        0.11166683619357E+01        30.3861
 S             4             0.00        0.15801599788495E+01        42.9983
 F             1             0.00        0.34160293329535E+01        92.9549
 P             3             0.00        0.45634501130520E+01       124.1778
 S             5             0.00        0.48367571090263E+02      1316.1486


 All Electron Calculation, thus no Orbital Energies of the Core Orbitals are calculated



 =======================================
 M U L L I K E N   P O P U L A T I O N S
 =======================================
  
 The survey below gives for each atom:
 a) the total charge (Z minus electrons)
 b) the net spin polarization (nr of electrons spin-A minus spin-B)
 c) for each spin the atomic electron valence density (integrated) per L-value.

 Atom              Charge    Spin density          S         P         D         F
 ----              ------    ------------       ------    ------    ------    ------
 1 F              -0.0000                       4.0000    5.0000    0.0000    0.0000

 Populations of individual BAS functions
 ----------------------------------------
 1 F            0.5735  1.4020  1.1462  0.8789 -0.0006  0.3652  0.3652  0.3652  0.9146  0.9146
                0.9146  0.3869  0.3869  0.3869  0.0000  0.0000  0.0000  0.0000  0.0000  0.0000
                0.0000  0.0000  0.0000  0.0000  0.0000  0.0000  0.0000  0.0000  0.0000  0.0000

 Gross Charges per Atom (Z minus electrons)
 ==========================================
            -0.0000
 Net Total: -0.00000000



 =======================================================================
 Electrostatic potential at the Nuclei due to electrons and other nuclei
 =======================================================================
  
         Atom                  Potential
         ----                  ---------
     1)   F                  26.51041126
 
 
 ========================
 No memory problems found
 ========================
 
 Maximum number of active allocate calls:         447
 
 *******************************************************************************

                             A D F   E X I T
 NORMAL TERMINATION



 =================
 Timing Statistics
 =================
  
 Total Used :                     CPU=        0.51      System=        0.02     Elapsed=        0.53

 Calls  Section                     ( Mean, Percentage )
 ---------------------------------------------------------------------------------------------------
     3  ><      ................      0.00    0.20             0.00    0.00             0.00    0.15
     1  INIT    ................      0.01    1.97             0.01   60.87             0.03    4.84
     1  GEOMET  ................      0.01    1.18             0.00   13.05             0.01    1.58
     1  INPUTA  ................      0.00    0.20             0.00    0.00             0.00    0.29
     1  MAINSY  ................      0.00    0.98             0.00    4.35             0.01    1.11
     1  SYMFIT  ................      0.00    0.00             0.00    4.35             0.00    0.15
     1  CORORT  ................      0.00    0.00             0.00    0.00             0.00    0.05
     1  SYMORB  ................      0.00    0.20             0.00    0.00             0.00    0.13
     1  CLSMAT  ................      0.00    0.98             0.00    0.00             0.01    0.98
     1  ORTHON  ................      0.00    0.39             0.00    0.00             0.00    0.30
     1  GENPT   ................      0.01    2.76             0.00    0.00             0.01    2.77
     1  PTBAS   ................      0.00    0.79             0.00    0.00             0.00    0.65
    13  FOCKY   ................      0.03   74.80             0.00   13.05             0.03   72.24
    13  FOCKTR  ................      0.00    2.17             0.00    0.00             0.00    2.07
    13  SDIIS   ................      0.00    4.33             0.00    4.34             0.00    4.03
     1  COREPS  ................      0.02    4.33             0.00    0.00             0.02    4.12
     1  POPAN   ................      0.00    0.98             0.00    0.00             0.01    0.98
     1  DEBYE   ................      0.00    0.20             0.00    0.00             0.00    0.11
     1  EXIT PROCEDURE .........      0.02    3.54             0.00    0.00             0.02    3.46


 Currently Open Files (EXIT00)
 ====================

 Unit    Access Format  Status   Type       Ident (file)
 -------------------------------------------------------
   3      SEQ    FORM   TRANSP  NORMAL      LOGFILE
                                          ( logfile )


 Buffered I/O statistics
 =======================
 Memory available:                     67108864
 Number of records fitting in memory:     16131
 Input :   0.1% of                        27818  *4k bytes
 Output:  13.5% of                         1383  *4k bytes
 Records from serial files evicted:           0
                    others evicted:           0
 Hash table lookups:      71870 with          0 conflicts (  0.00%)

 ***************************************************************************************************
 (LOGFILE)
 <Apr18-2019> <13:53:49>  ADF development version  RunTime: Apr18-2019 13:53:49  Nodes: 1  Procs: 1
 <Apr18-2019> <13:53:49>  Bromine (TZ2P)
 <Apr18-2019> <13:53:49>  RunType   : CREATE
 <Apr18-2019> <13:53:49>  Net Charge: 0 (Nuclei minus Electrons)
 <Apr18-2019> <13:53:49>  Symmetry  : ATOM
  Coordinates
    Atom         X           Y           Z   (Angstrom)
    1.Br        0.000000    0.000000    0.000000
 <Apr18-2019> <13:53:49>  >>>> CORORT
 <Apr18-2019> <13:53:49>  >>>> CLSMAT
 <Apr18-2019> <13:53:49>  >>>> ORTHON
 <Apr18-2019> <13:53:49>  >>>> GENPT
 <Apr18-2019> <13:53:49>  Block Length= 106
 <Apr18-2019> <13:53:49>  >>>> PTBAS
 <Apr18-2019> <13:53:49>  >>>> CYCLE
 <Apr18-2019> <13:53:49>              |Error|         MaxErr       Wt(A-DIIS)
 <Apr18-2019> <13:53:49>      1      0.00000000      0.00000000
 <Apr18-2019> <13:53:49>      2    133.90378859     33.00263884    100.0
 <Apr18-2019> <13:53:49>      3     49.62914370     17.59518881    100.0
 <Apr18-2019> <13:53:49>      4      9.09209484      2.12485505    100.0
 <Apr18-2019> <13:53:49>      5     11.70158419      3.98842598    100.0
 <Apr18-2019> <13:53:49>      6      1.82354005      0.45661929    100.0
 <Apr18-2019> <13:53:49>      7      1.60769584      0.41584263    100.0
 <Apr18-2019> <13:53:49>      8      0.06575401      0.01946729     18.7
 <Apr18-2019> <13:53:49>      9      0.02601319      0.00809116      7.2
 <Apr18-2019> <13:53:49>     10      0.00046367      0.00010037      0.0
 <Apr18-2019> <13:53:50>     11      0.00001086      0.00000278      0.0
 <Apr18-2019> <13:53:50>     12      0.00000025      0.00000006      0.0
 <Apr18-2019> <13:53:50>     13      0.00000001      0.00000000      0.0
 <Apr18-2019> <13:53:50>  SCF converged
 <Apr18-2019> <13:53:50>     14      0.00000000      0.00000000      0.0
 <Apr18-2019> <13:53:50>  >>>> POPAN
 <Apr18-2019> <13:53:50>  >>>> DEBYE
 <Apr18-2019> <13:53:50>  NORMAL TERMINATION
 <Apr18-2019> <13:53:50>  END
 <Apr18-2019> <13:53:50>  ADF development version  RunTime: Apr18-2019 13:53:50  Nodes: 1  Procs: 1
 <Apr18-2019> <13:53:50>  Fluorine (TZ2P)
 <Apr18-2019> <13:53:50>  RunType   : CREATE
 <Apr18-2019> <13:53:50>  Net Charge: 0 (Nuclei minus Electrons)
 <Apr18-2019> <13:53:50>  Symmetry  : ATOM
  Coordinates
    Atom         X           Y           Z   (Angstrom)
    1.F         0.000000    0.000000    0.000000
 <Apr18-2019> <13:53:50>  >>>> CORORT
 <Apr18-2019> <13:53:50>  >>>> CLSMAT
 <Apr18-2019> <13:53:50>  >>>> ORTHON
 <Apr18-2019> <13:53:50>  >>>> GENPT
 <Apr18-2019> <13:53:50>  Block Length=  76
 <Apr18-2019> <13:53:50>  >>>> PTBAS
 <Apr18-2019> <13:53:50>  >>>> CYCLE
 <Apr18-2019> <13:53:50>              |Error|         MaxErr       Wt(A-DIIS)
 <Apr18-2019> <13:53:50>      1      0.00000000      0.00000000
 <Apr18-2019> <13:53:50>      2     11.37379478      4.77775941    100.0
 <Apr18-2019> <13:53:50>      3      5.10737118      3.12542566    100.0
 <Apr18-2019> <13:53:50>      4      0.96588425      0.45165556    100.0
 <Apr18-2019> <13:53:50>      5      1.67496341      0.82531802    100.0
 <Apr18-2019> <13:53:50>      6      0.19960756      0.09763484     97.6
 <Apr18-2019> <13:53:50>      7      0.26650754      0.12651474    100.0
 <Apr18-2019> <13:53:50>      8      0.03096878      0.01498150     14.1
 <Apr18-2019> <13:53:50>      9      0.00605981      0.00290433      1.9
 <Apr18-2019> <13:53:50>     10      0.00016558      0.00007919      0.0
 <Apr18-2019> <13:53:50>     11      0.00000005      0.00000002      0.0
 <Apr18-2019> <13:53:50>     12      0.00000000      0.00000000      0.0
 <Apr18-2019> <13:53:50>  SCF converged
 <Apr18-2019> <13:53:50>     13      0.00000000      0.00000000      0.0
 <Apr18-2019> <13:53:50>  >>>> POPAN
 <Apr18-2019> <13:53:50>  >>>> DEBYE
 <Apr18-2019> <13:53:50>  NORMAL TERMINATION
 <Apr18-2019> <13:53:50>  END


 Parallel Execution: Process Information
 ==============================================================================
 Rank   Node Name                              NodeID   MyNodeRank  NodeMaster
    0   BAZIS-cn076                               0          0          0
    1   BAZIS-cn076                               0          1         -1
    2   BAZIS-cn076                               0          2         -1
    3   BAZIS-cn076                               0          3         -1
    4   BAZIS-cn076                               0          4         -1
    5   BAZIS-cn076                               0          5         -1
    6   BAZIS-cn076                               0          6         -1
    7   BAZIS-cn076                               0          7         -1
    8   BAZIS-cn076                               0          8         -1
    9   BAZIS-cn076                               0          9         -1
   10   BAZIS-cn076                               0         10         -1
   11   BAZIS-cn076                               0         11         -1
 ==============================================================================


May use up to 30736MB of RAM as shared memory on node 0


XC
  GGA blyp
  DISPERSION Grimme3 BJDAMP
END

ANALYTICALFREQ
END

SCF
  iterations 250
END

Geometry
  Iterations 300
  Optim Cartesian
  Convergence E=1e-4 grad=1e-4
End

SYMMETRY nosym
CHARGE -1

ZLMFIT
  Quality normal
END

BECKEGRID
  Quality good
End

ATOMS
F      -4.94867129       3.04098476       0.02199102
Br     -3.76372578       1.14672480       0.05741844
Br    -6.06298381       5.11120939      -0.21661069
END

Fragments
Br t21.Br
F t21.F
End
end input

 *******************************************************************************
 *                                                                             *
 *  -------------------------------------                                      *
 *   Amsterdam Density Functional  (ADF)         development version           *
 *  -------------------------------------                                      *
 *                                               r61132 2017-09-08             *
 *                                                                             *
 *                                                                             *
 *                              =================                              *
 *                              |               |                              *
 *                              |     A D F     |                              *
 *                              |               |                              *
 *                              =================                              *
 *                                                                             *
 *                                                                             *
 *   Online information and documentation:  https://www.scm.com/support/       *
 *   E-mail:  support@scm.com   info@scm.com                                   *
 *                                                                             *
 *   Scientific publications using ADF results must be properly referenced     *
 *   See the User Manuals (or the web site) for recommended citations          *
 *   The terms and conditions of the End User License Agreement apply to       *
 *   the use of ADF, https://www.scm.com/license-terms/                        *
 *                                                                             *
 **********************  x86_64_linux_intel / intelmpi  ************************
 
 Licensed to: VU/FEW (+ SARA) / ALGEMEEN / Amsterdam / THE NETHERLANDS
 SCM User ID: u7668
  
 ADF development version  RunTime: Apr18-2019 13:53:51  Nodes: 1  Procs: 12

 Temporary files are created in /local/datastore0/tcst25/186692/kid_0.8ZtVq2


Communication costs MPI_COMM_WORLD:      2.759 usec per message,   0.0132 usec per 8-byte item
Communication costs for intra-node:      2.755 usec per message,   0.0131 usec per 8-byte item

 *** (NO TITLE) ***



 ===========================
 A T T A C H E D   F I L E S
 ===========================
  



 ===============================
 M O D E L   P A R A M E T E R S
 ===============================
  
 DENSITY FUNCTIONAL POTENTIAL (scf)
    LDA:                               Exchange only                           == Not Default ==
    Gradient Corrections:              Becke88 LYP                             == Not Default ==

 SPIN  (restricted / unrestr.)
    Molecule:                          Restricted                               
    Fragments:                         Restricted                               

 OTHER ASPECTS
    Relativistic Corrections:          ---                                      

    Nuclear Charge Density Model:      Point Charge Nuclei                      
    Core Treatment:                    Frozen Orbital(s)                        

    Hyperfine or Zeeman Interaction:   ---                                      

 Settings for Grimme 3 dispersion correction

      damping                        BJ
      s6                          1.000
      a1                          0.430
      s8                          2.700
      a2                          4.236

 Other (technical) parameters

      alpha                      14.000
      version                         4
 


 Fragment File(s)
 ----------------
 F:
         file : t21.F
         jobid: ADF development version  RunTime: Apr18-2019 13:53:50  Nodes: 1  Procs: 1
         title: Fluorine (TZ2P)
 Br:
         file : t21.Br
         jobid: ADF development version  RunTime: Apr18-2019 13:53:49  Nodes: 1  Procs: 1
         title: Bromine (TZ2P)



                                   *********************************************
                                   *  R U N   T Y P E : GEOMETRY OPTIMIZATION  *
                                   *********************************************
  



 ===============
 G E O M E T R Y  ***  Planar Molecule  ***
 ===============
  

 ATOMS
 =====                            X Y Z                    CHARGE
                                (Angstrom)             Nucl     +Core       At.Mass
                       --------------------------    ----------------       -------
    1  F              -4.9487    3.0410    0.0220      9.00      9.00       18.9984
    2  Br             -3.7637    1.1467    0.0574     35.00     35.00       78.9183
    3  Br             -6.0630    5.1112   -0.2166     35.00     35.00       78.9183


 FRAGMENTS
 =========                                     Atoms in this Fragment     Cart. coord.s (Angstrom)
                                               -------------------------------------------------------
    1  F                                                 1  F           -4.9487    3.0410    0.0220
    2  Br                                                2  Br          -3.7637    1.1467    0.0574
    3  Br                                                3  Br          -6.0630    5.1112   -0.2166


 Interatomic Distance Matrix (Angstrom)
 --------------------------------------

   1)     0.000
   2)     2.235   0.000
   3)     2.363   4.591   0.000

 Min. Distance =    2.2346
 Max. Distance =    4.5912



 =====================================
 S Y M M E T R Y ,   E L E C T R O N S
 =====================================
  
 Symmetry: NOSYM

 Irreducible Representations, including subspecies
 -------------------------------------------------
 A


 Configuration of Valence Electrons
 ==================================
 ( determined in the SCF procedure )

 Total:   80

 Net Charge: -1 (Nuclei minus Electrons)

 Aufbau principle for MO occupations will be applied through SCF cycle no.     125
 Thereafter, the program will assign electrons to MOs that are spatially
 similar to the occupied MOs in a "reference" cycle ("KeepOrbitals").
 The reference cycle is always the PREVIOUS cycle: it will evolve with
 the SCF procedure.
1
 ***************************************************************************************************



                                      ****************************************
                                      *  B U I L D : (Fragments, Functions)  *
                                      ****************************************
  



 =======
 S F O s  ***  (Symmetrized Fragment Orbitals)  ***
 =======
  
 SFOs are linear combinations of (valence) Fragment Orbitals (FOs), such that the SFOs transform as the
 irreducible representations of the (molecular) symmetry group. Each SFO is therefore characterized by
 an irrep of the molecule and by a few (or only one) generating FOs.
 The SFOs constitute a symmetry-adapted basis for the Fock matrix. The MO eigenvector coefficients in
 this basis provide a direct interpretation of the MOs in terms of Frontier Orbital Theory.

 The SFOs are combined with auxiliary Core Functions (CFs) to ensure orthogonalization on the (frozen)
 Core Orbitals (COs). The Core-orthogonalized SFOs (CSFOs) constitute the true Fock basis.

 The FOs, and hence also the (C)SFOs are combinations of the elementary basis functions (BAS). The basis
 functions that participate in the description of the SFOs depend on the irrep. The indices of the
 involved functions are printed below for each irrep.
 (The complete list of primitive basis functions is printed in another section)

 Total nr. of (C)SFOs (summation over all irreps) :   138

 NOTE: a (C)SFO that is defined as a combination of more than one FO is usually NOT normalized.



                                       === A ===
 Nr. of SFOs :  138
 Cartesian basis functions that participate in this irrep (total number =   156) :
      1     2     3     4     5     6     9    12     7    10
     13     8    11    14    15    16    17    18    19    20
     21    22    23    24    25    26    27    28    29    30
     31    32    33    40    41    66    67    68    34    37
     42    45    69    72    75    35    38    43    46    70
     73    76    36    39    44    47    71    74    77    48
     54    60    78    49    55    61    79    50    56    62
     80    51    57    63    81    52    58    64    82    53
     59    65    83    84    85    86    87    88    89    90
     91    92    93    94    95    96   103   104   129   130
    131    97   100   105   108   132   135   138    98   101
    106   109   133   136   139    99   102   107   110   134
    137   140   111   117   123   141   112   118   124   142
    113   119   125   143   114   120   126   144   115   121
    127   145   116   122   128   146   147   148   149   150
    151   152   153   154   155   156

    SFO  (index         Fragment          Generating    Expansion in Fragment Orbitals
  indx  incl.CFs)   Occup   Orb.Energy   FragmentType  Coeff.   Orbital     on Fragment
 --------------------------------------------------------------------------------------
     1       1      2.000     -24.380 au  F             1.00      1 S               1
                        (    -663.414 eV)
     2       2      2.000      -1.092 au  F             1.00      2 S               1
                        (     -29.706 eV)
     3       3       --         0.023 au  F             1.00      3 S               1
                        (       0.631 eV)
     4       4       --         1.580 au  F             1.00      4 S               1
                        (      42.998 eV)
     5       5       --        48.368 au  F             1.00      5 S               1
                        (    1316.149 eV)
     6       6      1.667      -0.409 au  F             1.00      1 P:x             1
                        (     -11.136 eV)
     7       7       --         0.428 au  F             1.00      2 P:x             1
                        (      11.652 eV)
     8       8       --         4.563 au  F             1.00      3 P:x             1
                        (     124.178 eV)
     9       9      1.667      -0.409 au  F             1.00      1 P:y             1
                        (     -11.136 eV)
    10      10       --         0.428 au  F             1.00      2 P:y             1
                        (      11.652 eV)
    11      11       --         4.563 au  F             1.00      3 P:y             1
                        (     124.178 eV)
    12      12      1.667      -0.409 au  F             1.00      1 P:z             1
                        (     -11.136 eV)
    13      13       --         0.428 au  F             1.00      2 P:z             1
                        (      11.652 eV)
    14      14       --         4.563 au  F             1.00      3 P:z             1
                        (     124.178 eV)
    15      15       --         1.117 au  F             1.00      1 D:z2            1
                        (      30.386 eV)
    16      16       --         1.117 au  F             1.00      1 D:x2-y2         1
                        (      30.386 eV)
    17      17       --         1.117 au  F             1.00      1 D:xy            1
                        (      30.386 eV)
    18      18       --         1.117 au  F             1.00      1 D:xz            1
                        (      30.386 eV)
[...]
 Memory available:                     67108864
 Number of records fitting in memory:     16131
 Input :   0.2% of                       417189  *4k bytes
 Output:  11.3% of                        26266  *4k bytes
 Records from serial files evicted:           0
                    others evicted:           0
 Hash table lookups:    1149941 with          0 conflicts (  0.00%)

 ***************************************************************************************************
 (LOGFILE)
 <Apr18-2019> <13:53:49>  ADF development version  RunTime: Apr18-2019 13:53:49  Nodes: 1  Procs: 1
 <Apr18-2019> <13:53:49>  Bromine (TZ2P)
 <Apr18-2019> <13:53:49>  RunType   : CREATE
 <Apr18-2019> <13:53:49>  Net Charge: 0 (Nuclei minus Electrons)
 <Apr18-2019> <13:53:49>  Symmetry  : ATOM
  Coordinates
    Atom         X           Y           Z   (Angstrom)
    1.Br        0.000000    0.000000    0.000000
 <Apr18-2019> <13:53:49>  >>>> CORORT
 <Apr18-2019> <13:53:49>  >>>> CLSMAT
 <Apr18-2019> <13:53:49>  >>>> ORTHON
 <Apr18-2019> <13:53:49>  >>>> GENPT
 <Apr18-2019> <13:53:49>  Block Length= 106
 <Apr18-2019> <13:53:49>  >>>> PTBAS
 <Apr18-2019> <13:53:49>  >>>> CYCLE
 <Apr18-2019> <13:53:49>              |Error|         MaxErr       Wt(A-DIIS)
 <Apr18-2019> <13:53:49>      1      0.00000000      0.00000000
 <Apr18-2019> <13:53:49>      2    133.90378859     33.00263884    100.0
 <Apr18-2019> <13:53:49>      3     49.62914370     17.59518881    100.0
 <Apr18-2019> <13:53:49>      4      9.09209484      2.12485505    100.0
 <Apr18-2019> <13:53:49>      5     11.70158419      3.98842598    100.0
 <Apr18-2019> <13:53:49>      6      1.82354005      0.45661929    100.0
 <Apr18-2019> <13:53:49>      7      1.60769584      0.41584263    100.0
 <Apr18-2019> <13:53:49>      8      0.06575401      0.01946729     18.7
 <Apr18-2019> <13:53:49>      9      0.02601319      0.00809116      7.2
 <Apr18-2019> <13:53:49>     10      0.00046367      0.00010037      0.0
 <Apr18-2019> <13:53:50>     11      0.00001086      0.00000278      0.0
 <Apr18-2019> <13:53:50>     12      0.00000025      0.00000006      0.0
 <Apr18-2019> <13:53:50>     13      0.00000001      0.00000000      0.0
 <Apr18-2019> <13:53:50>  SCF converged
 <Apr18-2019> <13:53:50>     14      0.00000000      0.00000000      0.0
 <Apr18-2019> <13:53:50>  >>>> POPAN
 <Apr18-2019> <13:53:50>  >>>> DEBYE
 <Apr18-2019> <13:53:50>  NORMAL TERMINATION
 <Apr18-2019> <13:53:50>  END
 <Apr18-2019> <13:53:50>  ADF development version  RunTime: Apr18-2019 13:53:50  Nodes: 1  Procs: 1
 <Apr18-2019> <13:53:50>  Fluorine (TZ2P)
 <Apr18-2019> <13:53:50>  RunType   : CREATE
 <Apr18-2019> <13:53:50>  Net Charge: 0 (Nuclei minus Electrons)
 <Apr18-2019> <13:53:50>  Symmetry  : ATOM
  Coordinates
    Atom         X           Y           Z   (Angstrom)
    1.F         0.000000    0.000000    0.000000
 <Apr18-2019> <13:53:50>  >>>> CORORT
 <Apr18-2019> <13:53:50>  >>>> CLSMAT
 <Apr18-2019> <13:53:50>  >>>> ORTHON
 <Apr18-2019> <13:53:50>  >>>> GENPT
 <Apr18-2019> <13:53:50>  Block Length=  76
 <Apr18-2019> <13:53:50>  >>>> PTBAS
 <Apr18-2019> <13:53:50>  >>>> CYCLE
 <Apr18-2019> <13:53:50>              |Error|         MaxErr       Wt(A-DIIS)
 <Apr18-2019> <13:53:50>      1      0.00000000      0.00000000
 <Apr18-2019> <13:53:50>      2     11.37379478      4.77775941    100.0
 <Apr18-2019> <13:53:50>      3      5.10737118      3.12542566    100.0
 <Apr18-2019> <13:53:50>      4      0.96588425      0.45165556    100.0
 <Apr18-2019> <13:53:50>      5      1.67496341      0.82531802    100.0
 <Apr18-2019> <13:53:50>      6      0.19960756      0.09763484     97.6
 <Apr18-2019> <13:53:50>      7      0.26650754      0.12651474    100.0
 <Apr18-2019> <13:53:50>      8      0.03096878      0.01498150     14.1
 <Apr18-2019> <13:53:50>      9      0.00605981      0.00290433      1.9
 <Apr18-2019> <13:53:50>     10      0.00016558      0.00007919      0.0
 <Apr18-2019> <13:53:50>     11      0.00000005      0.00000002      0.0
 <Apr18-2019> <13:53:50>     12      0.00000000      0.00000000      0.0
 <Apr18-2019> <13:53:50>  SCF converged
 <Apr18-2019> <13:53:50>     13      0.00000000      0.00000000      0.0
 <Apr18-2019> <13:53:50>  >>>> POPAN
 <Apr18-2019> <13:53:50>  >>>> DEBYE
 <Apr18-2019> <13:53:50>  NORMAL TERMINATION
 <Apr18-2019> <13:53:50>  END
 <Apr18-2019> <13:53:51>  ADF development version  RunTime: Apr18-2019 13:53:51  Nodes: 1  Procs: 12
 <Apr18-2019> <13:53:51>  *** (NO TITLE) ***
 <Apr18-2019> <13:53:51>  RunType   : GEOMETRY OPTIMIZATION
 <Apr18-2019> <13:53:51>  Net Charge: -1 (Nuclei minus Electrons)
 <Apr18-2019> <13:53:51>  Symmetry  : NOSYM
 <Apr18-2019> <13:53:51>  >>>> FRAGM
  Coordinates in Geometry Cycle 1
    Atom         X           Y           Z   (Angstrom)
    1.F        -4.948671    3.040985    0.021991
    2.Br       -3.763726    1.146725    0.057418
    3.Br       -6.062984    5.111209   -0.216611
 <Apr18-2019> <13:53:51>  >>>> CORORT
 <Apr18-2019> <13:53:51>  >>>> CLSMAT
 <Apr18-2019> <13:53:51>  >>>> ORTHON
 <Apr18-2019> <13:53:51>  >>>> GENPT
 <Apr18-2019> <13:53:51>  Block Length= 128
 <Apr18-2019> <13:53:51>  >>>> PTBAS
 <Apr18-2019> <13:53:51>  >>>> CYCLE
 <Apr18-2019> <13:53:51>              |Error|         MaxErr       Wt(A-DIIS)
 <Apr18-2019> <13:53:51>      1      1.09423245      0.43779640
 <Apr18-2019> <13:53:52>      2      0.61470311      0.21281801    100.0
 <Apr18-2019> <13:53:52>      3      1.36750728      0.50506910    100.0
 <Apr18-2019> <13:53:52>      4      0.36511655      0.09618876     96.2
 <Apr18-2019> <13:53:52>      5      0.66853519      0.18057318    100.0
 <Apr18-2019> <13:53:52>      6      0.21293317      0.06816291     67.8
 <Apr18-2019> <13:53:52>      7      0.15120657      0.05017581     49.7
 <Apr18-2019> <13:53:52>      8      0.06463347      0.01566345     14.8
 <Apr18-2019> <13:53:52>      9      0.02806252      0.00920056      8.3
 <Apr18-2019> <13:53:52>     10      0.00231265      0.00060295      0.0
 <Apr18-2019> <13:53:52>     11      0.00031071      0.00009190      0.0
 <Apr18-2019> <13:53:52>     12      0.00007817      0.00002611      0.0
 <Apr18-2019> <13:53:53>     13      0.00003213      0.00001049      0.0
 <Apr18-2019> <13:53:53>     14      0.00000095      0.00000029      0.0
 <Apr18-2019> <13:53:53>  SCF converged
 <Apr18-2019> <13:53:53>     15      0.00000081      0.00000028      0.0
 <Apr18-2019> <13:53:53>  >>>> TOTEN
 <Apr18-2019> <13:53:53>  >>>> POPAN
 <Apr18-2019> <13:53:53>  >>>> DEBYE
 <Apr18-2019> <13:53:53>  >>>> ENGRAD
 <Apr18-2019> <13:53:53>  current energy                               -0.30482382 Hartree
 <Apr18-2019> <13:53:53>  energy change                      -0.30482382     0.00010000    F
 <Apr18-2019> <13:53:53>  constrained gradient max            0.01595497     0.00010000    F
 <Apr18-2019> <13:53:53>  constrained gradient rms            0.00808143     0.00006667    F
 <Apr18-2019> <13:53:53>  gradient max                        0.01595497
 <Apr18-2019> <13:53:53>  gradient rms                        0.00808143
 <Apr18-2019> <13:53:53>  cart. step max                      0.09152771     0.01000000    F
 <Apr18-2019> <13:53:53>  cart. step rms                      0.05388675     0.00666667    F
  Coordinates in Geometry Cycle 2
    Atom         X           Y           Z   (Angstrom)
    1.F        -4.909617    3.080380   -0.049204
    2.Br       -3.825428    1.198857    0.088621
    3.Br       -6.040337    5.019682   -0.176619
 <Apr18-2019> <13:53:53>  >>>> CORORT
 <Apr18-2019> <13:53:53>  >>>> CLSMAT
 <Apr18-2019> <13:53:53>  >>>> ORTHON
 <Apr18-2019> <13:53:53>  >>>> GENPT
 <Apr18-2019> <13:53:53>  Block Length= 128
 <Apr18-2019> <13:53:53>  >>>> PTBAS
 <Apr18-2019> <13:53:53>  >>>> CYCLE
 <Apr18-2019> <13:53:53>              |Error|         MaxErr       Wt(A-DIIS)
 <Apr18-2019> <13:53:53>      1      0.22513595      0.08232974
 <Apr18-2019> <13:53:53>      2      0.07111967      0.01852132    100.0
 <Apr18-2019> <13:53:54>      3      0.03837083      0.01092990    100.0
 <Apr18-2019> <13:53:54>      4      0.08072990      0.02008520    100.0
 <Apr18-2019> <13:53:54>      5      0.03986366      0.00981980      8.9
 <Apr18-2019> <13:53:54>      6      0.00626453      0.00202212      1.0
 <Apr18-2019> <13:53:54>      7      0.00056724      0.00009909      0.0
 <Apr18-2019> <13:53:54>      8      0.00008315      0.00001437      0.0
 <Apr18-2019> <13:53:54>      9      0.00003344      0.00000844      0.0
 <Apr18-2019> <13:53:54>     10      0.00001147      0.00000383      0.0
 <Apr18-2019> <13:53:54>     11      0.00000097      0.00000024      0.0
 <Apr18-2019> <13:53:54>  SCF converged
 <Apr18-2019> <13:53:54>     12      0.00000030      0.00000007      0.0
 <Apr18-2019> <13:53:54>  >>>> TOTEN
 <Apr18-2019> <13:53:55>  >>>> POPAN
 <Apr18-2019> <13:53:55>  >>>> DEBYE
 <Apr18-2019> <13:53:55>  >>>> ENGRAD
 <Apr18-2019> <13:53:55>  current energy                               -0.30662130 Hartree
 <Apr18-2019> <13:53:55>  energy change                      -0.00179748     0.00010000    F
 <Apr18-2019> <13:53:55>  constrained gradient max            0.00361332     0.00010000    F
 <Apr18-2019> <13:53:55>  constrained gradient rms            0.00183088     0.00006667    F
 <Apr18-2019> <13:53:55>  gradient max                        0.00361332
 <Apr18-2019> <13:53:55>  gradient rms                        0.00183088
 <Apr18-2019> <13:53:55>  cart. step max                      0.01017106     0.01000000    F
 <Apr18-2019> <13:53:55>  cart. step rms                      0.00627415     0.00666667    T
  Coordinates in Geometry Cycle 3
    Atom         X           Y           Z   (Angstrom)
    1.F        -4.915201    3.085723   -0.046823
    2.Br       -3.827907    1.191752    0.096412
    3.Br       -6.032273    5.021444   -0.186790
 <Apr18-2019> <13:53:55>  >>>> CORORT
 <Apr18-2019> <13:53:55>  >>>> CLSMAT
 <Apr18-2019> <13:53:55>  >>>> ORTHON
 <Apr18-2019> <13:53:55>  >>>> GENPT
 <Apr18-2019> <13:53:55>  Block Length= 128
 <Apr18-2019> <13:53:55>  >>>> PTBAS
 <Apr18-2019> <13:53:55>  >>>> CYCLE
 <Apr18-2019> <13:53:55>              |Error|         MaxErr       Wt(A-DIIS)
 <Apr18-2019> <13:53:55>      1      0.02589823      0.00760334
 <Apr18-2019> <13:53:55>      2      0.03152159      0.01077572    100.0
 <Apr18-2019> <13:53:55>      3      0.13178894      0.04338985    100.0
 <Apr18-2019> <13:53:55>      4      0.04947352      0.01659147    100.0
 <Apr18-2019> <13:53:55>      5      0.01021091      0.00304279      2.1
 <Apr18-2019> <13:53:56>      6      0.00061238      0.00014972      0.0
 <Apr18-2019> <13:53:56>      7      0.00005218      0.00001217      0.0
 <Apr18-2019> <13:53:56>      8      0.00003358      0.00000991      0.0
 <Apr18-2019> <13:53:56>      9      0.00000257      0.00000061      0.0
 <Apr18-2019> <13:53:56>  SCF converged
 <Apr18-2019> <13:53:56>     10      0.00000074      0.00000016      0.0
 <Apr18-2019> <13:53:56>  >>>> TOTEN
 <Apr18-2019> <13:53:56>  >>>> POPAN
 <Apr18-2019> <13:53:56>  >>>> DEBYE
 <Apr18-2019> <13:53:56>  >>>> ENGRAD
 <Apr18-2019> <13:53:56>  current energy                               -0.30666353 Hartree
 <Apr18-2019> <13:53:56>  energy change                      -0.00004224     0.00010000    T
 <Apr18-2019> <13:53:56>  constrained gradient max            0.00253627     0.00010000    F
 <Apr18-2019> <13:53:56>  constrained gradient rms            0.00123595     0.00006667    F
 <Apr18-2019> <13:53:56>  gradient max                        0.00253627
 <Apr18-2019> <13:53:56>  gradient rms                        0.00123595
 <Apr18-2019> <13:53:56>  cart. step max                      0.01392353     0.01000000    F
 <Apr18-2019> <13:53:56>  cart. step rms                      0.00719354     0.00666667    F
  Coordinates in Geometry Cycle 4
    Atom         X           Y           Z   (Angstrom)
    1.F        -4.925264    3.099878   -0.045752
    2.Br       -3.823890    1.184454    0.097155
    3.Br       -6.026227    5.014587   -0.188605
 <Apr18-2019> <13:53:56>  >>>> CORORT
 <Apr18-2019> <13:53:56>  >>>> CLSMAT
 <Apr18-2019> <13:53:56>  >>>> ORTHON
 <Apr18-2019> <13:53:56>  >>>> GENPT
 <Apr18-2019> <13:53:56>  Block Length= 128
 <Apr18-2019> <13:53:56>  >>>> PTBAS
 <Apr18-2019> <13:53:56>  >>>> CYCLE
 <Apr18-2019> <13:53:57>              |Error|         MaxErr       Wt(A-DIIS)
 <Apr18-2019> <13:53:57>      1      0.05486739      0.01773358
 <Apr18-2019> <13:53:57>      2      0.07312648      0.02490647    100.0
 <Apr18-2019> <13:53:57>      3      0.02379477      0.00793464    100.0
 <Apr18-2019> <13:53:57>      4      0.01013841      0.00269941      1.7
 <Apr18-2019> <13:53:57>      5      0.01156328      0.00378855    100.0
 <Apr18-2019> <13:53:57>      6      0.01783969      0.00444197    100.0
 <Apr18-2019> <13:53:57>      7      0.00372133      0.00094515      0.0
 <Apr18-2019> <13:53:57>      8      0.00004137      0.00000818      0.0
 <Apr18-2019> <13:53:57>      9      0.00002776      0.00001010      0.0
 <Apr18-2019> <13:53:57>     10      0.00000826      0.00000304      0.0
 <Apr18-2019> <13:53:57>     11      0.00000025      0.00000005      0.0
 <Apr18-2019> <13:53:57>  SCF converged
 <Apr18-2019> <13:53:58>     12      0.00000015      0.00000004      0.0
 <Apr18-2019> <13:53:58>  >>>> TOTEN
 <Apr18-2019> <13:53:58>  >>>> POPAN
 <Apr18-2019> <13:53:58>  >>>> DEBYE
 <Apr18-2019> <13:53:58>  >>>> ENGRAD
 <Apr18-2019> <13:53:58>  current energy                               -0.30669999 Hartree
 <Apr18-2019> <13:53:58>  energy change                      -0.00003646     0.00010000    T
 <Apr18-2019> <13:53:58>  constrained gradient max            0.00031820     0.00010000    F
 <Apr18-2019> <13:53:58>  constrained gradient rms            0.00016316     0.00006667    F
 <Apr18-2019> <13:53:58>  gradient max                        0.00031820
 <Apr18-2019> <13:53:58>  gradient rms                        0.00016316
 <Apr18-2019> <13:53:58>  cart. step max                      0.00152746     0.01000000    T
 <Apr18-2019> <13:53:58>  cart. step rms                      0.00092996     0.00666667    T
  Coordinates in Geometry Cycle 5
    Atom         X           Y           Z   (Angstrom)
    1.F        -4.925085    3.099567   -0.045728
    2.Br       -3.822737    1.183238    0.096719
    3.Br       -6.027559    5.016114   -0.188192
 <Apr18-2019> <13:53:58>  >>>> CORORT
 <Apr18-2019> <13:53:58>  >>>> CLSMAT
 <Apr18-2019> <13:53:58>  >>>> ORTHON
 <Apr18-2019> <13:53:58>  >>>> GENPT
 <Apr18-2019> <13:53:58>  Block Length= 128
 <Apr18-2019> <13:53:58>  >>>> PTBAS
 <Apr18-2019> <13:53:58>  >>>> CYCLE
 <Apr18-2019> <13:53:58>              |Error|         MaxErr       Wt(A-DIIS)
 <Apr18-2019> <13:53:58>      1      0.00468171      0.00192338
 <Apr18-2019> <13:53:58>      2      0.00171770      0.00052693    100.0
 <Apr18-2019> <13:53:58>      3      0.01122179      0.00367178    100.0
 <Apr18-2019> <13:53:58>      4      0.00468784      0.00147977    100.0
 <Apr18-2019> <13:53:59>      5      0.00133437      0.00041310      0.0
 <Apr18-2019> <13:53:59>      6      0.00005623      0.00001753      0.0
 <Apr18-2019> <13:53:59>      7      0.00000993      0.00000165      0.0
 <Apr18-2019> <13:53:59>      8      0.00000178      0.00000043      0.0
 <Apr18-2019> <13:53:59>  SCF converged
 <Apr18-2019> <13:53:59>      9      0.00000061      0.00000015      0.0
 <Apr18-2019> <13:53:59>  >>>> TOTEN
 <Apr18-2019> <13:53:59>  >>>> POPAN
 <Apr18-2019> <13:53:59>  >>>> DEBYE
 <Apr18-2019> <13:53:59>  >>>> ENGRAD
 <Apr18-2019> <13:53:59>  current energy                               -0.30670032 Hartree
 <Apr18-2019> <13:53:59>  energy change                      -0.00000032     0.00010000    T
 <Apr18-2019> <13:53:59>  constrained gradient max            0.00010205     0.00010000    F
 <Apr18-2019> <13:53:59>  constrained gradient rms            0.00005249     0.00006667    T
 <Apr18-2019> <13:53:59>  gradient max                        0.00010205
 <Apr18-2019> <13:53:59>  gradient rms                        0.00005249
 <Apr18-2019> <13:53:59>  cart. step max                      0.00038216     0.01000000    T
 <Apr18-2019> <13:53:59>  cart. step rms                      0.00022483     0.00666667    T
  Coordinates in Geometry Cycle 6
    Atom         X           Y           Z   (Angstrom)
    1.F        -4.925127    3.099639   -0.045734
    2.Br       -3.822993    1.183548    0.096782
    3.Br       -6.027261    5.015732   -0.188250
 <Apr18-2019> <13:53:59>  >>>> CORORT
 <Apr18-2019> <13:53:59>  >>>> CLSMAT
 <Apr18-2019> <13:53:59>  >>>> ORTHON
 <Apr18-2019> <13:53:59>  >>>> GENPT
 <Apr18-2019> <13:53:59>  Block Length= 128
 <Apr18-2019> <13:53:59>  >>>> PTBAS
 <Apr18-2019> <13:53:59>  >>>> CYCLE
 <Apr18-2019> <13:54:00>              |Error|         MaxErr       Wt(A-DIIS)
 <Apr18-2019> <13:54:00>      1      0.00113226      0.00046253
 <Apr18-2019> <13:54:00>      2      0.00040396      0.00012272    100.0
 <Apr18-2019> <13:54:00>      3      0.00024463      0.00007323    100.0
 <Apr18-2019> <13:54:00>      4      0.00031715      0.00007833      0.0
 <Apr18-2019> <13:54:00>      5      0.00012507      0.00003561      0.0
 <Apr18-2019> <13:54:00>      6      0.00001379      0.00000431      0.0
 <Apr18-2019> <13:54:00>      7      0.00000239      0.00000039      0.0
 <Apr18-2019> <13:54:00>  SCF converged
 <Apr18-2019> <13:54:00>      8      0.00000043      0.00000009      0.0
 <Apr18-2019> <13:54:00>  >>>> TOTEN
 <Apr18-2019> <13:54:00>  >>>> POPAN
 <Apr18-2019> <13:54:00>  >>>> DEBYE
 <Apr18-2019> <13:54:00>  >>>> ENGRAD
 <Apr18-2019> <13:54:00>  current energy                               -0.30670039 Hartree
 <Apr18-2019> <13:54:01>  energy change                      -0.00000007     0.00010000    T
 <Apr18-2019> <13:54:01>  constrained gradient max            0.00000026     0.00010000    T
 <Apr18-2019> <13:54:01>  constrained gradient rms            0.00000013     0.00006667    T
 <Apr18-2019> <13:54:01>  gradient max                        0.00000026
 <Apr18-2019> <13:54:01>  gradient rms                        0.00000013
 <Apr18-2019> <13:54:01>  cart. step max                      0.00000096     0.01000000    T
 <Apr18-2019> <13:54:01>  cart. step rms                      0.00000056     0.00666667    T
 <Apr18-2019> <13:54:01>  GEOMETRY CONVERGED
 <Apr18-2019> <13:54:01>  Calculating Energy Terms for Final Geometry
  Coordinates in Geometry Cycle 6
    Atom         X           Y           Z   (Angstrom)
    1.F        -4.925127    3.099639   -0.045734
    2.Br       -3.822993    1.183548    0.096782
    3.Br       -6.027261    5.015732   -0.188250
 <Apr18-2019> <13:54:01>  >>>> CORORT
 <Apr18-2019> <13:54:01>  >>>> CLSMAT
 <Apr18-2019> <13:54:01>  >>>> ORTHON
 <Apr18-2019> <13:54:01>  >>>> GENPT
 <Apr18-2019> <13:54:01>  Block Length= 128
 <Apr18-2019> <13:54:01>  >>>> PTBAS
 <Apr18-2019> <13:54:01>  >>>> CYCLE
 <Apr18-2019> <13:54:01>              |Error|         MaxErr       Wt(A-DIIS)
 <Apr18-2019> <13:54:01>      1      0.00000018      0.00000007
 <Apr18-2019> <13:54:01>      2      0.00000118      0.00000045    100.0
 <Apr18-2019> <13:54:01>  SCF converged
 <Apr18-2019> <13:54:01>      3      0.00000071      0.00000027    100.0
 <Apr18-2019> <13:54:01>  >>>> TOTEN
 <Apr18-2019> <13:54:01>  >>>> POPAN
 <Apr18-2019> <13:54:01>  >>>> DEBYE
 <Apr18-2019> <13:54:01>  >>>> AMETS
 <Apr18-2019> <13:54:01>  >>>> POPUL
 <Apr18-2019> <13:54:01>   Bond Energy          -0.30670039 a.u.
 <Apr18-2019> <13:54:01>   Bond Energy          -8.34574227 eV
 <Apr18-2019> <13:54:01>   Bond Energy        -192.46       kcal/mol
 <Apr18-2019> <13:54:01>  >>>> ENHESS
 <Apr18-2019> <13:54:01>  === NUCLEUS:     1
 <Apr18-2019> <13:54:04>  === NUCLEUS:     2
 <Apr18-2019> <13:54:06>  === NUCLEUS:     3
 <Apr18-2019> <13:54:08>  >>>> CALC_HESS_PMAT
 <Apr18-2019> <13:54:09>  >>>> CALC_HESS_WMAT
 <Apr18-2019> <13:54:09>  NORMAL TERMINATION
 <Apr18-2019> <13:54:09>  END
