

 Parallel Execution: Process Information
 ==============================================================================
 Rank   Node Name                              NodeID   MyNodeRank  NodeMaster
    0   BAZIS-cn076                               0          0          0
    1   BAZIS-cn076                               0          1         -1
    2   BAZIS-cn076                               0          2         -1
    3   BAZIS-cn076                               0          3         -1
    4   BAZIS-cn076                               0          4         -1
    5   BAZIS-cn076                               0          5         -1
    6   BAZIS-cn076                               0          6         -1
    7   BAZIS-cn076                               0          7         -1
    8   BAZIS-cn076                               0          8         -1
    9   BAZIS-cn076                               0          9         -1
   10   BAZIS-cn076                               0         10         -1
   11   BAZIS-cn076                               0         11         -1
 ==============================================================================


May use up to 30736MB of RAM as shared memory on node 0


XC
    GGA BP86
END

SCF
    iterations 250
END

EPRINT
    SFO Eig Ovl
END

ZLMFIT
    Quality normal
END

BECKEGRID
    Quality good
End

SYMMETRY nosym
CHARGE -1

ATOMS
1.F        -4.948744    3.143384   -0.047472 f=FBr
2.Br       -3.905898    1.351021    0.067963 f=FBr
3.F        -5.920738    4.804514   -0.157692 f=F
END

Fragments
FBr /home/tcst25/advanced_comp_chemistry/exercise2/halogen/BrFF/frag1_FBr.t21
F /home/tcst25/advanced_comp_chemistry/exercise2/halogen/BrFF/frag2_F.t21
End
end input

 *******************************************************************************
 *                                                                             *
 *  -------------------------------------                                      *
 *   Amsterdam Density Functional  (ADF)         2017                          *
 *  -------------------------------------                                      *
 *                                               r58813 2017-04-12             *
 *                                                                             *
 *                                                                             *
 *                              =================                              *
 *                              |               |                              *
 *                              |     A D F     |                              *
 *                              |               |                              *
 *                              =================                              *
 *                                                                             *
 *                                                                             *
 *   Online information and documentation:  https://www.scm.com/support/       *
 *   E-mail:  support@scm.com   info@scm.com                                   *
 *                                                                             *
 *   Scientific publications using ADF results must be properly referenced     *
 *   See the User Manuals (or the web site) for recommended citations          *
 *   The terms and conditions of the End User License Agreement apply to       *
 *   the use of ADF, https://www.scm.com/license-terms/                        *
 *                                                                             *
 **********************  x86_64_linux_intel / intelmpi  ************************
 
 Licensed to: VU/FEW (+ SARA) / ALGEMEEN / Amsterdam / THE NETHERLANDS
 SCM User ID: u7668
  
 ADF 2017  RunTime: May09-2019 17:12:03  Nodes: 1  Procs: 12

 Temporary files are created in /local/datastore0/tcst25/189773/kid_0.seLTeE


Communication costs MPI_COMM_WORLD:      2.449 usec per message,   0.0111 usec per 8-byte item
Communication costs for intra-node:      2.476 usec per message,   0.0111 usec per 8-byte item

 *** (NO TITLE) ***



 ===========================
 A T T A C H E D   F I L E S
 ===========================
  



 ===============================
 M O D E L   P A R A M E T E R S
 ===============================
  
 DENSITY FUNCTIONAL POTENTIAL (scf)
    LDA:                               VWN                                      
    Gradient Corrections:              Becke88 Perdew86                        == Not Default ==

 SPIN  (restricted / unrestr.)
    Molecule:                          Restricted                               
    Fragments:                         Restricted                               

 OTHER ASPECTS
    Relativistic Corrections:          ---                                      

    Nuclear Charge Density Model:      Point Charge Nuclei                      
    Core Treatment:                    Frozen Orbital(s)                        

    Hyperfine or Zeeman Interaction:   ---                                      


 Fragment File(s)
 ----------------
 FBr:
         file : /home/tcst25/advanced_comp_chemistry/exercise2/halogen/BrFF/frag1_FBr.t21
         jobid: ADF 2017  RunTime: May09-2019 16:32:19  Nodes: 1  Procs: 12
         title: *** (NO TITLE) ***
 F:
         file : /home/tcst25/advanced_comp_chemistry/exercise2/halogen/BrFF/frag2_F.t21
         jobid: ADF 2017  RunTime: May09-2019 16:32:20  Nodes: 1  Procs: 12
         title: *** (NO TITLE) ***



                                        ************************************
                                        *  R U N   T Y P E : SINGLE POINT  *
                                        ************************************
  



 ===============
 G E O M E T R Y  ***  Planar Molecule  ***
 ===============
  

 ATOMS
 =====                            X Y Z                    CHARGE
                                (Angstrom)             Nucl     +Core       At.Mass
                       --------------------------    ----------------       -------
    1  F              -4.9487    3.1434   -0.0475      9.00      9.00       18.9984
    2  Br             -3.9059    1.3510    0.0680     35.00     35.00       78.9183
    3  F              -5.9207    4.8045   -0.1577      9.00      9.00       18.9984


 FRAGMENTS
 =========                                     Atoms in this Fragment     Cart. coord.s (Angstrom)
                                               -------------------------------------------------------
    1  FBr                                               1  F           -4.9487    3.1434   -0.0475
                                                         2  Br          -3.9059    1.3510    0.0680
    2  F                                                 3  F           -5.9207    4.8045   -0.1577


 Interatomic Distance Matrix (Angstrom)
 --------------------------------------

   1)     0.000
   2)     2.077   0.000
   3)     1.928   4.005   0.000

 Min. Distance =    1.9278
 Max. Distance =    4.0046



 =====================================
 S Y M M E T R Y ,   E L E C T R O N S
 =====================================
  
 Symmetry: NOSYM

 Irreducible Representations, including subspecies
 -------------------------------------------------
 A


 Configuration of Valence Electrons
 ==================================
 ( determined in the SCF procedure )

 Total:   54

 Net Charge: -1 (Nuclei minus Electrons)

 Aufbau principle for MO occupations will be applied through SCF cycle no.     125
 Thereafter, the program will assign electrons to MOs that are spatially
 similar to the occupied MOs in a "reference" cycle ("KeepOrbitals").
 The reference cycle is always the PREVIOUS cycle: it will evolve with
 the SCF procedure.
1
 ***************************************************************************************************



                                      ****************************************
                                      *  B U I L D : (Fragments, Functions)  *
                                      ****************************************
  

 The individual fragments are copies of the corresponding 'Master' fragments defined on the fragment files.
 However, they may have been rotated (and translated) with respect to the Master. The local coordinate axes
 of each fragment (which define for instance the spatial orientation in the current molecule of a fragment
 P:x orbital) are not necessarily those of the molecule.
 The local frame (if different from the molecular one) is printed to enable an interpretation of the expan-
 sion of an MO in Fragment Orbitals.



                                             *************************
                                             *  Fragment Type : FBr  *
                                             *************************
  

 Fragment no.    1   (in the list of all fragments)
 -----------------
 The local coordinate frame is identical to the molecular frame.

 Check Atomic Coordinates:

                  Master (on file)          After Computed Tranformation               As specified on Input
           ----------------------------     ----------------------------     ---------------------------------
     1)    -4.94874   3.14338  -0.04747     -4.94874   3.14338  -0.04747       1  -4.94874   3.14338  -0.04747
     2)    -3.90590   1.35102   0.06796     -3.90590   1.35102   0.06796       2  -3.90590   1.35102   0.06796



                                              ***********************
                                              *  Fragment Type : F  *
                                              ***********************
  

 Fragment no.    2   (in the list of all fragments)
 -----------------
 The local coordinate frame is identical to the molecular frame.

 Check Atomic Coordinates:

                  Master (on file)          After Computed Tranformation               As specified on Input
           ----------------------------     ----------------------------     ---------------------------------
     1)    -5.92074   4.80451  -0.15769     -5.92074   4.80451  -0.15769       3  -5.92074   4.80451  -0.15769



 =======
 S F O s  ***  (Symmetrized Fragment Orbitals)  ***
 =======
  
 SFOs are linear combinations of (valence) Fragment Orbitals (FOs), such that the SFOs transform as the
 irreducible representations of the (molecular) symmetry group. Each SFO is therefore characterized by
 an irrep of the molecule and by a few (or only one) generating FOs.
 The SFOs constitute a symmetry-adapted basis for the Fock matrix. The MO eigenvector coefficients in
 this basis provide a direct interpretation of the MOs in terms of Frontier Orbital Theory.

 The SFOs are combined with auxiliary Core Functions (CFs) to ensure orthogonalization on the (frozen)
 Core Orbitals (COs). The Core-orthogonalized SFOs (CSFOs) constitute the true Fock basis.

 The FOs, and hence also the (C)SFOs are combinations of the elementary basis functions (BAS). The basis
 functions that participate in the description of the SFOs depend on the irrep. The indices of the
 involved functions are printed below for each irrep.
 (The complete list of primitive basis functions is printed in another section)

 Total nr. of (C)SFOs (summation over all irreps) :   108

 NOTE: a (C)SFO that is defined as a combination of more than one FO is usually NOT normalized.



                                       === A ===
 Nr. of SFOs :  108
 Cartesian basis functions that participate in this irrep (total number =   123) :
      1     2     3     4     5     6     9    12     7    10
     13     8    11    14    15    16    17    18    19    20
     21    22    23    24    25    26    27    28    29    30
     31    32    33    40    41    66    67    68    34    37
     42    45    69    72    75    35    38    43    46    70
     73    76    36    39    44    47    71    74    77    48
     54    60    78    49    55    61    79    50    56    62
     80    51    57    63    81    52    58    64    82    53
     59    65    83    84    85    86    87    88    89    90
     91    92    93    94    95    96    97    98    99   102
    105   100   103   106   101   104   107   108   109   110
    111   112   113   114   115   116   117   118   119   120
    121   122   123

    SFO  (index         Fragment          Generating    Expansion in Fragment Orbitals
  indx  incl.CFs)   Occup   Orb.Energy   FragmentType  Coeff.   Orbital     on Fragment
 --------------------------------------------------------------------------------------
     1       1      2.000    -481.080 au  FBr           1.00      1 A               1
                        (  -13090.841 eV)
     2       2      2.000     -61.834 au  FBr           1.00      2 A               1
                        (   -1682.582 eV)
     3       3      2.000     -55.770 au  FBr           1.00      3 A               1
                        (   -1517.569 eV)
     4       4      2.000     -55.761 au  FBr           1.00      4 A               1
                        (   -1517.328 eV)
     5       5      2.000     -55.761 au  FBr           1.00      5 A               1
                        (   -1517.328 eV)
     6       6      2.000     -24.310 au  FBr           1.00      6 A               1
                        (    -661.503 eV)
     7       7      2.000      -8.453 au  FBr           1.00      7 A               1
                        (    -230.021 eV)
     8       8      2.000      -6.370 au  FBr           1.00      8 A               1
                        (    -173.325 eV)
     9       9      2.000      -6.344 au  FBr           1.00      9 A               1
                        (    -172.635 eV)
    10      10      2.000      -6.344 au  FBr           1.00     10 A               1
                        (    -172.634 eV)
    11      11      2.000      -2.572 au  FBr           1.00     11 A               1
                        (     -69.996 eV)
    12      12      2.000      -2.566 au  FBr           1.00     12 A               1
                        (     -69.832 eV)
    13      13      2.000      -2.566 au  FBr           1.00     13 A               1
                        (     -69.832 eV)
    14      14      2.000      -2.548 au  FBr           1.00     14 A               1
                        (     -69.331 eV)
    15      15      2.000      -2.548 au  FBr           1.00     15 A               1
                        (     -69.330 eV)
    16      16      2.000      -1.051 au  FBr           1.00     16 A               1
                        (     -28.597 eV)
    17      17      2.000      -0.741 au  FBr           1.00     17 A               1
                        (     -20.173 eV)
    18      18      2.000      -0.431 au  FBr           1.00     18 A               1
                        (     -11.739 eV)
    19      19      2.000      -0.364 au  FBr           1.00     19 A               1
                        (      -9.891 eV)
    20      20      2.000      -0.363 au  FBr           1.00     20 A               1
                        (      -9.891 eV)
    21      21      2.000      -0.293 au  FBr           1.00     21 A               1
                        (      -7.971 eV)
    22      22      2.000      -0.293 au  FBr           1.00     22 A               1
                        (      -7.971 eV)
    23      23       --        -0.245 au  FBr           1.00     23 A               1
                        (      -6.679 eV)
    24      24       --         0.031 au  FBr           1.00     24 A               1
                        (       0.851 eV)
    25      25       --         0.121 au  FBr           1.00     25 A               1
                        (       3.297 eV)
    26      26       --         0.129 au  FBr           1.00     26 A               1
                        (       3.515 eV)
    27      27       --         0.129 au  FBr           1.00     27 A               1
                        (       3.515 eV)
    28      28       --         0.239 au  FBr           1.00     28 A               1
                        (       6.510 eV)
    29      29       --         0.239 au  FBr           1.00     29 A               1
                        (       6.510 eV)
    30      30       --         0.248 au  FBr           1.00     30 A               1
                        (       6.740 eV)
    31      31       --         0.248 au  FBr           1.00     31 A               1
                        (       6.741 eV)
    32      32       --         0.254 au  FBr           1.00     32 A               1
                        (       6.922 eV)
    33      33       --         0.427 au  FBr           1.00     33 A               1
                        (      11.613 eV)
    34      34       --         0.563 au  FBr           1.00     34 A               1
                        (      15.311 eV)
    35      35       --         0.563 au  FBr           1.00     35 A               1
                        (      15.311 eV)
    36      36       --         0.689 au  FBr           1.00     36 A               1
                        (      18.759 eV)
    37      37       --         0.795 au  FBr           1.00     37 A               1
                        (      21.628 eV)
    38      38       --         0.795 au  FBr           1.00     38 A               1
                        (      21.628 eV)
    39      39       --         0.831 au  FBr           1.00     39 A               1
                        (      22.618 eV)
    40      40       --         0.831 au  FBr           1.00     40 A               1
                        (      22.619 eV)
    41      41       --         0.839 au  FBr           1.00     41 A               1
                        (      22.821 eV)
    42      42       --         0.839 au  FBr           1.00     42 A               1
                        (      22.821 eV)
    43      43       --         0.959 au  FBr           1.00     43 A               1
                        (      26.085 eV)
    44      44       --         1.178 au  FBr           1.00     44 A               1
                        (      32.053 eV)
    45      45       --         1.178 au  FBr           1.00     45 A               1
                        (      32.054 eV)
    46      46       --         1.237 au  FBr           1.00     46 A               1
                        (      33.673 eV)
    47      47       --         1.240 au  FBr           1.00     47 A               1
                        (      33.729 eV)
    48      48       --         1.240 au  FBr           1.00     48 A               1
                        (      33.729 eV)
    49      49       --         1.391 au  FBr           1.00     49 A               1
                        (      37.861 eV)
    50      50       --         1.548 au  FBr           1.00     50 A               1
                        (      42.134 eV)
    51      51       --         1.548 au  FBr           1.00     51 A               1
                        (      42.134 eV)
    52      52       --         2.331 au  FBr           1.00     52 A               1
                        (      63.427 eV)
    53      53       --         2.605 au  FBr           1.00     53 A               1
                        (      70.893 eV)
    54      54       --         2.655 au  FBr           1.00     54 A               1
                        (      72.251 eV)
    55      55       --         2.655 au  FBr           1.00     55 A               1
                        (      72.253 eV)
    56      56       --         2.798 au  FBr           1.00     56 A               1
                        (      76.141 eV)
    57      57       --         2.798 au  FBr           1.00     57 A               1
                        (      76.142 eV)
    58      58       --         3.390 au  FBr           1.00     58 A               1
                        (      92.245 eV)
    59      59       --         3.472 au  FBr           1.00     59 A               1
                        (      94.486 eV)
    60      60       --         3.472 au  FBr           1.00     60 A               1
                        (      94.486 eV)
    61      61       --         3.515 au  FBr           1.00     61 A               1
                        (      95.643 eV)
    62      62       --         3.515 au  FBr           1.00     62 A               1
                        (      95.643 eV)
    63      63       --         3.664 au  FBr           1.00     63 A               1
                        (      99.691 eV)
    64      64       --         3.664 au  FBr           1.00     64 A               1
                        (      99.691 eV)
    65      65       --         3.697 au  FBr           1.00     65 A               1
                        (     100.604 eV)
    66      66       --         4.788 au  FBr           1.00     66 A               1
                        (     130.286 eV)
    67      67       --         4.788 au  FBr           1.00     67 A               1
                        (     130.286 eV)
    68      68       --         5.147 au  FBr           1.00     68 A               1
                        (     140.051 eV)
    69      69       --         8.818 au  FBr           1.00     69 A               1
                        (     239.963 eV)
    70      70       --         8.819 au  FBr           1.00     70 A               1
                        (     239.967 eV)
    71      71       --         9.080 au  FBr           1.00     71 A               1
                        (     247.067 eV)
    72      72       --        14.694 au  FBr           1.00     72 A               1
                        (     399.834 eV)
    73      73       --        20.576 au  FBr           1.00     73 A               1
                        (     559.893 eV)
    74      74       --        20.576 au  FBr           1.00     74 A               1
                        (     559.897 eV)
    75      75       --        20.750 au  FBr           1.00     75 A               1
                        (     564.624 eV)
    76      76       --        20.750 au  FBr           1.00     76 A               1
                        (     564.626 eV)
    77      77       --        21.058 au  FBr           1.00     77 A               1
                        (     573.023 eV)
    78      78       --        50.578 au  FBr           1.00     78 A               1
                        (    1376.288 eV)
    79      79       --       100.862 au  FBr           1.00     79 A               1
                        (    2744.590 eV)
    80      80       --       100.862 au  FBr           1.00     80 A               1
                        (    2744.591 eV)
    81      81       --       101.475 au  FBr           1.00     81 A               1
                        (    2761.263 eV)
    82      82       --       748.370 au  FBr           1.00     82 A               1
                        (   20364.187 eV)
    83      83      2.000     -23.791 au  F             1.00      1 A               2
                        (    -647.398 eV)
    84      84      2.000      -0.555 au  F             1.00      2 A               2
                        (     -15.093 eV)
    85      85      2.000       0.108 au  F             1.00      3 A               2
                        (       2.944 eV)
    86      86      2.000       0.108 au  F             1.00      4 A               2
                        (       2.944 eV)
    87      87      2.000       0.108 au  F             1.00      5 A               2
                        (       2.944 eV)
    88      88       --         0.286 au  F             1.00      6 A               2
                        (       7.773 eV)
    89      89       --         0.812 au  F             1.00      7 A               2
                        (      22.092 eV)
    90      90       --         0.812 au  F             1.00      8 A               2
                        (      22.092 eV)
    91      91       --         0.812 au  F             1.00      9 A               2
                        (      22.092 eV)
    92      92       --         1.566 au  F             1.00     10 A               2
                        (      42.603 eV)
    93      93       --         1.566 au  F             1.00     11 A               2
                        (      42.603 eV)
    94      94       --         1.566 au  F             1.00     12 A               2
                        (      42.603 eV)
    95      95       --         1.566 au  F             1.00     13 A               2
                        (      42.603 eV)
    96      96       --         1.566 au  F             1.00     14 A               2
                        (      42.603 eV)
    97      97       --         2.040 au  F             1.00     15 A               2
                        (      55.515 eV)
    98      98       --         3.896 au  F             1.00     16 A               2
                        (     106.020 eV)
    99      99       --         3.896 au  F             1.00     17 A               2
                        (     106.020 eV)
   100     100       --         3.896 au  F             1.00     18 A               2
                        (     106.020 eV)
   101     101       --         3.896 au  F             1.00     19 A               2
                        (     106.020 eV)
   102     102       --         3.896 au  F             1.00     20 A               2
                        (     106.020 eV)
   103     103       --         3.896 au  F             1.00     21 A               2
                        (     106.020 eV)
   104     104       --         3.896 au  F             1.00     22 A               2
                        (     106.020 eV)
   105     105       --         5.088 au  F             1.00     23 A               2
                        (     138.458 eV)
   106     106       --         5.088 au  F             1.00     24 A               2
                        (     138.458 eV)
   107     107       --         5.088 au  F             1.00     25 A               2
                        (     138.458 eV)
   108     108       --        48.938 au  F             1.00     26 A               2
                        (    1331.672 eV)



 ================================
 (Slater-type)  F U N C T I O N S  ***  (Basis and Fit)  ***
 ================================
  

 Atom Type    1  (F)
 ==============

 Valence Basis Sets:  10
 -----------------------
   1 S   10.880000
   1 S    7.700000
   2 S    3.240000
   2 S    1.940000
   2 S    0.740000
   2 P    4.540000
   2 P    2.300000
   2 P    1.240000
   3 D    2.000000
   4 F    3.000000

 Atom Type    2  (Br)
 ==============

 Valence Basis Sets:  20
 -----------------------
   1 S   41.300000
   1 S   32.800000
   2 S   13.900000
   2 P   19.450000
   2 P   13.100000
   3 S    7.200000
   3 S    4.950000
   3 P    7.900000
   3 P    5.050000
   3 D   10.900000
   3 D    6.050000
   3 D    3.500000
   4 S    4.500000
   4 S    2.800000
   4 S    1.800000
   4 P    3.250000
   4 P    1.950000
   4 P    1.200000
   4 D    1.800000
   4 F    1.800000

 Atom Type    3  (F)
 ==============

 Valence Basis Sets:  10
 -----------------------
   1 S   10.880000
   1 S    7.700000
   2 S    3.240000
   2 S    1.940000
   2 S    0.740000
   2 P    4.540000
   2 P    2.300000
   2 P    1.240000
   3 D    2.000000
   4 F    3.000000


 BAS: List of all Elementary Cartesian Basis Functions
 =====================================================

 The numbering in the list below (to the right of the function characteristics) is referred
 to in print-outs of MO eigenvectors and Mulliken populations in the BAS representation
 (as contrasted to the SFO representation).

 Notes:
 1. The functions are characterized by a polynomial prefactor (powers of x,y,z and r) and
    an exponential decay factor alpha.
 2. Since the basis sets are specific for an atom TYPE, the individual functions occur on
    all atoms of that type.
 3. The word 'Core' in the left margin signals that it is a Core Function (CF) : not a
    degree of freedom in the valence set, but only used to ensure orthogonalization of
    the other valence basis functions on the frozen Core Orbitals.


 (power of) X  Y  Z  R     Alpha  on Atom
            ==========     =====     ==========

 F                                    1
                                  ---------------------------------------------------------------------------
            0  0  0  0    10.880      1
            0  0  0  0     7.700      2
            0  0  0  1     3.240      3
            0  0  0  1     1.940      4
            0  0  0  1     0.740      5
            1  0  0  0     4.540      6
            0  1  0  0     4.540      7
            0  0  1  0     4.540      8
            1  0  0  0     2.300      9
            0  1  0  0     2.300     10
            0  0  1  0     2.300     11
            1  0  0  0     1.240     12
            0  1  0  0     1.240     13
            0  0  1  0     1.240     14
            2  0  0  0     2.000     15
            1  1  0  0     2.000     16
            1  0  1  0     2.000     17
            0  2  0  0     2.000     18
            0  1  1  0     2.000     19
            0  0  2  0     2.000     20
            3  0  0  0     3.000     21
            2  1  0  0     3.000     22
            2  0  1  0     3.000     23
            1  2  0  0     3.000     24
            1  1  1  0     3.000     25
            1  0  2  0     3.000     26
            0  3  0  0     3.000     27
            0  2  1  0     3.000     28
            0  1  2  0     3.000     29
            0  0  3  0     3.000     30

 Br                                   2
                                  ---------------------------------------------------------------------------
            0  0  0  0    41.300     31
            0  0  0  0    32.800     32
            0  0  0  1    13.900     33
            1  0  0  0    19.450     34
            0  1  0  0    19.450     35
            0  0  1  0    19.450     36
            1  0  0  0    13.100     37
            0  1  0  0    13.100     38
            0  0  1  0    13.100     39
            0  0  0  2     7.200     40
            0  0  0  2     4.950     41
            1  0  0  1     7.900     42
            0  1  0  1     7.900     43
            0  0  1  1     7.900     44
            1  0  0  1     5.050     45
            0  1  0  1     5.050     46
            0  0  1  1     5.050     47
            2  0  0  0    10.900     48
            1  1  0  0    10.900     49
            1  0  1  0    10.900     50
            0  2  0  0    10.900     51
            0  1  1  0    10.900     52
            0  0  2  0    10.900     53
            2  0  0  0     6.050     54
            1  1  0  0     6.050     55
            1  0  1  0     6.050     56
            0  2  0  0     6.050     57
            0  1  1  0     6.050     58
            0  0  2  0     6.050     59
            2  0  0  0     3.500     60
            1  1  0  0     3.500     61
            1  0  1  0     3.500     62
            0  2  0  0     3.500     63
            0  1  1  0     3.500     64
            0  0  2  0     3.500     65
            0  0  0  3     4.500     66
            0  0  0  3     2.800     67
            0  0  0  3     1.800     68
            1  0  0  2     3.250     69
            0  1  0  2     3.250     70
            0  0  1  2     3.250     71
            1  0  0  2     1.950     72
            0  1  0  2     1.950     73
            0  0  1  2     1.950     74
            1  0  0  2     1.200     75
            0  1  0  2     1.200     76
            0  0  1  2     1.200     77
            2  0  0  1     1.800     78
            1  1  0  1     1.800     79
            1  0  1  1     1.800     80
            0  2  0  1     1.800     81
            0  1  1  1     1.800     82
            0  0  2  1     1.800     83
            3  0  0  0     1.800     84
            2  1  0  0     1.800     85
            2  0  1  0     1.800     86
            1  2  0  0     1.800     87
            1  1  1  0     1.800     88
            1  0  2  0     1.800     89
            0  3  0  0     1.800     90
            0  2  1  0     1.800     91
            0  1  2  0     1.800     92
            0  0  3  0     1.800     93

 F                                    3
                                  ---------------------------------------------------------------------------
            0  0  0  0    10.880     94
            0  0  0  0     7.700     95
            0  0  0  1     3.240     96
            0  0  0  1     1.940     97
            0  0  0  1     0.740     98
            1  0  0  0     4.540     99
            0  1  0  0     4.540    100
            0  0  1  0     4.540    101
            1  0  0  0     2.300    102
            0  1  0  0     2.300    103
            0  0  1  0     2.300    104
            1  0  0  0     1.240    105
            0  1  0  0     1.240    106
            0  0  1  0     1.240    107
            2  0  0  0     2.000    108
            1  1  0  0     2.000    109
            1  0  1  0     2.000    110
            0  2  0  0     2.000    111
            0  1  1  0     2.000    112
            0  0  2  0     2.000    113
            3  0  0  0     3.000    114
            2  1  0  0     3.000    115
            2  0  1  0     3.000    116
            1  2  0  0     3.000    117
            1  1  1  0     3.000    118
            1  0  2  0     3.000    119
            0  3  0  0     3.000    120
            0  2  1  0     3.000    121
            0  1  2  0     3.000    122
            0  0  3  0     3.000    123

 Total number of charge fitting functions (nprimf)       340
 Total number of Cartesian basis functions (naos)        123
 Total number of Cartesian core functions  (ncos)          0

1
 ***************************************************************************************************



                                              ***********************
                                              *  T E C H N I C A L  *
                                              ***********************
  



 =============================================================
 P A R A L L E L I Z A T I O N  and  V E C T O R I Z A T I O N
 =============================================================
  
 Nr of parallel processes:                               12
 Maximum vector length in NumInt loops:                 128

 IO buffersize (Mb):                                     64.000000



 =====================
 S C F   U P D A T E S
 =====================
  
 Max. nr. of cycles:                               250
 Convergence criterion:                              0.0000010000
   secondary criterion:                              0.0010000000

 Mix parameter (when DIIS does not apply):           0.2000000000
 Mixed ADIIS+DIIS will be used
    Max number of expansion vectors:                10
    Pure ADIIS when Max([F,P]) is above              0.1000000000
    Pure DIIS when Max([F,P]) is below               0.0010000000
 Automatic ElectronSmearing (in case of problematic SCF convergence) disabled



 =================
 P R E C I S I O N  ***  (General: NumInt, NeglectFunctionTails, ...)  ***
 =================
  

 NumInt:           Target precision:                 6.0000000000
 -------           Initial precision:                6.0000000000
                   Min. precision (optimization):    6.0000000000

 Neglect Functions:          Basis functions:        0.1000000000E-07
 ------------------          Fit functions:          0.1000000000E-07



 ===========================
 L I N E A R   S C A L I N G
 ===========================
  

 Cut-off radii density fit:                        0.1000000000E-09
 Overlap cut-off criterion AO matrix elements:     0.1000000000E-07
 Cut-offs for Coulomb potential and fitted density:0.1000000000E-09
 Cut-off criterion for Coulomb multipole terms:    0.1000000000E-09
 Progressive Convergence parameter:                 0.000000000    
1
 ***************************************************************************************************



                                            ***************************
                                            *  C O M P U T A T I O N  *
                                            ***************************
  

 Number of elements of the density matrix on this node (used, total):      2016      7626



 ===========================================
 Numerical Integration : Fuzzy Cells (Becke)
 ===========================================
  
 Becke grid quality: GOOD           
  
 Lebedev angular grid order:             min:  11 max:  31
 Nr. of radial points:                   min:  65 max:  90

 Total nr. of points:      47645
 Nr. of blocks:              373
 Block length:               128
 Nr. of dummy points:         99


 Test of Precision of the Numerical Integration Grid
 ===================================================

 Integral of the Total Core Density:                   0.00000000000000



 ========================
 Density Fitting (zlmFit)
 ========================
  
 ZlmFit Fit Quality: NORMAL         
  
 Max L-expansion:                        min:   7 max:   7
 Nr. of radial interpolation points:     min:  51 max:  72



 =====
 S C F  ***  ScaSCF  ***
 =====
  
 Initial density matrix is calculated as sum of fragments

 CYCLE    1
 SCF Error: norm([F,P])=      0.740469933025, max([F,P])=      0.510345119382
 orbitals (Q,E):
 ---------------
 A :18...37          ( 2.00    -0.6180)  ( 2.00    -0.5526)  ( 2.00    -0.2427)  ( 2.00    -0.1973)
                     ( 2.00    -0.1973)  ( 2.00    -0.0930)  ( 2.00    -0.0930)  ( 2.00    -0.0604)
                     ( 2.00     0.1164)  ( 2.00     0.1164)  ( 0.00     0.1402)  ( 0.00     0.1758)
                     ( 0.00     0.2515)  ( 0.00     0.2515)  ( 0.00     0.2784)  ( 0.00     0.3312)
                     ( 0.00     0.3615)  ( 0.00     0.3615)  ( 0.00     0.3676)  ( 0.00     0.3676)

 CYCLE    2
  SDIIS (wt  0.000):  0.8209  0.1791
 A-DIIS (wt  1.000):  0.8748  0.1252
  DIIS coefficients:  0.8748  0.1252
 SCF Error: norm([F,P])=      1.719259919399, max([F,P])=      0.702749938637
 orbitals (Q,E):
 ---------------
 A :18...28          ( 2.00    -0.6947)  ( 2.00    -0.5543)  ( 2.00    -0.2017)  ( 2.00    -0.1458)
                     ( 2.00    -0.1458)  ( 2.00    -0.0719)  ( 2.00    -0.0719)  ( 2.00    -0.0573)
                     ( 2.00    -0.0137)  ( 2.00    -0.0137)  ( 0.00     0.0382)

 CYCLE    3
  SDIIS (wt  0.000):  0.4756 -0.0572  0.5816
 A-DIIS (wt  1.000):  0.7189  0.0000  0.2811
  DIIS coefficients:  0.7189  0.0000  0.2811
 SCF Error: norm([F,P])=      0.724375240003, max([F,P])=      0.324542973575
 orbitals (Q,E):
 ---------------
 A :18...28          ( 2.00    -0.7062)  ( 2.00    -0.5321)  ( 2.00    -0.2285)  ( 2.00    -0.1612)
                     ( 2.00    -0.1612)  ( 2.00    -0.0978)  ( 2.00    -0.0978)  ( 2.00    -0.0641)
                     ( 2.00    -0.0245)  ( 2.00    -0.0245)  ( 0.00     0.0111)

 CYCLE    4
  SDIIS (wt  0.000): -0.4079  0.6145  0.7934
 A-DIIS (wt  1.000):  0.0000  0.7081  0.2919
  DIIS coefficients:  0.0000  0.7081  0.2919
 SCF Error: norm([F,P])=      0.888223932477, max([F,P])=      0.553745615442
 orbitals (Q,E):
 ---------------
 A :18...28          ( 2.00    -0.9000)  ( 2.00    -0.4783)  ( 2.00    -0.4323)  ( 2.00    -0.4323)
                     ( 2.00    -0.3318)  ( 2.00    -0.2003)  ( 2.00    -0.2003)  ( 2.00    -0.1973)
                     ( 2.00     0.0747)  ( 2.00     0.0747)  ( 0.00     0.1204)

 CYCLE    5
  SDIIS (wt  0.000):  0.0378  0.7328 -0.0014  0.2307
 A-DIIS (wt  1.000):  0.0000  0.6959  0.0535  0.2506
  DIIS coefficients:  0.0000  0.6959  0.0535  0.2506
 SCF Error: norm([F,P])=      2.125841411887, max([F,P])=      0.637427806189
 orbitals (Q,E):
 ---------------
 A :18...28          ( 2.00    -0.7985)  ( 2.00    -0.4631)  ( 2.00    -0.2194)  ( 2.00    -0.1484)
                     ( 2.00    -0.1484)  ( 2.00    -0.1146)  ( 2.00    -0.1146)  ( 2.00    -0.1116)
                     ( 2.00    -0.0386)  ( 2.00    -0.0386)  ( 0.00     0.0311)

 CYCLE    6
  SDIIS (wt  0.000): -0.0394  0.2187  0.2462 -0.0755  0.6500
 A-DIIS (wt  1.000):  0.0000  0.2328  0.2317  0.0000  0.5356
  DIIS coefficients:  0.0000  0.2328  0.2317  0.0000  0.5356
 SCF Error: norm([F,P])=      0.635395634738, max([F,P])=      0.230512514639
 orbitals (Q,E):
 ---------------
 A :18...28          ( 2.00    -0.7437)  ( 2.00    -0.5139)  ( 2.00    -0.2088)  ( 2.00    -0.1366)
                     ( 2.00    -0.1366)  ( 2.00    -0.0807)  ( 2.00    -0.0807)  ( 2.00    -0.0754)
                     ( 2.00    -0.0564)  ( 2.00    -0.0564)  ( 0.00     0.0118)

 CYCLE    7
  SDIIS (wt  0.019):  0.0130 -0.2258  0.2453  0.0096  0.1100  0.8480
 A-DIIS (wt  0.981):  0.0000  0.0000  0.0647  0.0000  0.0724  0.8630
  DIIS coefficients:  0.0003 -0.0044  0.0682  0.0002  0.0731  0.8627
 SCF Error: norm([F,P])=      0.223216670339, max([F,P])=      0.098072742032
 orbitals (Q,E):
 ---------------
 A :18...28          ( 2.00    -0.7437)  ( 2.00    -0.5019)  ( 2.00    -0.2621)  ( 2.00    -0.2047)
                     ( 2.00    -0.2047)  ( 2.00    -0.0766)  ( 2.00    -0.0766)  ( 2.00    -0.0717)
                     ( 2.00    -0.0588)  ( 2.00    -0.0588)  ( 0.00    -0.0116)

 CYCLE    8
  SDIIS (wt  0.000): -0.0085  0.0080  0.0486 -0.0067  0.0600  0.6634  0.2354
 A-DIIS (wt  1.000):  0.0000  0.0000  0.0000  0.0000  0.0000  0.7804  0.2196
  DIIS coefficients:  0.0000  0.0000  0.0000  0.0000  0.0000  0.7804  0.2196
 SCF Error: norm([F,P])=      0.587881711716, max([F,P])=      0.241848939236
 orbitals (Q,E):
 ---------------
 A :18...28          ( 2.00    -0.7366)  ( 2.00    -0.5107)  ( 2.00    -0.2338)  ( 2.00    -0.1671)
                     ( 2.00    -0.1671)  ( 2.00    -0.0822)  ( 2.00    -0.0822)  ( 2.00    -0.0702)
                     ( 2.00    -0.0520)  ( 2.00    -0.0520)  ( 0.00    -0.0013)

 CYCLE    9
  SDIIS (wt  0.000):  0.0069  0.0269 -0.0796  0.0086  0.0369  0.4654  0.0395  0.4955
 A-DIIS (wt  1.000):  0.0000  0.0000  0.0000  0.0000  0.0166  0.5251  0.0000  0.4583
  DIIS coefficients:  0.0000  0.0000  0.0000  0.0000  0.0166  0.5251  0.0000  0.4583
 SCF Error: norm([F,P])=      0.250600771660, max([F,P])=      0.108615073302
 orbitals (Q,E):
 ---------------
 A :18...28          ( 2.00    -0.7681)  ( 2.00    -0.4989)  ( 2.00    -0.2292)  ( 2.00    -0.1596)
                     ( 2.00    -0.1596)  ( 2.00    -0.0889)  ( 2.00    -0.0860)  ( 2.00    -0.0860)
                     ( 2.00    -0.0681)  ( 2.00    -0.0681)  ( 0.00    -0.0000)

 CYCLE   10
  SDIIS (wt  0.000):  0.0025  0.0065 -0.0504 -0.0026 -0.0197  0.3268 -0.0972  0.6315  0.2026
 A-DIIS (wt  1.000): -0.0000  0.0000  0.0000  0.0000  0.0000  0.4584  0.0000  0.4269  0.1147
  DIIS coefficients: -0.0000  0.0000  0.0000  0.0000  0.0000  0.4584  0.0000  0.4269  0.1147
 SCF Error: norm([F,P])=      0.428403174544, max([F,P])=      0.161361631078
 orbitals (Q,E):
 ---------------
 A :18...28          ( 2.00    -0.7497)  ( 2.00    -0.5073)  ( 2.00    -0.2235)  ( 2.00    -0.1531)
                     ( 2.00    -0.1531)  ( 2.00    -0.0800)  ( 2.00    -0.0800)  ( 2.00    -0.0777)
                     ( 2.00    -0.0623)  ( 2.00    -0.0623)  ( 0.00     0.0024)

 CYCLE   11
  SDIIS (wt  0.429):  0.0009  0.0138 -0.0196  0.0008 -0.0004  0.1655 -0.0400  0.3359 -0.0767  0.6198
 A-DIIS (wt  0.571):  0.0000  0.0000  0.0000  0.0000  0.0000  0.2499  0.0000  0.2873  0.0000  0.4628
  DIIS coefficients:  0.0004  0.0059 -0.0084  0.0003 -0.0002  0.2137 -0.0172  0.3082 -0.0329  0.5301
 SCF Error: norm([F,P])=      0.125574276533, max([F,P])=      0.057535839870
 orbitals (Q,E):
 ---------------
 A :18...28          ( 2.00    -0.7393)  ( 2.00    -0.5128)  ( 2.00    -0.2210)  ( 2.00    -0.1503)
                     ( 2.00    -0.1503)  ( 2.00    -0.0820)  ( 2.00    -0.0820)  ( 2.00    -0.0726)
                     ( 2.00    -0.0538)  ( 2.00    -0.0538)  ( 0.00     0.0044)

 CYCLE   12
  SDIIS (wt  0.614): -0.0014 -0.0057 -0.0005 -0.0062  0.0595 -0.0009  0.0777  0.0025  0.3916  0.4834
 A-DIIS (wt  0.386):  0.0000  0.0000  0.0000  0.0000  0.0000  0.0000  0.0000  0.0000  0.3793  0.6207
  DIIS coefficients: -0.0008 -0.0035 -0.0003 -0.0038  0.0365 -0.0006  0.0477  0.0016  0.3868  0.5364
 SCF Error: norm([F,P])=      0.081010200376, max([F,P])=      0.039210617272
 orbitals (Q,E):
 ---------------
 A :18...28          ( 2.00    -0.7436)  ( 2.00    -0.5106)  ( 2.00    -0.2223)  ( 2.00    -0.1518)
                     ( 2.00    -0.1518)  ( 2.00    -0.0811)  ( 2.00    -0.0811)  ( 2.00    -0.0747)
                     ( 2.00    -0.0575)  ( 2.00    -0.0575)  ( 0.00     0.0033)

 CYCLE   13
  SDIIS (wt  0.981): -0.0010  0.0000 -0.0006  0.0053  0.0002  0.0073 -0.0105  0.1188  0.1775  0.7030
 A-DIIS (wt  0.019):  0.0000  0.0000  0.0000  0.0000  0.0000  0.0000  0.0000  0.0000  0.0235  0.9765
  DIIS coefficients: -0.0010  0.0000 -0.0006  0.0052  0.0002  0.0071 -0.0103  0.1166  0.1746  0.7081
 SCF Error: norm([F,P])=      0.006616330842, max([F,P])=      0.002850044669
 orbitals (Q,E):
 ---------------
 A :18...28          ( 2.00    -0.7433)  ( 2.00    -0.5107)  ( 2.00    -0.2221)  ( 2.00    -0.1516)
                     ( 2.00    -0.1516)  ( 2.00    -0.0811)  ( 2.00    -0.0811)  ( 2.00    -0.0745)
                     ( 2.00    -0.0572)  ( 2.00    -0.0572)  ( 0.00     0.0034)

 CYCLE   14
  SDIIS (wt  1.000):  0.0000  0.0001 -0.0008  0.0004 -0.0019 -0.0054  0.0336  0.0506  0.3249  0.5984
  DIIS coefficients:  0.0000  0.0001 -0.0008  0.0004 -0.0019 -0.0054  0.0336  0.0506  0.3249  0.5984
 SCF Error: norm([F,P])=      0.000673644324, max([F,P])=      0.000323157832
 orbitals (Q,E):
 ---------------
 A :18...28          ( 2.00    -0.7433)  ( 2.00    -0.5107)  ( 2.00    -0.2221)  ( 2.00    -0.1516)
                     ( 2.00    -0.1516)  ( 2.00    -0.0811)  ( 2.00    -0.0811)  ( 2.00    -0.0745)
                     ( 2.00    -0.0573)  ( 2.00    -0.0573)  ( 0.00     0.0034)

 CYCLE   15
  SDIIS (wt  1.000):  0.0000 -0.0001  0.0000 -0.0001 -0.0006  0.0040  0.0088  0.0590  0.1874  0.7415
  DIIS coefficients:  0.0000 -0.0001  0.0000 -0.0001 -0.0006  0.0040  0.0088  0.0590  0.1874  0.7415
 SCF Error: norm([F,P])=      0.000250109611, max([F,P])=      0.000132398355
 orbitals (Q,E):
 ---------------
 A :18...28          ( 2.00    -0.7433)  ( 2.00    -0.5107)  ( 2.00    -0.2221)  ( 2.00    -0.1516)
                     ( 2.00    -0.1516)  ( 2.00    -0.0811)  ( 2.00    -0.0811)  ( 2.00    -0.0745)
                     ( 2.00    -0.0572)  ( 2.00    -0.0572)  ( 0.00     0.0034)

 CYCLE   16
  SDIIS (wt  1.000): -0.0000 -0.0000 -0.0000  0.0000 -0.0002  0.0003  0.0031  0.0322  0.1661  0.7984
  DIIS coefficients: -0.0000 -0.0000 -0.0000  0.0000 -0.0002  0.0003  0.0031  0.0322  0.1661  0.7984
 SCF Error: norm([F,P])=      0.000009107842, max([F,P])=      0.000003896455
 orbitals (Q,E):
 ---------------
 A :18...28          ( 2.00    -0.7433)  ( 2.00    -0.5107)  ( 2.00    -0.2221)  ( 2.00    -0.1516)
                     ( 2.00    -0.1516)  ( 2.00    -0.0811)  ( 2.00    -0.0811)  ( 2.00    -0.0745)
                     ( 2.00    -0.0572)  ( 2.00    -0.0572)  ( 0.00     0.0034)

 CYCLE   17
  SDIIS (wt  1.000): -0.0000  0.0000  0.0000 -0.0001  0.0001  0.0010  0.0129  0.0712  0.3526  0.5623
  DIIS coefficients: -0.0000  0.0000  0.0000 -0.0001  0.0001  0.0010  0.0129  0.0712  0.3526  0.5623
 SCF Error: norm([F,P])=      0.000002979044, max([F,P])=      0.000001618005
 orbitals (Q,E):
 ---------------
 A :18...28          ( 2.00    -0.7433)  ( 2.00    -0.5107)  ( 2.00    -0.2221)  ( 2.00    -0.1516)
                     ( 2.00    -0.1516)  ( 2.00    -0.0811)  ( 2.00    -0.0811)  ( 2.00    -0.0745)
                     ( 2.00    -0.0572)  ( 2.00    -0.0572)  ( 0.00     0.0034)

 CYCLE   18
  SDIIS (wt  1.000): -0.0000  0.0000 -0.0000  0.0000  0.0002  0.0029  0.0171  0.0877  0.2368  0.6554
  DIIS coefficients: -0.0000  0.0000 -0.0000  0.0000  0.0002  0.0029  0.0171  0.0877  0.2368  0.6554
 SCF Error: norm([F,P])=      0.000000666495, max([F,P])=      0.000000353156
 orbitals (Q,E):
 ---------------
 A :18...28          ( 2.00    -0.7433)  ( 2.00    -0.5107)  ( 2.00    -0.2221)  ( 2.00    -0.1516)
                     ( 2.00    -0.1516)  ( 2.00    -0.0811)  ( 2.00    -0.0811)  ( 2.00    -0.0745)
                     ( 2.00    -0.0572)  ( 2.00    -0.0572)  ( 0.00     0.0034)

 SCF CONVERGED

 CYCLE   19
1
 ***************************************************************************************************



                                                *******************
                                                *  R E S U L T S  *
                                                *******************
  
 *** Setting up for NEW gradients in Focky
 *** Using FIT density in Focky

 Orbital Energies, per Irrep and Spin:
 ======================================
                        Occup              E (au)              E (eV)       Diff (eV) with prev. cycle
                        -----      --------------------        ------       --------------------------
 A
              18        2.000     -0.74329728844727E+00       -20.226               2.35E-07
              19        2.000     -0.51072009424224E+00       -13.897              -1.30E-07
              20        2.000     -0.22210558470837E+00        -6.044               1.23E-08
              21        2.000     -0.15159695612706E+00        -4.125               2.43E-08
              22        2.000     -0.15159486018911E+00        -4.125               2.43E-08
              23        2.000     -0.81109882055367E-01        -2.207              -5.88E-08
              24        2.000     -0.81107181386328E-01        -2.207              -5.88E-08
              25        2.000     -0.74484472923489E-01        -2.027               1.19E-07
              26        2.000     -0.57247945006994E-01        -1.558               1.87E-07
              27        2.000     -0.57247425133468E-01        -1.558               1.87E-07
              28        0.000      0.33785876079613E-02         0.092
              29        0.000      0.21482485524370E+00         5.846
              30        0.000      0.25188544085447E+00         6.854
              31        0.000      0.30028864114324E+00         8.171
              32        0.000      0.30029474529280E+00         8.171
              33        0.000      0.32047755480177E+00         8.721
              34        0.000      0.44825185738506E+00        12.198
              35        0.000      0.44825895785459E+00        12.198
              36        0.000      0.44834689825783E+00        12.200
              37        0.000      0.44834907739201E+00        12.200
  
 HOMO :       27 A                -0.57247425133468E-01
 LUMO :       28 A                 0.33785876079613E-02
  


 All Electron Calculation, thus no Orbital Energies of the Core Orbitals are calculated


 Fit test: (difference of exact and fit density, squared integrated, result summed over spins)
         Sum-of-Fragments:                             0.00079386546184
         Orthogonalized Fragments:                     0.00079499568932
         SCF:                                          0.00079705802257



 ==========================
 Electron Density at Nuclei
 ==========================
  
 The electron density is calculated at points on a small sphere around the center of a nucleus.
 The printed electron density is the average electron density on these points.
 The radius of the sphere is the printed approximate finite nuclear radius.

         Atom        Nuclear Radius (Angstrom)             Electron Density (a.u.)
         ----        -------------------------             -----------------------
     1)   F                 0.0000361580                              448.32732
     2)   Br                0.0000536685                            29313.76209
     3)   F                 0.0000361580                              447.58812



 =======================================
 M U L L I K E N   P O P U L A T I O N S
 =======================================
  
 The survey below gives for each atom:
 a) the total charge (Z minus electrons)
 b) the net spin polarization (nr of electrons spin-A minus spin-B)
 c) for each spin the atomic electron valence density (integrated) per L-value.

 Atom              Charge    Spin density          S         P         D         F
 ----              ------    ------------       ------    ------    ------    ------
 1 F              -0.2153                       3.9667    5.2230    0.0240    0.0016
 2 Br             -0.2856                       7.9885   17.2213   10.0592    0.0165
 3 F              -0.4991                       3.9953    5.4972    0.0059    0.0006

 Populations of individual BAS functions
 ----------------------------------------
 1 F            0.5755  1.4002  1.1301  0.8779 -0.0171  0.3779  0.2954  0.4199  0.9629  0.8217
                1.0346  0.4563  0.3377  0.5166 -0.0006  0.0097  0.0011  0.0175  0.0033 -0.0071
               -0.0010 -0.0015  0.0004  0.0038  0.0002 -0.0021  0.0055  0.0040 -0.0034 -0.0042
 2 Br           0.3611  1.5681  2.0732  0.7131  0.7127  0.7133  1.2649  1.2657  1.2645  1.4372
                0.5960  1.1370  1.1286  1.1413  0.8914  0.8985  0.8878  0.2677  0.4015  0.4017
                0.2676  0.4015  0.2678  0.7771  1.1649  1.1658  0.7757  1.1652  0.7778  0.2881
                0.4341  0.4325  0.2927  0.4334  0.2859  0.2708  1.2291  0.4529  0.5844  0.4714
                0.6414  0.9364  0.7466  1.0322  0.2768  0.1957  0.3177  0.0054  0.0171  0.0045
                0.0199  0.0132 -0.0021 -0.0027  0.0012  0.0006  0.0111  0.0024 -0.0037  0.0122
                0.0083 -0.0068 -0.0062
 3 F            0.5757  1.4010  1.0962  0.9129  0.0096  0.3874  0.3348  0.4146  0.9123  0.8209
                0.9595  0.5716  0.4748  0.6214 -0.0003  0.0023  0.0003  0.0057  0.0009 -0.0030
               -0.0004 -0.0009  0.0002  0.0018  0.0001 -0.0011  0.0028  0.0021 -0.0017 -0.0022

 Gross Charges per Atom (Z minus electrons)
 ==========================================
            -0.2153   -0.2856   -0.4991
 Net Total: -1.00000000


 Atom-Atom Population Matrix (off-diagonal elements not doubled)
 ===============================================================

     1 :     9.2199
     2 :    -0.0024   35.2666
     3 :    -0.0022    0.0214    9.4800


 Frag-Frag Population Matrix (off-diagonal elements not doubled)
 ===============================================================

     1 :    44.4818
     2 :     0.0191    9.4800



 =================================================
 H I R S H F E L D   C H A R G E   A N A L Y S I S
 =================================================
  
 For each fragment: the (numerical) integral of rho(scf) * rho(fragment)/rho(sum-of-fragments)
 (nuclear charges are included, electrons are counted negative)

 The fragments and their ordering are defined in the early G E O M E T R Y output section.
 If you use single-atom fragments, this usually implies that all atoms of the same
 chemical type are grouped together. This may not be the order in which you listed them
 in the input file!

    1  FBr                      -0.4396
    2  F                        -0.5604

 Sum of these charges (accuracy NumInt/Tails) =          -1.00000075



 =============================
 V O R O N O I   C H A R G E S
 =============================
  
 For each atom: the (numerical) integral of the total electronic charge density in its Voronoi cell,
 i.e. the region of space that is closer to that atom than to any other atom.
 (cf. Wigner-Seitz cells in crystals)

 Within the Voronoi cell the subintegrals over the atomic sphere and the remaining part are evaluated
 separately to give the numbers of electrons (negative charge) in these regions.
 The net total charge in the cell (including the nuclear charge) is also given.

 Values are provided for
    a) the Initial (sum-of-fragments) density
    b) the Orthogonalized-Fragments density
    c) the SCF density
    d) the Voronoi Deformation Density (VDD): the difference SCF-Initial for the complete atomic cell
 ---------------------------------------------------------------------------------------------------
 Total NetCharge:              -1.000                     -1.000                     -1.000    0.000
 (accuracy NumInt/Tails)

 Remark: the 'NetTotal' Voronoi charges often do not match the Mulliken and/or Hirshfeld charges very
 well. This is caused by the fact that chemically different atoms are not treated in accordance with
 their relative sizes. (Voronoi cells are defined by boundary planes halfway between the atoms.)
 However, the CHANGES in charge, comparing 'Initial' to 'SCF' for instance, do give a fair indication
 of the flow of charge caused by the relaxation from sum-of-fragments to self-consistency.

 Warning: the absolute accuracy of the VDD charges obtained using the Fuzzy Cells (Becke) integration
 scheme is much poorer than the one obtained with an 'equivalent' Voronoi integration grid. 



 =================================================================
 M U L T I P O L E   D E R I V E D   C H A R G E   A N A L Y S I S
 =================================================================

 This charge analysis uses the atomic multipoles (obtained from the fitted density) up to some level X,
 and reconstructs these multipoles exactly (up to level X) by distributing charges over all atoms.
 This is achieved by using Lagrange multipliers and a weight function to keep the multipoles local.

 Dummy atoms can be included (by setting INCDUM in MDC-block to 1) to obtain a fractional charge.
 This is generally useful and necessary only for small symmetrical molecules, when there are not
 enough degrees of freedom to reconstruct the multipoles.

 Since the atomic multipoles are reconstructed up to level X,
 the molecular multipoles are represented also up to level X.
 The recommended level is to reconstruct up to quadrupole : -> MDC-q charges.

 See: M. Swart, P.Th. van Duijnen, J.G. Snijders, J.Comput.Chem., (2001), p. 79-88.

 ------------------------------------------------------------- 
 Atomic electronic multipole moments from SCF equations (a.u.)
 ------------------------------------------------------------- 

   atom        charge        dip-x     dip-y     dip-z      quad-xx   quad-xy   quad-xz   quad-yy   quad-yz   quad-zz
 --------------------------------------------------------------------------------------------------------------------
    1 F     -0.595109    -0.304450  0.522582 -0.033852    -0.010289 -0.038435  0.002606  0.054005 -0.004422 -0.043716
    2 Br     0.077457    -0.570297  0.979794 -0.063309    -0.348443 -1.237718  0.079647  1.763546 -0.136919 -1.415103
    3 F     -0.482348     0.059735 -0.102205  0.006728    -0.055689 -0.204731  0.013628  0.288903 -0.023252 -0.233214

 --------------------------------------- 
 Multipole derived atomic charges (a.u.)
 --------------------------------------- 

 The MDC-m charges are just the Monopole terms in the multipole expansion, while for the MDC-d charges
 also the Dipoles are reconstructed. The usually preferred charges are the MDC-q charges.
 These reconstruct the Monopoles, Dipoles and Quadrupoles (both atomic AND molecular).

        Atom    Level:     MDC-m        MDC-d        MDC-q
 ---------------------------------------------------------
     1     F           -0.595109    -0.252042    -0.055328
     2     Br           0.077457    -0.302104    -0.400444
     3     F           -0.482348    -0.445854    -0.544228

 ------------------------------------------------ 
 Average absolute deviations in atomic multipoles
 ------------------------------------------------ 

 Stated here are the average differences between the atomic multipoles
 and the reconstructed atomic multipoles (from the distributed charges).
 If these values are not zero, this means there are not enough degrees of freedom,
 to be able to reconstruct the atomic multipoles. (This usually happens only
 for small and/or highly symmetric molecules). If this is the case, one could add
 dummy atoms as extra point charges (and setting INCDUM in MDC-block to 1).

 Level:                                 MDC-d        MDC-q
 ---------------------------------------------------------
 Charge   (a.u.)                       0.0000       0.0000
 Dipole   (Debye)                      0.0000       0.0112
 Quad.    (a.u.)                       0.5277       0.1388

 --------------------------------------- 
 Represented molecular multipole moments
 --------------------------------------- 

 Given here are the Molecular multipole moments from the atomic charges, and from the Fit Density.
 Note that the atomic charges represent the latter, NOT the ones from the Exact density.

            Q (a.u.)             Dipole moment (Debye)                                          Quadrupole moment (a.u.)
                                 x         y         z              xx        xy        xz        yy        yz        zz
------------------------------------------------------------------------------------------------------------------------
MDC-m        -1.0000       26.4097  -19.6137    0.5263        -78.0576  120.8966   -3.2714   -6.1275    2.4713   84.1850
MDC-d        -1.0000       24.3381  -16.0548    0.2966        -70.4842   97.4782   -2.1174   -0.4344    1.8623   70.9185
MDC-q        -1.0000       24.3048  -15.9931    0.2941        -70.0439   98.8562   -2.2220   -2.0047    2.0559   72.0486
 
Fit.Dens.    -1.0000       24.3382  -16.0548    0.2965        -70.3662   98.8693   -2.2082   -1.0466    2.0184   71.4129



 =============
 Dipole Moment  ***  (Debye)  ***
 =============
  
 Vector   :        24.32942039    -16.03974315      0.29541879
 Magnitude:        29.14243176

 This molecular dipole moment is calculated with analytic integration
 ************************************************************************************
 Since the molecule is NOT NEUTRAL, the dipole moment depends on the choice of origin
 ************************************************************************************



 =========================================
 Quadrupole Moment (Buckingham convention)  ***  (a.u.)  ***
 =========================================
  
      quad-xx        quad-xy        quad-xz        quad-yy        quad-yz        quad-zz
    -70.33565854    98.02139716    -2.15440269    -1.01468826     1.93235941    71.35034680

 This molecular quadrupole moment is calculated with analytic integration
1



                                             *************************
                                             *  SFO MO coefficients  *
                                             *************************
  


                                       === A ===
 MOs expanded in CFs+SFOs
 ========================

 The SFOs have been characterized in an earlier part of output.
 To deduce the bonding / antibonding nature of SFO combinations in an MO, consider the products
 of the coefficients AND THE OVERLAP between the SFOs (may be NEGATIVE). The SFO overlap matrix
 is printed later, in the SFO Populations section.

 (The CF coefficients are not printed)

 MOs :      1        2        3        4        5        6        7        8        9       10
 occup:   2.00     2.00     2.00     2.00     2.00     2.00     2.00     2.00     2.00     2.00
 CF+SFO
     1  -1.0000  -0.0000   0.0000  -0.0000  -0.0000   0.0000  -0.0000  -0.0000   0.0000  -0.0000
     2  -0.0000   1.0000  -0.0004   0.0000   0.0000  -0.0000   0.0000  -0.0001   0.0000   0.0000
     3   0.0000   0.0004   1.0000  -0.0004   0.0000   0.0000  -0.0000   0.0000   0.0000   0.0000
     4   0.0000   0.0000  -0.0004  -1.0000  -0.0027   0.0000  -0.0000   0.0000  -0.0000  -0.0000
     5  -0.0000  -0.0000  -0.0000  -0.0027   1.0000   0.0000  -0.0000  -0.0000  -0.0000  -0.0000
     6   0.0000   0.0000   0.0000  -0.0000   0.0000   1.0000  -0.0000  -0.0001   0.0000   0.0000
     7  -0.0000   0.0001  -0.0000   0.0000   0.0000   0.0000  -0.0000   1.0000  -0.0017  -0.0000
     8  -0.0000   0.0000   0.0000   0.0000  -0.0000   0.0000  -0.0000  -0.0017  -1.0000   0.0001
     9   0.0000  -0.0000  -0.0000  -0.0000   0.0000   0.0000  -0.0000   0.0000   0.0001   1.0000
    10  -0.0000   0.0000  -0.0000  -0.0000  -0.0000   0.0000  -0.0000  -0.0000   0.0002   0.0030
    11   0.0000   0.0000  -0.0000  -0.0000  -0.0000   0.0000  -0.0000  -0.0014   0.0007  -0.0000
    12   0.0000   0.0000  -0.0000   0.0000  -0.0000   0.0000  -0.0000  -0.0000   0.0000  -0.0003
    13  -0.0000  -0.0000   0.0000  -0.0000  -0.0000  -0.0000   0.0000   0.0000  -0.0000  -0.0007
    14   0.0000   0.0000  -0.0000  -0.0000   0.0000   0.0000  -0.0000  -0.0000   0.0000   0.0000
    15  -0.0000  -0.0000   0.0000  -0.0000  -0.0000   0.0000   0.0000   0.0000  -0.0000  -0.0000
    16  -0.0000  -0.0000  -0.0000   0.0000  -0.0000   0.0001   0.0000   0.0010  -0.0001  -0.0000
    17  -0.0000   0.0000  -0.0000   0.0000   0.0000   0.0000   0.0000   0.0004  -0.0000  -0.0000
    18  -0.0000  -0.0000  -0.0000   0.0000  -0.0000  -0.0001   0.0000   0.0005  -0.0003   0.0000
    19   0.0000   0.0000   0.0000  -0.0000   0.0000  -0.0000  -0.0000  -0.0000   0.0000   0.0001
    20   0.0000   0.0000   0.0000  -0.0000  -0.0000  -0.0000  -0.0000  -0.0000   0.0000  -0.0000
    21  -0.0000  -0.0000  -0.0000  -0.0000   0.0000   0.0000   0.0000   0.0000  -0.0000   0.0001
    22  -0.0000  -0.0000  -0.0000  -0.0000  -0.0000   0.0000   0.0000   0.0000  -0.0000  -0.0000
    23   0.0000   0.0000   0.0000  -0.0000   0.0000   0.0001  -0.0000  -0.0006  -0.0002   0.0000
    24  -0.0000  -0.0000  -0.0000   0.0000  -0.0000  -0.0000   0.0000   0.0025  -0.0002  -0.0000
    25  -0.0000  -0.0000  -0.0000   0.0000  -0.0000   0.0000   0.0000   0.0009  -0.0003  -0.0000
    26  -0.0000  -0.0000  -0.0000  -0.0000   0.0000  -0.0000   0.0000   0.0000  -0.0000   0.0000
    27  -0.0000  -0.0000  -0.0000  -0.0000  -0.0000  -0.0000   0.0000   0.0000  -0.0000  -0.0000
    28  -0.0000  -0.0000  -0.0000  -0.0000   0.0000  -0.0000  -0.0000   0.0000  -0.0000   0.0000
    29  -0.0000  -0.0000  -0.0000  -0.0000  -0.0000  -0.0000   0.0000   0.0000  -0.0000  -0.0000
    30   0.0000   0.0000   0.0000   0.0000   0.0000   0.0000  -0.0000  -0.0000   0.0000   0.0000
    31   0.0000   0.0000   0.0000   0.0000  -0.0000   0.0000  -0.0000  -0.0000   0.0000  -0.0000
    32  -0.0000  -0.0000  -0.0000   0.0000   0.0000  -0.0000   0.0000   0.0007  -0.0001  -0.0000
    33   0.0000   0.0000   0.0000  -0.0000   0.0000  -0.0001  -0.0000  -0.0005   0.0000   0.0000
    34   0.0000   0.0000   0.0000  -0.0000   0.0000   0.0000  -0.0000  -0.0000   0.0000   0.0000
    35   0.0000   0.0000   0.0000  -0.0000  -0.0000   0.0000  -0.0000  -0.0000   0.0000  -0.0000
    36   0.0000   0.0000   0.0000  -0.0000   0.0000  -0.0000  -0.0001  -0.0005   0.0001   0.0000
    37  -0.0000  -0.0000  -0.0000  -0.0000  -0.0000  -0.0000   0.0000   0.0000  -0.0000  -0.0000
    38  -0.0000  -0.0000  -0.0000  -0.0000   0.0000  -0.0000   0.0000  -0.0000   0.0000   0.0000
    39   0.0000   0.0000   0.0000  -0.0000   0.0000  -0.0000  -0.0000  -0.0000   0.0000  -0.0001
    40   0.0000   0.0000   0.0000  -0.0000  -0.0000  -0.0000  -0.0000  -0.0000   0.0000   0.0001
    41  -0.0000   0.0000  -0.0000   0.0000  -0.0000   0.0000   0.0000  -0.0000  -0.0000   0.0000
    42   0.0000  -0.0000   0.0000  -0.0000  -0.0000  -0.0000  -0.0000  -0.0000  -0.0000   0.0000
    43   0.0000   0.0000   0.0000  -0.0000   0.0000  -0.0001  -0.0000  -0.0000   0.0003  -0.0000
    44   0.0000   0.0000  -0.0000  -0.0000  -0.0000   0.0000  -0.0000  -0.0000   0.0000  -0.0002
    45  -0.0000  -0.0000   0.0000   0.0000  -0.0000   0.0000   0.0000   0.0000  -0.0000  -0.0002
    46  -0.0000  -0.0000  -0.0000   0.0000  -0.0000  -0.0000   0.0000   0.0001  -0.0005   0.0000
    47   0.0000   0.0000   0.0000   0.0000   0.0000   0.0000  -0.0000  -0.0000   0.0000  -0.0000
    48  -0.0000  -0.0000  -0.0000   0.0000  -0.0000  -0.0000   0.0000   0.0000  -0.0000  -0.0000
    49  -0.0000   0.0000   0.0000  -0.0000   0.0000   0.0001   0.0000   0.0001   0.0001  -0.0000
    50   0.0000   0.0000   0.0000   0.0000  -0.0000   0.0000  -0.0000   0.0000   0.0000   0.0000
    51   0.0000   0.0000   0.0000   0.0000   0.0000   0.0000  -0.0000   0.0000   0.0000  -0.0000
    52  -0.0000   0.0000  -0.0000  -0.0000  -0.0000  -0.0001   0.0000   0.0002   0.0001  -0.0000
    53   0.0000  -0.0000   0.0000  -0.0000  -0.0000  -0.0000   0.0000  -0.0006   0.0001   0.0000
    54  -0.0000   0.0000  -0.0000   0.0000  -0.0000   0.0000  -0.0000   0.0000  -0.0000  -0.0000
    55  -0.0000   0.0000  -0.0000   0.0000   0.0000   0.0000  -0.0000   0.0000  -0.0000   0.0000
    56  -0.0000  -0.0000  -0.0000  -0.0000   0.0000  -0.0000  -0.0000   0.0000   0.0000   0.0000
    57  -0.0000  -0.0000   0.0000  -0.0000  -0.0000  -0.0000  -0.0000   0.0000  -0.0000  -0.0000
    58   0.0000   0.0000  -0.0000  -0.0000  -0.0000   0.0001   0.0000   0.0000  -0.0000   0.0000
    59   0.0000   0.0000  -0.0000  -0.0000  -0.0000  -0.0000   0.0000   0.0000  -0.0000   0.0000
    60   0.0000   0.0000  -0.0000  -0.0000   0.0000  -0.0000   0.0000   0.0000   0.0000   0.0000
    61   0.0000   0.0000  -0.0000  -0.0000   0.0000  -0.0000  -0.0000  -0.0000   0.0000   0.0000
    62   0.0000   0.0000  -0.0000  -0.0000  -0.0000   0.0000   0.0000  -0.0000   0.0000  -0.0000
    63   0.0000   0.0000   0.0000   0.0000  -0.0000   0.0000  -0.0000  -0.0000   0.0000  -0.0000
    64   0.0000   0.0000   0.0000   0.0000   0.0000   0.0000  -0.0000   0.0000   0.0000  -0.0000
    65  -0.0000  -0.0000   0.0000   0.0000   0.0000   0.0000   0.0000   0.0001  -0.0000  -0.0000
    66   0.0000   0.0000   0.0000   0.0000   0.0000   0.0000  -0.0000  -0.0000   0.0000   0.0000
    67  -0.0000  -0.0000  -0.0000  -0.0000   0.0000   0.0000   0.0000   0.0000  -0.0000   0.0000
    68   0.0000  -0.0000  -0.0000   0.0000   0.0000  -0.0002   0.0000   0.0000  -0.0000  -0.0000
    69   0.0000   0.0000  -0.0000  -0.0000  -0.0000   0.0000   0.0000  -0.0000   0.0000   0.0000
    70  -0.0000   0.0000  -0.0000  -0.0000   0.0000  -0.0000  -0.0000  -0.0000   0.0000   0.0002
    71   0.0000  -0.0000   0.0000  -0.0000   0.0000   0.0000   0.0000  -0.0000  -0.0000  -0.0000
    72   0.0000  -0.0001   0.0000  -0.0000  -0.0000   0.0000  -0.0000   0.0001   0.0000  -0.0000
    73   0.0000  -0.0000   0.0000   0.0000   0.0000   0.0000   0.0000  -0.0000   0.0000  -0.0000
    74   0.0000  -0.0000   0.0000   0.0000  -0.0000   0.0000   0.0000  -0.0000   0.0000   0.0000
    75   0.0000  -0.0000   0.0000  -0.0000  -0.0000   0.0000  -0.0000  -0.0000   0.0000   0.0000
    76  -0.0000   0.0000  -0.0000   0.0000  -0.0000   0.0000   0.0000   0.0000  -0.0000   0.0000
    77  -0.0000  -0.0000   0.0000   0.0000   0.0000   0.0000   0.0000  -0.0001   0.0000  -0.0000
    78   0.0000   0.0000   0.0000  -0.0000  -0.0000   0.0002  -0.0000  -0.0000   0.0000  -0.0000
    79  -0.0000   0.0000  -0.0000  -0.0001   0.0000   0.0000   0.0000  -0.0000  -0.0000  -0.0001
    80   0.0000  -0.0000   0.0000   0.0000   0.0001  -0.0000  -0.0000  -0.0000  -0.0000  -0.0001
    81  -0.0000   0.0000   0.0001  -0.0000   0.0000  -0.0000   0.0000   0.0000   0.0001  -0.0000
    82   0.0001  -0.0000  -0.0000   0.0000  -0.0000  -0.0000   0.0000   0.0000  -0.0000   0.0000
    83  -0.0000  -0.0000  -0.0000   0.0000  -0.0000  -0.0000  -1.0000   0.0001  -0.0000  -0.0000
    84   0.0000   0.0000   0.0000  -0.0000   0.0000  -0.0000  -0.0002  -0.0012   0.0003   0.0000
    85  -0.0000  -0.0000  -0.0000  -0.0000   0.0000   0.0000   0.0000   0.0001  -0.0001   0.0000
    86   0.0000   0.0000   0.0000   0.0000   0.0000  -0.0000  -0.0000  -0.0000   0.0000   0.0000
    87  -0.0000  -0.0000  -0.0000   0.0000  -0.0000   0.0000   0.0000   0.0003  -0.0002  -0.0000
    88  -0.0000  -0.0000  -0.0000   0.0000  -0.0000   0.0000   0.0000   0.0032  -0.0003  -0.0000
    89  -0.0000  -0.0000  -0.0000  -0.0000  -0.0000   0.0000   0.0001   0.0007  -0.0002  -0.0000
    90  -0.0000  -0.0000  -0.0000   0.0000  -0.0000   0.0000   0.0000   0.0000  -0.0000  -0.0000
    91  -0.0000  -0.0000  -0.0000   0.0000   0.0000   0.0000   0.0000   0.0001  -0.0000   0.0000
    92  -0.0000   0.0000   0.0000   0.0000  -0.0000  -0.0000  -0.0000   0.0001   0.0000   0.0000
    93   0.0000  -0.0000  -0.0000   0.0000   0.0000   0.0000   0.0000  -0.0000  -0.0000  -0.0000
    94   0.0000  -0.0000  -0.0000   0.0000   0.0000   0.0000   0.0000  -0.0000  -0.0000  -0.0000
    95  -0.0000   0.0000   0.0000  -0.0000   0.0000  -0.0000  -0.0000   0.0001   0.0000  -0.0000
    96  -0.0000   0.0000   0.0000   0.0000   0.0000  -0.0000  -0.0000   0.0000   0.0000  -0.0000
    97  -0.0000   0.0000   0.0000  -0.0000   0.0000  -0.0000   0.0001   0.0000   0.0001   0.0000
    98  -0.0000  -0.0000   0.0000   0.0000   0.0000  -0.0000  -0.0000   0.0000   0.0000   0.0000
    99   0.0000   0.0000  -0.0000   0.0000   0.0000   0.0000   0.0000  -0.0000  -0.0000   0.0000
   100   0.0000   0.0000  -0.0000   0.0000  -0.0000   0.0000   0.0000  -0.0000  -0.0000  -0.0000
   101   0.0000   0.0000  -0.0000   0.0000   0.0000   0.0000   0.0000  -0.0000  -0.0000   0.0000
   102  -0.0000  -0.0000   0.0000  -0.0000  -0.0000  -0.0000  -0.0000   0.0000   0.0000  -0.0000
   103  -0.0000  -0.0000   0.0000  -0.0000  -0.0000  -0.0000  -0.0000   0.0000   0.0000  -0.0000
   104  -0.0000  -0.0000   0.0000   0.0000  -0.0000  -0.0000  -0.0000   0.0000   0.0000  -0.0000
   105   0.0000   0.0000   0.0000   0.0000  -0.0000  -0.0000   0.0001  -0.0002  -0.0000  -0.0000
   106  -0.0000  -0.0000  -0.0000   0.0000  -0.0000   0.0000  -0.0001   0.0002   0.0000  -0.0000
   107   0.0000   0.0000   0.0000  -0.0000  -0.0000  -0.0000   0.0000  -0.0000  -0.0000  -0.0000
   108   0.0000  -0.0000  -0.0000   0.0000   0.0000   0.0000   0.0002  -0.0000  -0.0000  -0.0000

 MOs :     11       12       13       14       15       16       17       18       19       20
 occup:   2.00     2.00     2.00     2.00     2.00     2.00     2.00     2.00     2.00     2.00
 CF+SFO
     1   0.0000  -0.0000   0.0000   0.0000  -0.0000   0.0000   0.0000   0.0000  -0.0000   0.0000
     2   0.0000   0.0000  -0.0000  -0.0000  -0.0000  -0.0000  -0.0000  -0.0000  -0.0000  -0.0000
     3  -0.0000  -0.0000   0.0000   0.0000   0.0000   0.0000   0.0000   0.0000   0.0000   0.0000
     4   0.0000   0.0000   0.0000   0.0000  -0.0000   0.0000   0.0000   0.0000   0.0000   0.0000
     5  -0.0000   0.0000   0.0000  -0.0000  -0.0000  -0.0000   0.0000   0.0000  -0.0000   0.0000
     6  -0.0000  -0.0000  -0.0000  -0.0000   0.0000  -0.0000  -0.0004  -0.0019  -0.0000   0.0018
     7  -0.0000  -0.0014   0.0000   0.0000   0.0000   0.0000   0.0000   0.0001  -0.0003   0.0002
     8  -0.0002  -0.0007   0.0000   0.0000   0.0000   0.0000  -0.0000   0.0000   0.0000  -0.0002
     9   0.0030   0.0000   0.0003  -0.0007  -0.0000  -0.0000   0.0000   0.0000   0.0000  -0.0000
    10  -1.0000   0.0000   0.0007   0.0003  -0.0000   0.0000   0.0000   0.0000   0.0000   0.0000
    11  -0.0000  -1.0000   0.0009   0.0002   0.0001  -0.0000  -0.0001   0.0001  -0.0015   0.0002
    12   0.0007   0.0009   1.0000   0.0073  -0.0003  -0.0001  -0.0000   0.0000  -0.0000   0.0000
    13  -0.0003  -0.0002   0.0073  -1.0000   0.0002  -0.0003   0.0000  -0.0000   0.0000   0.0000
    14  -0.0000   0.0001   0.0003   0.0002   1.0000  -0.0057   0.0000   0.0000  -0.0000   0.0000
    15  -0.0000   0.0000  -0.0001   0.0003  -0.0057  -1.0000   0.0000  -0.0000   0.0000  -0.0000
    16   0.0000   0.0002  -0.0000  -0.0000  -0.0000   0.0000  -0.9677   0.2455  -0.0103  -0.0391
    17   0.0000  -0.0015   0.0000   0.0000   0.0000   0.0000  -0.0149  -0.0230   0.9987  -0.0181
    18   0.0000   0.0003  -0.0000   0.0000  -0.0000   0.0000  -0.0181  -0.0328   0.0032   0.9297
    19  -0.0000  -0.0000  -0.0000   0.0000   0.0000   0.0000  -0.0000   0.0000   0.0000  -0.0001
    20  -0.0001  -0.0000  -0.0000  -0.0000   0.0000   0.0000  -0.0000   0.0001   0.0000  -0.0006
    21  -0.0000   0.0000   0.0000  -0.0000   0.0000   0.0000   0.0000  -0.0000  -0.0000   0.0000
    22  -0.0001   0.0000   0.0000   0.0000  -0.0000   0.0000   0.0000  -0.0000  -0.0000   0.0001
    23  -0.0000  -0.0002   0.0000   0.0000   0.0000  -0.0000   0.0066   0.0150  -0.0068  -0.0522
    24   0.0000  -0.0001   0.0000   0.0000  -0.0000   0.0000   0.0015   0.0030  -0.0096   0.0058
    25   0.0000   0.0002  -0.0000   0.0000  -0.0000   0.0000   0.0010   0.0031   0.0042  -0.0210
    26  -0.0000   0.0000  -0.0000   0.0000   0.0000   0.0000   0.0000   0.0000   0.0000  -0.0000
    27  -0.0000  -0.0000  -0.0000  -0.0000  -0.0000   0.0000   0.0000   0.0000   0.0000   0.0000
    28  -0.0000   0.0000   0.0002  -0.0002   0.0000  -0.0000   0.0000   0.0000   0.0000  -0.0000
    29  -0.0000   0.0000   0.0002   0.0002  -0.0000  -0.0000   0.0000   0.0000   0.0000  -0.0000
    30  -0.0000  -0.0000  -0.0000   0.0000  -0.0001  -0.0005  -0.0000   0.0000  -0.0000   0.0000
    31   0.0000   0.0000   0.0000   0.0000   0.0005  -0.0001  -0.0000   0.0000  -0.0000   0.0000
    32   0.0000   0.0002  -0.0000  -0.0000  -0.0000   0.0000   0.0022  -0.0018   0.0164  -0.0026
    33  -0.0000  -0.0004   0.0000   0.0000   0.0000  -0.0000  -0.0024  -0.0001  -0.0045   0.0007
    34  -0.0000  -0.0000   0.0000  -0.0000   0.0000   0.0000  -0.0000   0.0000   0.0000   0.0000
    35  -0.0000  -0.0000   0.0000   0.0000   0.0000  -0.0000  -0.0000   0.0000   0.0000   0.0000
    36  -0.0000   0.0001  -0.0000  -0.0000   0.0000  -0.0000  -0.0019   0.0019   0.0047   0.0029
    37  -0.0000  -0.0000   0.0000  -0.0000  -0.0001   0.0001  -0.0000   0.0000   0.0000  -0.0000
    38  -0.0000  -0.0000  -0.0000  -0.0000  -0.0001  -0.0001   0.0000  -0.0000  -0.0000  -0.0000
    39   0.0001  -0.0000  -0.0001   0.0000  -0.0000  -0.0000   0.0000   0.0000   0.0000   0.0000
    40   0.0001   0.0000  -0.0000  -0.0001  -0.0000   0.0000   0.0000   0.0000   0.0000   0.0000
    41   0.0000  -0.0000   0.0000  -0.0000   0.0000  -0.0000   0.0000   0.0000   0.0000  -0.0000
    42   0.0000   0.0000  -0.0000  -0.0000  -0.0000  -0.0000   0.0000  -0.0000  -0.0000  -0.0000
    43  -0.0000   0.0001  -0.0000  -0.0000  -0.0000   0.0000  -0.0002  -0.0003   0.0006   0.0047
    44  -0.0002  -0.0000   0.0000   0.0001  -0.0000  -0.0000   0.0000   0.0000  -0.0000   0.0000
    45   0.0002   0.0000  -0.0001   0.0000  -0.0000  -0.0000  -0.0000  -0.0000  -0.0000  -0.0000
    46   0.0000   0.0001  -0.0000  -0.0000  -0.0000   0.0000  -0.0006  -0.0014  -0.0003  -0.0038
    47  -0.0000  -0.0000   0.0000   0.0000   0.0000   0.0000   0.0000   0.0000   0.0000   0.0000
    48  -0.0000   0.0000   0.0000   0.0000  -0.0000   0.0000  -0.0000  -0.0000  -0.0000  -0.0000
    49  -0.0000  -0.0000  -0.0000  -0.0000  -0.0000   0.0000  -0.0001  -0.0036   0.0001   0.0062
    50  -0.0000  -0.0000   0.0001  -0.0000  -0.0000  -0.0000   0.0000   0.0000   0.0000   0.0000
    51  -0.0000  -0.0000   0.0000   0.0001  -0.0000   0.0000   0.0000   0.0000  -0.0000  -0.0000
    52   0.0000  -0.0006   0.0000   0.0000   0.0000  -0.0000  -0.0004  -0.0006  -0.0021   0.0006
    53  -0.0000   0.0004  -0.0000  -0.0000  -0.0000  -0.0000   0.0000  -0.0007   0.0025  -0.0002
    54   0.0000  -0.0000   0.0000   0.0000  -0.0000   0.0000  -0.0000   0.0000  -0.0000   0.0000
    55  -0.0000  -0.0000  -0.0000   0.0000   0.0000   0.0000  -0.0000   0.0000  -0.0000   0.0000
[...]
   97    4.50628304202866E-16  1.29920983944298E-15  2.13459926004609E-16  7.08600658618636E-16
   98   -1.16853446678004E-15  1.74046477117242E-16  3.48446061094370E-17  1.99591455559214E-16
   99    6.48486836231116E-17  2.49147205819472E-16 -3.91395045355911E-16  2.61001847160964E-16
  100   -4.95727064701984E-16 -7.73945491790601E-16 -1.35365066528371E-16  1.01888587373595E-15
  101    2.66455389382522E-18 -3.01427262192283E-18 -1.20742683158617E-15  1.58353974159494E-16
  102    4.56337623904715E-16 -2.58813047850809E-16 -2.32823916433287E-16  3.50323072870595E-16
  103   -5.57815453238451E-16  5.80435309276199E-16 -3.23412399384963E-16 -9.09658328209547E-17
  104   -1.98668824921418E-16 -5.06611835120896E-16  3.10349880788881E-16 -2.14892893993126E-16
  105    1.28410194803752E-18  6.24106581031177E-16  7.70019652898755E-17  2.33819209924813E-16
  106   -9.51997270078053E-17 -2.75881172019567E-16 -6.72700861215157E-17 -2.39204645403456E-16
  107    1.77591839397093E-17 -3.29361690386368E-16  4.04250944161145E-16 -5.17319284486256E-17
  108   -2.56739074444567E-16 -1.98680048107969E-17 -7.43762690325056E-17  1.18394877235417E-16

 column          93                    94                    95                    96
 row
   93    9.99999999999999E-01
   94    2.85145171363688E-16  1.00000000000000E+00
   95   -5.28588793151678E-17 -1.98124394494570E-16  1.00000000000000E+00
   96    8.78527749815583E-17  1.64902491753835E-15 -1.97458626598028E-16  1.00000000000000E+00
   97    1.72684183440261E-16  3.94666531443669E-16 -6.43667112882121E-16 -1.97643279780529E-16
   98    1.64728320604056E-16 -1.53584013996150E-17 -6.44126204739533E-16 -3.87812340834487E-16
   99    2.45210645674271E-15  3.19611206685261E-17  4.24430210419001E-17  3.55120177792921E-16
  100   -5.06750313427243E-16 -2.87316527089084E-16 -4.96250173721362E-16 -2.52420013741848E-16
  101   -6.29040865586289E-16 -5.99802241159136E-16 -5.03060490670854E-16  4.95028183111160E-16
  102    4.40879050932920E-16  3.38696341294558E-16 -1.24958429664572E-16  4.23960795347544E-16
  103    6.09267066721094E-16 -5.45748515992748E-16 -1.61203234175380E-16 -2.24462831049883E-16
  104   -1.01727857577897E-15 -1.39558736576395E-16 -1.60144495930871E-16 -1.54553125566927E-16
  105   -2.63348260773756E-16 -7.05006697823436E-16  9.00425669084475E-16  5.64255232978188E-17
  106   -1.10307618413270E-16  5.38132736884866E-17 -4.46246602766719E-16 -1.65190482955902E-16
  107    6.09650741213337E-16  1.66386824349670E-16 -3.67035257913049E-18  1.05025951088111E-16
  108    1.74014448683923E-17 -1.34441069388203E-17  3.20923843055709E-17  6.50521303491303E-18

 column          97                    98                    99                   100
 row
   97    1.00000000000000E+00
   98    2.37399618192857E-16  1.00000000000000E+00
   99   -8.16690109501283E-17  1.54273631164113E-16  1.00000000000000E+00
  100    1.77339847095285E-16  5.60474276424992E-16  4.68804706876609E-16  1.00000000000000E+00
  101    2.40639519216105E-16 -9.31259785946900E-18 -2.56606050567179E-17  5.77542375778332E-16
  102   -1.85272787102354E-16 -2.35859500536512E-17 -1.49055721266208E-16  5.39337414398052E-16
  103   -2.63104738801420E-16  3.28806119904621E-16 -3.37444214840280E-16 -2.66527239944889E-16
  104    5.11641781459488E-17  2.55489383210012E-16 -4.91031702995002E-16  4.73834474130598E-16
  105    2.06516796935965E-16  1.14658911366610E-15  4.19648497673513E-16  1.10574387469541E-16
  106   -5.53231099169674E-17 -2.88643332732553E-15 -4.93085539516412E-17 -1.03320284812692E-16
  107   -5.30546762748816E-17 -5.67689422183713E-18 -1.04402677527587E-16 -1.58441755186484E-17
  108   -4.59701721133854E-17 -1.57426155444895E-16  1.25252455976388E-16  1.01582967298314E-16

 column         101                   102                   103                   104
 row
  101    1.00000000000000E+00
  102   -2.91376572726595E-16  9.99999999999999E-01
  103   -1.55499291147512E-16 -1.07008662178493E-14  1.00000000000000E+00
  104   -3.41663312420333E-17 -7.40377854023599E-16 -1.28895908641998E-16  9.99999999999997E-01
  105   -3.19210983617684E-16 -3.23321025705778E-16  1.83126802660706E-16 -1.05804817735446E-15
  106    1.36898629605542E-16  1.80477700500723E-16 -4.12230659577493E-16 -4.30906306696352E-16
  107   -1.46657807388478E-17  2.38620038483385E-15 -3.79853543575059E-16 -4.57285869017360E-16
  108   -1.08420217248550E-17  2.42657998729412E-17 -3.91803560081949E-17 -1.20346441145891E-16

 column         105                   106                   107                   108
 row
  105    1.00000000000000E+00
  106   -2.54753417457967E-16  1.00000000000000E+00
  107   -8.02490647696859E-16 -4.71326381449637E-16  1.00000000000000E+00
  108   -1.21647483752874E-16  3.62123525610158E-17 -2.80943887945306E-17  9.99999999999996E-01


 SFO contributions (%) per orbital
 (multiplication by the orbital occupation yields the SFO Gross Populations)

 Orb.:       18     19     20     21     22     23     24     25     26     27     28     29     30     31
 occup:     2.00   2.00   2.00   2.00   2.00   2.00   2.00   2.00   2.00   2.00   0.00   0.00   0.00   0.00
 CF+SFO     ----   ----   ----   ----   ----   ----   ----   ----   ----   ----   ----   ----   ----   ----
 ------
     16:    4.95   0.01   0.08  -0.00  -0.00   0.00   0.00   0.16   0.00   0.00   0.03  -0.00  -0.01   0.00
     17:    0.09  99.73   0.02   0.00   0.00   0.00   0.00   0.07   0.00   0.00   0.00   0.03  -0.00   0.00
     18:    0.38   0.00  88.20   0.00   0.00   0.00   0.00   9.91   0.00   0.00   1.43  -0.02  -0.30  -0.00
     19:    0.00   0.00   0.00  96.62   0.26   0.53   0.02   0.00   2.42   0.09   0.00   0.00   0.00   0.03
     20:    0.00   0.00   0.00   0.26  96.62   0.02   0.53   0.00   0.09   2.42   0.00   0.00   0.00   0.00
     21:    0.00   0.00   0.00   0.02   0.00  87.43   0.07   0.00  10.16   2.10   0.00  -0.00  -0.00   0.15
     22:    0.00   0.00   0.00   0.00   0.02   0.07  87.43   0.00   2.10  10.16   0.00   0.00  -0.00   0.04
     23:    0.13   0.00   0.34   0.00   0.00   0.00   0.00  25.91   0.00   0.00  72.33   0.53   0.91   0.00
     24:   -0.07   0.02  -0.01   0.00   0.00  -0.00  -0.00  -0.03  -0.00  -0.00   0.53 107.15 -11.97  -0.00
     25:   -0.02   0.00   0.04  -0.00  -0.00   0.00   0.00   0.09   0.00   0.00   0.11   2.19   6.90   0.00
     26:   -0.00  -0.00   0.00   0.03   0.00   0.15   0.01   0.00   0.03   0.01   0.00   0.00   0.00  63.69
     27:   -0.00  -0.00  -0.00   0.00   0.03   0.01   0.15   0.00   0.01   0.03   0.00   0.00   0.00  35.88
     32:    0.03   0.02   0.00  -0.00  -0.00  -0.00  -0.00  -0.01  -0.00  -0.00   0.16  -0.05  -1.96  -0.00
     33:   -0.00  -0.00   0.00   0.00   0.00  -0.00  -0.00  -0.03   0.00   0.00   0.04  -0.15  -1.39  -0.00
     84:   94.27   0.12   0.42   0.00   0.00   0.00   0.00  -0.00   0.00   0.00   0.08  -0.36   0.53   0.00
     85:    0.00   0.01   1.07   1.30   1.50   6.62   3.93   6.25  18.42  58.16   2.22  -0.02   0.06  -0.00
     86:    0.00   0.00   0.04   1.72   1.37   4.64   7.07   0.28  65.59  18.80   0.09  -0.00   0.00  -0.00
     87:    0.00   0.08  10.15   0.08   0.24   0.51   0.78  56.88   0.73   7.78  21.05  -0.16   0.54  -0.00
     88:    0.15   0.01  -0.11   0.00  -0.00   0.00   0.00   0.06   0.00   0.00   0.99  -8.68 107.48   0.00
     89:    0.02  -0.01  -0.32  -0.00  -0.00  -0.00  -0.00   0.45   0.00   0.00   0.57  -0.83  -1.71   0.00


 Summation over all MOs, multiplied by occupation: Total SFO Gross Populations in this Irrep
 ===========================================================================================

     2.00    2.00    2.00    2.00    2.00    2.00    2.00    2.00    2.00    2.00    2.00    2.00
     2.00    2.00    2.00    2.00    2.00    1.97    2.00    2.00    2.00    2.00    0.53   -0.00
     0.00    0.00    0.00   -0.00   -0.00    0.00    0.00    0.00   -0.00    0.00    0.00   -0.00
     0.00    0.00    0.00    0.00    0.00    0.00    0.00    0.00    0.00    0.00    0.00    0.00
     0.00    0.00    0.00   -0.00   -0.00    0.00    0.00    0.00    0.00   -0.00    0.00    0.00
     0.00    0.00    0.00    0.00    0.00    0.00    0.00   -0.00    0.00    0.00   -0.00   -0.00
     0.00    0.00    0.00    0.00   -0.00   -0.00    0.00    0.00    0.00    0.00    2.00    2.00
     1.95    1.99    1.55    0.00    0.00    0.00    0.00    0.00    0.00    0.00    0.00    0.00
    -0.00    0.00    0.00    0.00    0.00    0.00    0.00    0.00    0.00    0.00    0.00   -0.00



 List of all MOs, ordered by energy, with the most significant SFO gross populations
 ===================================================================================

 Each percentage contribution in the table below corresponds to the indicated SFO.
 In general, a SFO may be a linear combination of several Fragment Orbitals on the same,
 or on symmetry-related Fragments. Only the first 'member' of such a combination is
 specified here. A full definition of all SFOs is given in an earlier part of the output.
 The numbering of the SFOs in this table does NOT include the Core Orbitals, and starts
 from one for each symmetry representation, as in the SFO definition list earlier.

       E(eV)  Occ       MO           %     SFO (first member)   E(eV)  Occ   Fragment
 -------------------------------------------------------------------------------------

     -20.226  2.00    18 A         94.27%     2 A             -15.093  2.00     2 F
                                    4.95%    16 A             -28.597  2.00     1 FBr
     -13.897  2.00    19 A         99.73%    17 A             -20.173  2.00     1 FBr
                                    0.12%     2 A             -15.093  2.00     2 F
      -6.044  2.00    20 A         88.20%    18 A             -11.739  2.00     1 FBr
                                   10.15%     5 A               2.944  2.00     2 F
                                    1.07%     3 A               2.944  2.00     2 F
      -4.125  2.00    21 A         96.62%    19 A              -9.891  2.00     1 FBr
                                    1.72%     4 A               2.944  2.00     2 F
                                    1.30%     3 A               2.944  2.00     2 F
      -4.125  2.00    22 A         96.62%    20 A              -9.891  2.00     1 FBr
                                    1.50%     3 A               2.944  2.00     2 F
                                    1.37%     4 A               2.944  2.00     2 F
      -2.207  2.00    23 A         87.43%    21 A              -7.971  2.00     1 FBr
                                    6.62%     3 A               2.944  2.00     2 F
                                    4.64%     4 A               2.944  2.00     2 F
      -2.207  2.00    24 A         87.43%    22 A              -7.971  2.00     1 FBr
                                    7.07%     4 A               2.944  2.00     2 F
                                    3.93%     3 A               2.944  2.00     2 F
      -2.027  2.00    25 A         56.88%     5 A               2.944  2.00     2 F
                                   25.91%    23 A              -6.679  0.00     1 FBr
                                    9.91%    18 A             -11.739  2.00     1 FBr
                                    6.25%     3 A               2.944  2.00     2 F
      -1.558  2.00    26 A         65.59%     4 A               2.944  2.00     2 F
                                   18.42%     3 A               2.944  2.00     2 F
                                   10.16%    21 A              -7.971  2.00     1 FBr
                                    2.42%    19 A              -9.891  2.00     1 FBr
                                    2.10%    22 A              -7.971  2.00     1 FBr
      -1.558  2.00    27 A         58.16%     3 A               2.944  2.00     2 F
                                   18.80%     4 A               2.944  2.00     2 F
                                   10.16%    22 A              -7.971  2.00     1 FBr
                                    7.78%     5 A               2.944  2.00     2 F
                                    2.42%    20 A              -9.891  2.00     1 FBr
                                    2.10%    21 A              -7.971  2.00     1 FBr
       0.092  0.00    28 A         72.33%    23 A              -6.679  0.00     1 FBr
                                   21.05%     5 A               2.944  2.00     2 F
                                    2.22%     3 A               2.944  2.00     2 F
                                    1.43%    18 A             -11.739  2.00     1 FBr



 =======================================================================
 Electrostatic potential at the Nuclei due to electrons and other nuclei
 =======================================================================
  
         Atom                  Potential
         ----                  ---------
     1)   F                  26.79857843
     2)   Br                176.12655823
     3)   F                  26.88565145
 
 
 ========================
 No memory problems found
 ========================
 
 Maximum number of active allocate calls:         620
 
 *******************************************************************************

                             A D F   E X I T
 NORMAL TERMINATION



 =================
 Timing Statistics
 =================
  
 Total Used :                     CPU=        4.71      System=        0.14     Elapsed=        5.07

 Calls  Section                     ( Mean, Percentage )
 ---------------------------------------------------------------------------------------------------
     3  ><      ................      0.00    0.02             0.00    0.00             0.00    0.01
     1  INIT    ................      0.43    9.18             0.02   13.29             0.45    8.92
     1  GEOMET  ................      0.02    0.53             0.00    2.80             0.24    4.84
     1  FRAGM   ................      0.01    0.13             0.01    6.99             0.02    0.34
     1  INPUTA  ................      0.00    0.00             0.00    0.00             0.00    0.01
     1  ATDEN   ................      0.00    0.06             0.00    0.70             0.00    0.07
     1  MAINSY  ................      0.01    0.15             0.00    0.70             0.01    0.16
     1  SYMFIT  ................      0.00    0.02             0.00    0.70             0.00    0.03
     1  CORORT  ................      0.00    0.00             0.00    0.00             0.00    0.01
     1  SYMORB  ................      0.00    0.06             0.00    0.00             0.00    0.04
     1  CLSMAT  ................      0.01    0.23             0.00    0.00             0.01    0.23
     1  ORTHON  ................      0.00    0.11             0.00    1.40             0.01    0.15
     1  GENPT   ................      0.08    1.72             0.00    3.50             0.09    1.70
     1  PTBAS   ................      0.02    0.47             0.00    2.10             0.02    0.47
    19  FOCKY   ................      0.08   32.53             0.00   13.99             0.08   30.43
    19  FOCKTR  ................      0.00    0.47             0.00    0.70             0.00    0.49
    19  SDIIS   ................      0.00    0.83             0.00    0.00             0.00    0.94
     1  COREPS  ................      0.07    1.42             0.00    0.00             0.07    1.32
     1  TOTEN   ................      0.22    4.61             0.00    2.80             0.22    4.38
     1  POPAN   ................      0.00    0.06             0.00    0.00             0.00    0.06
     1  DEBYE   ................      0.00    0.11             0.00    0.70             0.01    0.10
     1  INPUTE  ................      0.00    0.00             0.00    0.00             0.00    0.01
     1  SYMORE  ................      0.00    0.00             0.00    0.00             0.00    0.01
     1  METS    ................      0.00    0.02             0.00    0.00             0.00    0.02
     1  CETS    ................      0.02    0.36             0.00    0.00             0.02    0.32
     1  POPUL   ................      2.19   46.49             0.07   48.95             2.26   44.56
     1  EXIT PROCEDURE .........      0.02    0.40             0.00    0.70             0.02    0.39


 Currently Open Files (EXIT00)
 ====================

 Unit    Access Format  Status   Type       Ident (file)
 -------------------------------------------------------
   3      SEQ    FORM   TRANSP  NORMAL      LOGFILE
                                          ( logfile )


 Buffered I/O statistics
 =======================
 Memory available:                     67108864
 Number of records fitting in memory:     16131
 Input :   1.2% of                        57453  *4k bytes
 Output:  12.4% of                         4284  *4k bytes
 Records from serial files evicted:           0
                    others evicted:           0
 Hash table lookups:     164202 with          0 conflicts (  0.00%)

 ***************************************************************************************************
 (LOGFILE)
 <May09-2019> <17:12:03>  ADF 2017  RunTime: May09-2019 17:12:03  Nodes: 1  Procs: 12
 <May09-2019> <17:12:03>  *** (NO TITLE) ***
 <May09-2019> <17:12:03>  RunType   : SINGLE POINT
 <May09-2019> <17:12:03>  Net Charge: -1 (Nuclei minus Electrons)
 <May09-2019> <17:12:03>  Symmetry  : NOSYM
 <May09-2019> <17:12:03>  >>>> FRAGM
  Coordinates
    Atom         X           Y           Z   (Angstrom)
    1.F        -4.948744    3.143384   -0.047472
    2.Br       -3.905898    1.351021    0.067963
    3.F        -5.920738    4.804514   -0.157692
 <May09-2019> <17:12:03>  >>>> CORORT
 <May09-2019> <17:12:03>  >>>> CLSMAT
 <May09-2019> <17:12:03>  >>>> ORTHON
 <May09-2019> <17:12:03>  >>>> GENPT
 <May09-2019> <17:12:03>  Block Length= 128
 <May09-2019> <17:12:03>  >>>> PTBAS
 <May09-2019> <17:12:03>  >>>> CYCLE
 <May09-2019> <17:12:04>              |Error|         MaxErr       Wt(A-DIIS)
 <May09-2019> <17:12:04>      1      0.74046993      0.51034512
 <May09-2019> <17:12:04>      2      1.71925992      0.70274994    100.0
 <May09-2019> <17:12:04>      3      0.72437524      0.32454297    100.0
 <May09-2019> <17:12:04>      4      0.88822393      0.55374562    100.0
 <May09-2019> <17:12:04>      5      2.12584141      0.63742781    100.0
 <May09-2019> <17:12:04>      6      0.63539563      0.23051251    100.0
 <May09-2019> <17:12:04>      7      0.22321667      0.09807274     98.1
 <May09-2019> <17:12:04>      8      0.58788171      0.24184894    100.0
 <May09-2019> <17:12:04>      9      0.25060077      0.10861507    100.0
 <May09-2019> <17:12:04>     10      0.42840317      0.16136163    100.0
 <May09-2019> <17:12:04>     11      0.12557428      0.05753584     57.1
 <May09-2019> <17:12:04>     12      0.08101020      0.03921062     38.6
 <May09-2019> <17:12:05>     13      0.00661633      0.00285004      1.9
 <May09-2019> <17:12:05>     14      0.00067364      0.00032316      0.0
 <May09-2019> <17:12:05>     15      0.00025011      0.00013240      0.0
 <May09-2019> <17:12:05>     16      0.00000911      0.00000390      0.0
 <May09-2019> <17:12:05>     17      0.00000298      0.00000162      0.0
 <May09-2019> <17:12:05>     18      0.00000067      0.00000035      0.0
 <May09-2019> <17:12:05>  SCF converged
 <May09-2019> <17:12:05>     19      0.00000017      0.00000009      0.0
 <May09-2019> <17:12:05>  >>>> TOTEN
 <May09-2019> <17:12:05>  >>>> POPAN
 <May09-2019> <17:12:05>  >>>> DEBYE
 <May09-2019> <17:12:05>  >>>> AMETS
 <May09-2019> <17:12:08>   Bond Energy          -0.06835379 a.u.
 <May09-2019> <17:12:08>   Bond Energy          -1.86000117 eV
 <May09-2019> <17:12:08>   Bond Energy         -42.89       kcal/mol
 <May09-2019> <17:12:08>  >>>> POPUL
 <May09-2019> <17:12:08>  NORMAL TERMINATION
 <May09-2019> <17:12:08>  END
