
Create O   file=TZ2P-O
XC
  GGA blyp
End
End Input

 *******************************************************************************
 *                                                                             *
 *  -------------------------------------                                      *
 *   Amsterdam Density Functional  (ADF)         development version           *
 *  -------------------------------------                                      *
 *                                               r61132 2017-09-08             *
 *                                                                             *
 *                                                                             *
 *                              =================                              *
 *                              |               |                              *
 *                              |     A D F     |                              *
 *                              |               |                              *
 *                              =================                              *
 *                                                                             *
 *                                                                             *
 *   Online information and documentation:  https://www.scm.com/support/       *
 *   E-mail:  support@scm.com   info@scm.com                                   *
 *                                                                             *
 *   Scientific publications using ADF results must be properly referenced     *
 *   See the User Manuals (or the web site) for recommended citations          *
 *   The terms and conditions of the End User License Agreement apply to       *
 *   the use of ADF, https://www.scm.com/license-terms/                        *
 *                                                                             *
 **********************  x86_64_linux_intel / intelmpi  ************************
 
 Licensed to: VU/FEW (+ SARA) / ALGEMEEN / Amsterdam / THE NETHERLANDS
 SCM User ID: u7668
  
 ADF development version  RunTime: Apr25-2019 15:26:41  Nodes: 1  Procs: 1

 Temporary files are created in /local/datastore0/tcst25/187650/kid_0.7NGz0r

 Oxygen (TZ2P)



 ===========================
 A T T A C H E D   F I L E S
 ===========================
  
 CREATE - Data File:    TZ2P-O
                        Oxygen (TZ2P)



 ===============================
 M O D E L   P A R A M E T E R S
 ===============================
  
 DENSITY FUNCTIONAL POTENTIAL (scf)
    LDA:                               Exchange only                           == Not Default ==
    Gradient Corrections:              Becke88 LYP                             == Not Default ==

 SPIN  (restricted / unrestr.)
    Molecule:                          Restricted                               

 OTHER ASPECTS
    Relativistic Corrections:          ---                                      

    Nuclear Charge Density Model:      Point Charge Nuclei                      
    Core Treatment:                    Frozen Orbital(s)                        

    Hyperfine or Zeeman Interaction:   ---                                      



 =====================================
 S Y M M E T R Y ,   E L E C T R O N S
 =====================================
  
 Symmetry: ATOM

 Irreducible Representations, including subspecies
 -------------------------------------------------
 S
 P:x  P:y  P:z
 D:z2  D:x2-y2  D:xy  D:xz  D:yz
 F:z3  F:z  F:xyz  F:z2x  F:z2y  F:x  F:y


 Configuration of Valence Electrons
 ==================================

          Occupation Numbers
          -------------------------------------------------
 S        2*2
 P        4
 D        0
 F        0
          -------------------------------------------------

 Total:   8

 Net Charge: 0 (Nuclei minus Electrons)

 Preset values for MO occupations will be applied through SCF cycle no. 1000000
 Thereafter, the program will assign electrons to MOs that are spatially
 similar to the occupied MOs in a "reference" cycle ("KeepOrbitals").
 The reference cycle is always the PREVIOUS cycle: it will evolve with
 the SCF procedure.



 ================================
 (Slater-type)  F U N C T I O N S  ***  (Basis and Fit)  ***
 ================================
  

 Atom Type    1  (O)
 ==============

 Valence Basis Sets:  10
 -----------------------
   1 S    9.800000
   1 S    6.800000
   2 S    7.580000
   2 S    2.880000
   2 S    1.720000
   2 P    4.080000
   2 P    2.080000
   2 P    1.120000
   3 D    2.000000
   4 F    3.000000


 BAS: List of all Elementary Cartesian Basis Functions
 =====================================================

 The numbering in the list below (to the right of the function characteristics) is referred
 to in print-outs of MO eigenvectors and Mulliken populations in the BAS representation
 (as contrasted to the SFO representation).

 Notes:
 1. The functions are characterized by a polynomial prefactor (powers of x,y,z and r) and
    an exponential decay factor alpha.
 2. Since the basis sets are specific for an atom TYPE, the individual functions occur on
    all atoms of that type.
 3. The word 'Core' in the left margin signals that it is a Core Function (CF) : not a
    degree of freedom in the valence set, but only used to ensure orthogonalization of
    the other valence basis functions on the frozen Core Orbitals.


 (power of) X  Y  Z  R     Alpha  on Atom
            ==========     =====     ==========

 O                                    1
                                  ---------------------------------------------------------------------------
            0  0  0  0     9.800      1
            0  0  0  0     6.800      2
            0  0  0  1     7.580      3
            0  0  0  1     2.880      4
            0  0  0  1     1.720      5
            1  0  0  0     4.080      6
            0  1  0  0     4.080      7
            0  0  1  0     4.080      8
            1  0  0  0     2.080      9
            0  1  0  0     2.080     10
            0  0  1  0     2.080     11
            1  0  0  0     1.120     12
            0  1  0  0     1.120     13
            0  0  1  0     1.120     14
            2  0  0  0     2.000     15
            1  1  0  0     2.000     16
            1  0  1  0     2.000     17
            0  2  0  0     2.000     18
            0  1  1  0     2.000     19
            0  0  2  0     2.000     20
            3  0  0  0     3.000     21
            2  1  0  0     3.000     22
            2  0  1  0     3.000     23
            1  2  0  0     3.000     24
            1  1  1  0     3.000     25
            1  0  2  0     3.000     26
            0  3  0  0     3.000     27
            0  2  1  0     3.000     28
            0  1  2  0     3.000     29
            0  0  3  0     3.000     30

 Total number of charge fitting functions (nprimf)        84
 Total number of Cartesian basis functions (naos)         30
 Total number of Cartesian core functions  (ncos)          0



 BAS: List of all Elementary Cartesian Basis Functions
 =====================================================

 The numbering in the list below (to the right of the function characteristics) is referred
 to in print-outs of MO eigenvectors and Mulliken populations in the BAS representation
 (as contrasted to the SFO representation).

 Notes:
 1. The functions are characterized by a polynomial prefactor (powers of x,y,z and r) and
    an exponential decay factor alpha.
 2. Since the basis sets are specific for an atom TYPE, the individual functions occur on
    all atoms of that type.
 3. The word 'Core' in the left margin signals that it is a Core Function (CF) : not a
    degree of freedom in the valence set, but only used to ensure orthogonalization of
    the other valence basis functions on the frozen Core Orbitals.


 (power of) X  Y  Z  R     Alpha  on Atom
            ==========     =====     ==========

 O                                    1
                                  ---------------------------------------------------------------------------
            0  0  0  0     9.800      1
            0  0  0  0     6.800      2
            0  0  0  1     7.580      3
            0  0  0  1     2.880      4
            0  0  0  1     1.720      5
            1  0  0  0     4.080      6
            0  1  0  0     4.080      7
            0  0  1  0     4.080      8
            1  0  0  0     2.080      9
            0  1  0  0     2.080     10
            0  0  1  0     2.080     11
            1  0  0  0     1.120     12
            0  1  0  0     1.120     13
            0  0  1  0     1.120     14
            2  0  0  0     2.000     15
            1  1  0  0     2.000     16
            1  0  1  0     2.000     17
            0  2  0  0     2.000     18
            0  1  1  0     2.000     19
            0  0  2  0     2.000     20
            3  0  0  0     3.000     21
            2  1  0  0     3.000     22
            2  0  1  0     3.000     23
            1  2  0  0     3.000     24
            1  1  1  0     3.000     25
            1  0  2  0     3.000     26
            0  3  0  0     3.000     27
            0  2  1  0     3.000     28
            0  1  2  0     3.000     29
            0  0  3  0     3.000     30
1
 ***************************************************************************************************



                                              ***********************
                                              *  T E C H N I C A L  *
                                              ***********************
  



 =============================================================
 P A R A L L E L I Z A T I O N  and  V E C T O R I Z A T I O N
 =============================================================
  
 Nr of parallel processes:                                1
 Maximum vector length in NumInt loops:                 128

 IO buffersize (Mb):                                     64.000000



 =====================
 S C F   U P D A T E S
 =====================
  
 Max. nr. of cycles:                               300
 Convergence criterion:                              0.0000000100
   secondary criterion:                              0.0000000100

 Mix parameter (when DIIS does not apply):           0.2000000000
 Special mix parameter for the first cycle:          1.0000000000
 Mixed ADIIS+DIIS will be used
    Max number of expansion vectors:                10
    Pure ADIIS when Max([F,P]) is above              0.1000000000
    Pure DIIS when Max([F,P]) is below               0.0010000000
 Automatic ElectronSmearing (in case of problematic SCF convergence) disabled



 =================
 P R E C I S I O N  ***  (General: NumInt, NeglectFunctionTails, ...)  ***
 =================
  

 NumInt:           Target precision:                12.0000000000
 -------           Initial precision:               10.0000000000
                   Min. precision (optimization):   10.0000000000

 Neglect Functions:          Basis functions:        0.1000000000E-13
 ------------------          Fit functions:          0.1000000000E-13



 ===========================
 L I N E A R   S C A L I N G
 ===========================
  

 Cut-off radii density fit:                        0.1000000000E-97
 Overlap cut-off criterion AO matrix elements:     0.1000000000E-97
 Cut-offs for Coulomb potential and fitted density:0.1000000000E-97
 Cut-off criterion for Coulomb multipole terms:    0.1000000000E-97
 Progressive Convergence parameter:                 0.000000000    
1
 ***************************************************************************************************



                                            ***************************
                                            *  C O M P U T A T I O N  *
                                            ***************************
  

 Number of elements of the density matrix on this node (used, total):       465       465



 ===========================================
 Numerical Integration : Fuzzy Cells (Becke)
 ===========================================
  
 Becke grid quality: VERYGOOD       
  
 Lebedev angular grid order:             min:  13 max:  41
 Nr. of radial points:                   min:  68 max:  68

 Total nr. of points:         68
 Nr. of blocks:                1
 Block length:                68
 Nr. of dummy points:          0


 Test of Precision of the Numerical Integration Grid
 ===================================================

 Integral of the Total Core Density:                   0.00000000000000



 ========================
 Density Fitting (zlmFit)
 ========================
  
 ZlmFit Fit Quality: VERYGOOD       
  
 Max L-expansion:                        min:   0 max:   0
 Nr. of radial interpolation points:     min: 180 max: 180



 =====
 S C F  ***  ScaSCF  ***
 =====
  

 CYCLE    1
 SCF Error: norm([F,P])=      0.000000000000, max([F,P])=      0.000000000000
 orbitals (Q,E):
 ---------------
 S :1...5            ( 2.00   -31.9999)  ( 2.00    -7.9363)  ( 0.00    -3.4636)  ( 0.00     4.3191)
                     ( 0.00   110.5486)
 P :1...3            ( 4.00    -7.9991)  ( 0.00    -3.4855)  ( 0.00    -1.8903)
 D :1...1            ( 0.00    -3.3333)
 F :1...1            ( 0.00    -1.5000)

 CYCLE    2
  SDIIS (wt  0.000):  1.0000  0.0000
 A-DIIS (wt  1.000):  0.0000  1.0000
  DIIS coefficients:  0.0000  1.0000
 SCF Error: norm([F,P])=      8.765745414074, max([F,P])=      5.518031311555
 orbitals (Q,E):
 ---------------
 S :1...3            ( 2.00   -14.5579)  ( 2.00    -0.0124)  ( 0.00     1.8192)
 P :1...2            ( 4.00     0.2183)  ( 0.00     1.2385)
 D :1...1            ( 0.00     1.5388)
 F :1...1            ( 0.00     3.9464)

 CYCLE    3
  SDIIS (wt  0.000):  0.2278  0.7722
 A-DIIS (wt  1.000):  0.3148  0.6852
  DIIS coefficients:  0.3148  0.6852
 SCF Error: norm([F,P])=      3.585499450444, max([F,P])=      2.499410108106
 orbitals (Q,E):
 ---------------
 S :1...3            ( 2.00   -19.8063)  ( 2.00    -1.5198)  ( 0.00     0.3996)
 P :1...2            ( 4.00    -0.9763)  ( 0.00     0.1325)
 D :1...1            ( 0.00     0.6540)
 F :1...1            ( 0.00     2.8642)

 CYCLE    4
  SDIIS (wt  0.000): -0.0456  0.1707  0.8749
 A-DIIS (wt  1.000):  0.0000  0.0000  1.0000
  DIIS coefficients:  0.0000  0.0000  1.0000
 SCF Error: norm([F,P])=      1.147919112368, max([F,P])=      0.583019620058
 orbitals (Q,E):
 ---------------
 S :1...3            ( 2.00   -18.0523)  ( 2.00    -0.5465)  ( 0.00     1.0349)
 P :1...2            ( 4.00    -0.0477)  ( 0.00     0.5307)
 D :1...1            ( 0.00     1.2443)
 F :1...1            ( 0.00     3.5731)

 CYCLE    5
  SDIIS (wt  0.000): -0.0195 -0.0760  0.5845  0.5110
 A-DIIS (wt  1.000):  0.0000  0.0000  0.6414  0.3586
  DIIS coefficients:  0.0000  0.0000  0.6414  0.3586
 SCF Error: norm([F,P])=      1.519585468023, max([F,P])=      0.840542006159
 orbitals (Q,E):
 ---------------
 S :1...3            ( 2.00   -18.8182)  ( 2.00    -0.8502)  ( 0.00     0.8091)
 P :1...2            ( 4.00    -0.3077)  ( 0.00     0.3582)
 D :1...1            ( 0.00     1.0753)
 F :1...1            ( 0.00     3.3669)

 CYCLE    6
  SDIIS (wt  0.000):  0.0038 -0.0006  0.0668 -0.0496  0.9795
 A-DIIS (wt  1.000):  0.0000  0.0000  0.0000  0.0000  1.0000
  DIIS coefficients:  0.0000  0.0000  0.0000  0.0000  1.0000
 SCF Error: norm([F,P])=      0.178828926625, max([F,P])=      0.104242033505
 orbitals (Q,E):
 ---------------
 S :1...3            ( 2.00   -19.0541)  ( 2.00    -0.9245)  ( 0.00     0.7610)
 P :1...2            ( 4.00    -0.3806)  ( 0.00     0.3267)
 D :1...1            ( 0.00     1.0451)
 F :1...1            ( 0.00     3.3284)

 CYCLE    7
  SDIIS (wt  0.000): -0.0003  0.0004 -0.0182  0.0130  0.4190  0.5861
 A-DIIS (wt  1.000):  0.0000  0.0000  0.0000  0.0000  0.5807  0.4193
  DIIS coefficients:  0.0000  0.0000  0.0000  0.0000  0.5807  0.4193
 SCF Error: norm([F,P])=      0.200125290981, max([F,P])=      0.113649127568
 orbitals (Q,E):
 ---------------
 S :1...3            ( 2.00   -18.9379)  ( 2.00    -0.8781)  ( 0.00     0.7909)
 P :1...2            ( 4.00    -0.3354)  ( 0.00     0.3452)
 D :1...1            ( 0.00     1.0687)
 F :1...1            ( 0.00     3.3572)

 CYCLE    8
  SDIIS (wt  0.910): -0.0000  0.0002  0.0044 -0.0011 -0.0192 -0.1454  1.1612
 A-DIIS (wt  0.090):  0.0000  0.0000  0.0000  0.0000  0.0000  0.0000  1.0000
  DIIS coefficients: -0.0000  0.0002  0.0040 -0.0010 -0.0175 -0.1323  1.1466
 SCF Error: norm([F,P])=      0.016951777154, max([F,P])=      0.009947196225
 orbitals (Q,E):
 ---------------
 S :1...3            ( 2.00   -18.9255)  ( 2.00    -0.8739)  ( 0.00     0.7936)
 P :1...2            ( 4.00    -0.3314)  ( 0.00     0.3469)
 D :1...1            ( 0.00     1.0707)
 F :1...1            ( 0.00     3.3597)

 CYCLE    9
  SDIIS (wt  1.000): -0.0000  0.0000  0.0000 -0.0001  0.0003  0.0067  0.0145  0.9786
  DIIS coefficients: -0.0000  0.0000  0.0000 -0.0001  0.0003  0.0067  0.0145  0.9786
 SCF Error: norm([F,P])=      0.001748429777, max([F,P])=      0.000984374870
 orbitals (Q,E):
 ---------------
 S :1...3            ( 2.00   -18.9266)  ( 2.00    -0.8743)  ( 0.00     0.7933)
 P :1...2            ( 4.00    -0.3318)  ( 0.00     0.3467)
 D :1...1            ( 0.00     1.0705)
 F :1...1            ( 0.00     3.3595)

 CYCLE   10
  SDIIS (wt  1.000): -0.0000 -0.0000 -0.0000 -0.0000  0.0000  0.0001 -0.0011 -0.0034  1.0043
  DIIS coefficients: -0.0000 -0.0000 -0.0000 -0.0000  0.0000  0.0001 -0.0011 -0.0034  1.0043
 SCF Error: norm([F,P])=      0.000001425627, max([F,P])=      0.000000713873
 orbitals (Q,E):
 ---------------
 S :1...3            ( 2.00   -18.9266)  ( 2.00    -0.8743)  ( 0.00     0.7933)
 P :1...2            ( 4.00    -0.3318)  ( 0.00     0.3467)
 D :1...1            ( 0.00     1.0705)
 F :1...1            ( 0.00     3.3595)

 CYCLE   11
  SDIIS (wt  1.000):  0.0000 -0.0000 -0.0000 -0.0001 -0.0046  1.0047
  DIIS coefficients:  0.0000 -0.0000 -0.0000 -0.0001 -0.0046  1.0047
 SCF Error: norm([F,P])=      0.000000048705, max([F,P])=      0.000000022971
 orbitals (Q,E):
 ---------------
 S :1...3            ( 2.00   -18.9266)  ( 2.00    -0.8743)  ( 0.00     0.7933)
 P :1...2            ( 4.00    -0.3318)  ( 0.00     0.3467)
 D :1...1            ( 0.00     1.0705)
 F :1...1            ( 0.00     3.3595)

 CYCLE   12
  SDIIS (wt  1.000):  0.0000  0.0003  0.0049  0.9947
  DIIS coefficients:  0.0000  0.0003  0.0049  0.9947
 SCF Error: norm([F,P])=      0.000000002391, max([F,P])=      0.000000001167
 orbitals (Q,E):
 ---------------
 S :1...3            ( 2.00   -18.9266)  ( 2.00    -0.8743)  ( 0.00     0.7933)
 P :1...2            ( 4.00    -0.3318)  ( 0.00     0.3467)
 D :1...1            ( 0.00     1.0705)
 F :1...1            ( 0.00     3.3595)

 SCF CONVERGED

 CYCLE   13
1
 ***************************************************************************************************



                                                *******************
                                                *  R E S U L T S  *
                                                *******************
  
 *** Setting up for NEW gradients in Focky
 *** Using FIT density in Focky

 Orbital Energies, per Irrep and Spin:
 ======================================
                        Occup              E (au)              E (eV)       Diff (eV) with prev. cycle
                        -----      --------------------        ------       --------------------------
 S
               1        2.000     -0.18926622910087E+02      -515.020               5.77E-10
               2        2.000     -0.87432318445326E+00       -23.792               3.91E-10
               3        0.000      0.79334608634539E+00        21.588
               4        0.000      0.13459763470972E+02       366.259
               5        0.000      0.12310776301323E+03      3349.933
 P
               1        4.000     -0.33177161342560E+00        -9.028               3.72E-10
               2        0.000      0.34673871865826E+00         9.435
               3        0.000      0.38246989192600E+01       104.075
 D
               1        0.000      0.10704889823391E+01        29.129
 F
               1        0.000      0.33594552407685E+01        91.415


 Partially Occupied:
               1 P                -0.33177161342560E+00
  
 HOMO :        2 S                -0.87432318445326E+00
 LUMO :        2 P                 0.34673871865826E+00
  


 Orbital Energies, all Irreps
 ========================================

 Irrep        no.  (spin)   Occup              E (au)                E (eV)
 ---------------------------------------------------------------------------
 S             1             2.00       -0.18926622910087E+02      -515.0196
 S             2             2.00       -0.87432318445326E+00       -23.7915
 P             1             4.00       -0.33177161342560E+00        -9.0280
 P             2             0.00        0.34673871865826E+00         9.4352
 S             3             0.00        0.79334608634539E+00        21.5880
 D             1             0.00        0.10704889823391E+01        29.1295
 F             1             0.00        0.33594552407685E+01        91.4154
 P             3             0.00        0.38246989192600E+01       104.0754
 S             4             0.00        0.13459763470972E+02       366.2588
 S             5             0.00        0.12310776301323E+03      3349.9327


 All Electron Calculation, thus no Orbital Energies of the Core Orbitals are calculated



 =======================================
 M U L L I K E N   P O P U L A T I O N S
 =======================================
  
 The survey below gives for each atom:
 a) the total charge (Z minus electrons)
 b) the net spin polarization (nr of electrons spin-A minus spin-B)
 c) for each spin the atomic electron valence density (integrated) per L-value.

 Atom              Charge    Spin density          S         P         D         F
 ----              ------    ------------       ------    ------    ------    ------
 1 O               0.0000                       4.0000    4.0000    0.0000    0.0000

 Populations of individual BAS functions
 ----------------------------------------
 1 O            0.6447  1.3214  0.0008  1.1425  0.8905  0.2537  0.2537  0.2537  0.7364  0.7364
                0.7364  0.3432  0.3432  0.3432  0.0000  0.0000  0.0000  0.0000  0.0000  0.0000
                0.0000  0.0000  0.0000  0.0000  0.0000  0.0000  0.0000  0.0000  0.0000  0.0000

 Gross Charges per Atom (Z minus electrons)
 ==========================================
             0.0000
 Net Total:  0.00000000



 =======================================================================
 Electrostatic potential at the Nuclei due to electrons and other nuclei
 =======================================================================
  
         Atom                  Potential
         ----                  ---------
     1)   O                  22.23872615
 
 
 ========================
 No memory problems found
 ========================
 
 Maximum number of active allocate calls:         447
 
 *******************************************************************************

                             A D F   E X I T
 NORMAL TERMINATION



 =================
 Timing Statistics
 =================
  
 Total Used :                     CPU=        0.52      System=        0.03     Elapsed=        0.55

 Calls  Section                     ( Mean, Percentage )
 ---------------------------------------------------------------------------------------------------
     3  ><      ................      0.00    0.00             0.00    0.00             0.00    0.14
     1  INIT    ................      0.01    1.92             0.01   50.00             0.03    4.62
     1  GEOMET  ................      0.00    0.96             0.00   14.29             0.01    1.50
     1  INPUTA  ................      0.00    0.38             0.00    0.00             0.00    0.28
     1  MAINSY  ................      0.00    0.77             0.00    7.14             0.01    1.07
     1  SYMFIT  ................      0.00    0.19             0.00    0.00             0.00    0.14
     1  CORORT  ................      0.00    0.00             0.00    0.00             0.00    0.05
     1  SYMORB  ................      0.00    0.00             0.00    0.00             0.00    0.12
     1  CLSMAT  ................      0.01    1.15             0.00    0.00             0.01    0.94
     1  ORTHON  ................      0.00    0.19             0.00    0.00             0.00    0.26
     1  GENPT   ................      0.01    2.87             0.00    0.00             0.01    2.69
     1  PTBAS   ................      0.00    0.38             0.00    3.57             0.00    0.63
    13  FOCKY   ................      0.03   76.82             0.00   17.86             0.03   73.34
    13  FOCKTR  ................      0.00    1.72             0.00    0.00             0.00    1.95
    13  SDIIS   ................      0.00    3.83             0.00    3.57             0.00    3.75
     1  COREPS  ................      0.02    4.41             0.00    0.00             0.02    4.16
     1  POPAN   ................      0.01    1.15             0.00    0.00             0.01    0.94
     1  DEBYE   ................      0.00    0.00             0.00    0.00             0.00    0.10
     1  EXIT PROCEDURE .........      0.02    3.26             0.00    3.57             0.02    3.32


 Currently Open Files (EXIT00)
 ====================

 Unit    Access Format  Status   Type       Ident (file)
 -------------------------------------------------------
   3      SEQ    FORM   TRANSP  NORMAL      LOGFILE
                                          ( logfile )


 Buffered I/O statistics
 =======================
 Memory available:                     67108864
 Number of records fitting in memory:     16131
 Input :   0.1% of                        27846  *4k bytes
 Output:  13.4% of                         1391  *4k bytes
 Records from serial files evicted:           0
                    others evicted:           0
 Hash table lookups:      71928 with          0 conflicts (  0.00%)

 ***************************************************************************************************
 (LOGFILE)
 <Apr25-2019> <15:26:41>  ADF development version  RunTime: Apr25-2019 15:26:41  Nodes: 1  Procs: 1
 <Apr25-2019> <15:26:41>  Oxygen (TZ2P)
 <Apr25-2019> <15:26:41>  RunType   : CREATE
 <Apr25-2019> <15:26:41>  Net Charge: 0 (Nuclei minus Electrons)
 <Apr25-2019> <15:26:41>  Symmetry  : ATOM
  Coordinates
    Atom         X           Y           Z   (Angstrom)
    1.O         0.000000    0.000000    0.000000
 <Apr25-2019> <15:26:41>  >>>> CORORT
 <Apr25-2019> <15:26:41>  >>>> CLSMAT
 <Apr25-2019> <15:26:41>  >>>> ORTHON
 <Apr25-2019> <15:26:41>  >>>> GENPT
 <Apr25-2019> <15:26:41>  Block Length=  68
 <Apr25-2019> <15:26:41>  >>>> PTBAS
 <Apr25-2019> <15:26:41>  >>>> CYCLE
 <Apr25-2019> <15:26:41>              |Error|         MaxErr       Wt(A-DIIS)
 <Apr25-2019> <15:26:41>      1      0.00000000      0.00000000
 <Apr25-2019> <15:26:41>      2      8.76574541      5.51803131    100.0
 <Apr25-2019> <15:26:41>      3      3.58549945      2.49941011    100.0
 <Apr25-2019> <15:26:41>      4      1.14791911      0.58301962    100.0
 <Apr25-2019> <15:26:41>      5      1.51958547      0.84054201    100.0
 <Apr25-2019> <15:26:41>      6      0.17882893      0.10424203    100.0
 <Apr25-2019> <15:26:41>      7      0.20012529      0.11364913    100.0
 <Apr25-2019> <15:26:41>      8      0.01695178      0.00994720      9.0
 <Apr25-2019> <15:26:41>      9      0.00174843      0.00098437      0.0
 <Apr25-2019> <15:26:41>     10      0.00000143      0.00000071      0.0
 <Apr25-2019> <15:26:41>     11      0.00000005      0.00000002      0.0
 <Apr25-2019> <15:26:41>     12      0.00000000      0.00000000      0.0
 <Apr25-2019> <15:26:41>  SCF converged
 <Apr25-2019> <15:26:41>     13      0.00000000      0.00000000      0.0
 <Apr25-2019> <15:26:41>  >>>> POPAN
 <Apr25-2019> <15:26:41>  >>>> DEBYE
 <Apr25-2019> <15:26:41>  NORMAL TERMINATION
 <Apr25-2019> <15:26:41>  END

Create C   file=TZ2P-C
XC
  GGA blyp
End
End Input

 *******************************************************************************
 *                                                                             *
 *  -------------------------------------                                      *
 *   Amsterdam Density Functional  (ADF)         development version           *
 *  -------------------------------------                                      *
 *                                               r61132 2017-09-08             *
 *                                                                             *
 *                                                                             *
 *                              =================                              *
 *                              |               |                              *
 *                              |     A D F     |                              *
 *                              |               |                              *
 *                              =================                              *
 *                                                                             *
 *                                                                             *
 *   Online information and documentation:  https://www.scm.com/support/       *
 *   E-mail:  support@scm.com   info@scm.com                                   *
 *                                                                             *
 *   Scientific publications using ADF results must be properly referenced     *
 *   See the User Manuals (or the web site) for recommended citations          *
 *   The terms and conditions of the End User License Agreement apply to       *
 *   the use of ADF, https://www.scm.com/license-terms/                        *
 *                                                                             *
 **********************  x86_64_linux_intel / intelmpi  ************************
 
 Licensed to: VU/FEW (+ SARA) / ALGEMEEN / Amsterdam / THE NETHERLANDS
 SCM User ID: u7668
  
 ADF development version  RunTime: Apr25-2019 15:26:41  Nodes: 1  Procs: 1

 Temporary files are created in /local/datastore0/tcst25/187650/kid_0.PVAj87

 Carbon (TZ2P)



 ===========================
 A T T A C H E D   F I L E S
 ===========================
  
 CREATE - Data File:    TZ2P-C
                        Carbon (TZ2P)



 ===============================
 M O D E L   P A R A M E T E R S
 ===============================
  
 DENSITY FUNCTIONAL POTENTIAL (scf)
    LDA:                               Exchange only                           == Not Default ==
    Gradient Corrections:              Becke88 LYP                             == Not Default ==

 SPIN  (restricted / unrestr.)
    Molecule:                          Restricted                               

 OTHER ASPECTS
    Relativistic Corrections:          ---                                      

    Nuclear Charge Density Model:      Point Charge Nuclei                      
    Core Treatment:                    Frozen Orbital(s)                        

    Hyperfine or Zeeman Interaction:   ---                                      



 =====================================
 S Y M M E T R Y ,   E L E C T R O N S
 =====================================
  
 Symmetry: ATOM

 Irreducible Representations, including subspecies
 -------------------------------------------------
 S
 P:x  P:y  P:z
 D:z2  D:x2-y2  D:xy  D:xz  D:yz
 F:z3  F:z  F:xyz  F:z2x  F:z2y  F:x  F:y


 Configuration of Valence Electrons
 ==================================

          Occupation Numbers
          -------------------------------------------------
 S        2*2
 P        2
 D        0
 F        0
          -------------------------------------------------

 Total:   6

 Net Charge: 0 (Nuclei minus Electrons)

 Preset values for MO occupations will be applied through SCF cycle no. 1000000
 Thereafter, the program will assign electrons to MOs that are spatially
 similar to the occupied MOs in a "reference" cycle ("KeepOrbitals").
 The reference cycle is always the PREVIOUS cycle: it will evolve with
 the SCF procedure.



 ================================
 (Slater-type)  F U N C T I O N S  ***  (Basis and Fit)  ***
 ================================
  

 Atom Type    1  (C)
 ==============

 Valence Basis Sets:  10
 -----------------------
   1 S    7.680000
   1 S    5.000000
   2 S    1.280000
   2 S    2.100000
   2 S    4.600000
   2 P    0.820000
   2 P    1.480000
   2 P    2.940000
   3 D    2.200000
   4 F    3.300000


 BAS: List of all Elementary Cartesian Basis Functions
 =====================================================

 The numbering in the list below (to the right of the function characteristics) is referred
 to in print-outs of MO eigenvectors and Mulliken populations in the BAS representation
 (as contrasted to the SFO representation).

 Notes:
 1. The functions are characterized by a polynomial prefactor (powers of x,y,z and r) and
    an exponential decay factor alpha.
 2. Since the basis sets are specific for an atom TYPE, the individual functions occur on
    all atoms of that type.
 3. The word 'Core' in the left margin signals that it is a Core Function (CF) : not a
    degree of freedom in the valence set, but only used to ensure orthogonalization of
    the other valence basis functions on the frozen Core Orbitals.


 (power of) X  Y  Z  R     Alpha  on Atom
            ==========     =====     ==========

 C                                    1
                                  ---------------------------------------------------------------------------
            0  0  0  0     7.680      1
            0  0  0  0     5.000      2
            0  0  0  1     1.280      3
            0  0  0  1     2.100      4
            0  0  0  1     4.600      5
            1  0  0  0     0.820      6
            0  1  0  0     0.820      7
            0  0  1  0     0.820      8
            1  0  0  0     1.480      9
            0  1  0  0     1.480     10
            0  0  1  0     1.480     11
            1  0  0  0     2.940     12
            0  1  0  0     2.940     13
            0  0  1  0     2.940     14
            2  0  0  0     2.200     15
            1  1  0  0     2.200     16
            1  0  1  0     2.200     17
            0  2  0  0     2.200     18
            0  1  1  0     2.200     19
            0  0  2  0     2.200     20
            3  0  0  0     3.300     21
            2  1  0  0     3.300     22
            2  0  1  0     3.300     23
            1  2  0  0     3.300     24
            1  1  1  0     3.300     25
            1  0  2  0     3.300     26
            0  3  0  0     3.300     27
            0  2  1  0     3.300     28
            0  1  2  0     3.300     29
            0  0  3  0     3.300     30

 Total number of charge fitting functions (nprimf)        84
 Total number of Cartesian basis functions (naos)         30
 Total number of Cartesian core functions  (ncos)          0



 BAS: List of all Elementary Cartesian Basis Functions
 =====================================================

 The numbering in the list below (to the right of the function characteristics) is referred
 to in print-outs of MO eigenvectors and Mulliken populations in the BAS representation
 (as contrasted to the SFO representation).

 Notes:
 1. The functions are characterized by a polynomial prefactor (powers of x,y,z and r) and
    an exponential decay factor alpha.
 2. Since the basis sets are specific for an atom TYPE, the individual functions occur on
    all atoms of that type.
 3. The word 'Core' in the left margin signals that it is a Core Function (CF) : not a
    degree of freedom in the valence set, but only used to ensure orthogonalization of
    the other valence basis functions on the frozen Core Orbitals.


 (power of) X  Y  Z  R     Alpha  on Atom
            ==========     =====     ==========

 C                                    1
                                  ---------------------------------------------------------------------------
            0  0  0  0     7.680      1
            0  0  0  0     5.000      2
            0  0  0  1     1.280      3
            0  0  0  1     2.100      4
            0  0  0  1     4.600      5
            1  0  0  0     0.820      6
            0  1  0  0     0.820      7
            0  0  1  0     0.820      8
            1  0  0  0     1.480      9
            0  1  0  0     1.480     10
            0  0  1  0     1.480     11
            1  0  0  0     2.940     12
            0  1  0  0     2.940     13
            0  0  1  0     2.940     14
            2  0  0  0     2.200     15
            1  1  0  0     2.200     16
            1  0  1  0     2.200     17
            0  2  0  0     2.200     18
            0  1  1  0     2.200     19
            0  0  2  0     2.200     20
            3  0  0  0     3.300     21
            2  1  0  0     3.300     22
            2  0  1  0     3.300     23
            1  2  0  0     3.300     24
            1  1  1  0     3.300     25
            1  0  2  0     3.300     26
            0  3  0  0     3.300     27
            0  2  1  0     3.300     28
            0  1  2  0     3.300     29
            0  0  3  0     3.300     30
1
 ***************************************************************************************************



                                              ***********************
                                              *  T E C H N I C A L  *
                                              ***********************
  



 =============================================================
 P A R A L L E L I Z A T I O N  and  V E C T O R I Z A T I O N
 =============================================================
  
 Nr of parallel processes:                                1
 Maximum vector length in NumInt loops:                 128

 IO buffersize (Mb):                                     64.000000



 =====================
 S C F   U P D A T E S
 =====================
  
 Max. nr. of cycles:                               300
 Convergence criterion:                              0.0000000100
   secondary criterion:                              0.0000000100

 Mix parameter (when DIIS does not apply):           0.2000000000
 Special mix parameter for the first cycle:          1.0000000000
 Mixed ADIIS+DIIS will be used
    Max number of expansion vectors:                10
    Pure ADIIS when Max([F,P]) is above              0.1000000000
    Pure DIIS when Max([F,P]) is below               0.0010000000
 Automatic ElectronSmearing (in case of problematic SCF convergence) disabled



 =================
 P R E C I S I O N  ***  (General: NumInt, NeglectFunctionTails, ...)  ***
 =================
  

 NumInt:           Target precision:                12.0000000000
 -------           Initial precision:               10.0000000000
                   Min. precision (optimization):   10.0000000000

 Neglect Functions:          Basis functions:        0.1000000000E-13
 ------------------          Fit functions:          0.1000000000E-13



 ===========================
 L I N E A R   S C A L I N G
 ===========================
  

 Cut-off radii density fit:                        0.1000000000E-97
 Overlap cut-off criterion AO matrix elements:     0.1000000000E-97
 Cut-offs for Coulomb potential and fitted density:0.1000000000E-97
 Cut-off criterion for Coulomb multipole terms:    0.1000000000E-97
 Progressive Convergence parameter:                 0.000000000    
1
 ***************************************************************************************************



                                            ***************************
                                            *  C O M P U T A T I O N  *
                                            ***************************
  

 Number of elements of the density matrix on this node (used, total):       465       465



 ===========================================
 Numerical Integration : Fuzzy Cells (Becke)
 ===========================================
  
 Becke grid quality: VERYGOOD       
  
 Lebedev angular grid order:             min:  13 max:  41
 Nr. of radial points:                   min:  72 max:  72

 Total nr. of points:         72
 Nr. of blocks:                1
 Block length:                72
 Nr. of dummy points:          0


 Test of Precision of the Numerical Integration Grid
 ===================================================

 Integral of the Total Core Density:                   0.00000000000000



 ========================
 Density Fitting (zlmFit)
 ========================
  
 ZlmFit Fit Quality: VERYGOOD       
  
 Max L-expansion:                        min:   0 max:   0
 Nr. of radial interpolation points:     min: 160 max: 160



 =====
 S C F  ***  ScaSCF  ***
 =====
  

 CYCLE    1
 SCF Error: norm([F,P])=      0.000000000000, max([F,P])=      0.000000000000
 orbitals (Q,E):
 ---------------
 S :1...5            ( 2.00   -17.9995)  ( 2.00    -4.4761)  ( 0.00    -1.9482)  ( 0.00     0.6812)
                     ( 0.00    42.8100)
 P :1...3            ( 2.00    -4.4994)  ( 0.00    -1.9807)  ( 0.00    -1.0849)
 D :1...1            ( 0.00    -1.9800)
 F :1...1            ( 0.00     0.4950)

 CYCLE    2
  SDIIS (wt  0.000):  1.0000  0.0000
 A-DIIS (wt  1.000):  0.0000  1.0000
  DIIS coefficients:  0.0000  1.0000
 SCF Error: norm([F,P])=      4.480319744476, max([F,P])=      3.328841325837
 orbitals (Q,E):
 ---------------
 S :1...3            ( 2.00    -7.7917)  ( 2.00    -0.0500)  ( 0.00     0.8490)
 P :1...2            ( 2.00     0.1033)  ( 0.00     0.5895)
 D :1...1            ( 0.00     1.7552)
 F :1...1            ( 0.00     4.6366)

 CYCLE    3
  SDIIS (wt  0.000):  0.2185  0.7815
 A-DIIS (wt  1.000):  0.1233  0.8767
  DIIS coefficients:  0.1233  0.8767
 SCF Error: norm([F,P])=      1.636788894664, max([F,P])=      1.315295345514
 orbitals (Q,E):
 ---------------
 S :1...3            ( 2.00   -10.9862)  ( 2.00    -0.9428)  ( 0.00     0.1231)
 P :1...2            ( 2.00    -0.6386)  ( 0.00     0.0246)
 D :1...1            ( 0.00     0.8395)
 F :1...1            ( 0.00     3.5625)

 CYCLE    4
  SDIIS (wt  0.000): -0.0629  0.2184  0.8445
 A-DIIS (wt  1.000):  0.0000  0.0872  0.9128
  DIIS coefficients:  0.0000  0.0872  0.9128
 SCF Error: norm([F,P])=      0.722267649759, max([F,P])=      0.580815510644
 orbitals (Q,E):
 ---------------
 S :1...3            ( 2.00    -9.6419)  ( 2.00    -0.3647)  ( 0.00     0.4682)
 P :1...2            ( 2.00    -0.0765)  ( 0.00     0.2450)
 D :1...1            ( 0.00     1.3742)
 F :1...1            ( 0.00     4.1720)

 CYCLE    5
  SDIIS (wt  0.000): -0.0214 -0.0561  0.3847  0.6927
 A-DIIS (wt  1.000):  0.0000  0.0000  0.2646  0.7354
  DIIS coefficients:  0.0000  0.0000  0.2646  0.7354
 SCF Error: norm([F,P])=      0.412794757847, max([F,P])=      0.328642040749
 orbitals (Q,E):
 ---------------
 S :1...3            ( 2.00   -10.1968)  ( 2.00    -0.5643)  ( 0.00     0.3336)
 P :1...2            ( 2.00    -0.2533)  ( 0.00     0.1428)
 D :1...1            ( 0.00     1.1818)
 F :1...1            ( 0.00     3.9467)

 CYCLE    6
  SDIIS (wt  0.032):  0.0025 -0.0116 -0.0698  0.2077  0.8712
 A-DIIS (wt  0.968):  0.0000  0.0000  0.0000  0.0000  1.0000
  DIIS coefficients:  0.0001 -0.0004 -0.0022  0.0066  0.9959
 SCF Error: norm([F,P])=      0.126643163176, max([F,P])=      0.096847488733
 orbitals (Q,E):
 ---------------
 S :1...3            ( 2.00    -9.9458)  ( 2.00    -0.4545)  ( 0.00     0.4037)
 P :1...2            ( 2.00    -0.1511)  ( 0.00     0.1903)
 D :1...1            ( 0.00     1.2866)
 F :1...1            ( 0.00     4.0669)

 CYCLE    7
  SDIIS (wt  0.100): -0.0001  0.0030  0.0073 -0.1526  0.2846  0.8578
 A-DIIS (wt  0.900):  0.0000  0.0000  0.0000  0.0000  0.4446  0.5554
  DIIS coefficients: -0.0000  0.0003  0.0007 -0.0152  0.4286  0.5856
 SCF Error: norm([F,P])=      0.115568228223, max([F,P])=      0.090123764632
 orbitals (Q,E):
 ---------------
 S :1...3            ( 2.00   -10.0697)  ( 2.00    -0.5032)  ( 0.00     0.3719)
 P :1...2            ( 2.00    -0.1955)  ( 0.00     0.1673)
 D :1...1            ( 0.00     1.2400)
 F :1...1            ( 0.00     4.0128)

 CYCLE    8
  SDIIS (wt  0.958): -0.0001  0.0006  0.0026 -0.0162 -0.0129  0.1023  0.9238
 A-DIIS (wt  0.042):  0.0000  0.0000  0.0000  0.0000  0.0000  0.0000  1.0000
  DIIS coefficients: -0.0001  0.0005  0.0025 -0.0155 -0.0124  0.0980  0.9270
 SCF Error: norm([F,P])=      0.006629277794, max([F,P])=      0.005140885246
 orbitals (Q,E):
 ---------------
 S :1...3            ( 2.00   -10.0626)  ( 2.00    -0.5000)  ( 0.00     0.3739)
 P :1...2            ( 2.00    -0.1926)  ( 0.00     0.1686)
 D :1...1            ( 0.00     1.2431)
 F :1...1            ( 0.00     4.0163)

 CYCLE    9
  SDIIS (wt  1.000): -0.0000 -0.0000 -0.0000 -0.0000  0.0023 -0.0004 -0.0164  1.0145
  DIIS coefficients: -0.0000 -0.0000 -0.0000 -0.0000  0.0023 -0.0004 -0.0164  1.0145
 SCF Error: norm([F,P])=      0.000215737588, max([F,P])=      0.000163422089
 orbitals (Q,E):
 ---------------
 S :1...3            ( 2.00   -10.0628)  ( 2.00    -0.5001)  ( 0.00     0.3739)
 P :1...2            ( 2.00    -0.1927)  ( 0.00     0.1686)
 D :1...1            ( 0.00     1.2430)
 F :1...1            ( 0.00     4.0162)

 CYCLE   10
  SDIIS (wt  1.000):  0.0000 -0.0000 -0.0000  0.0001  0.0000 -0.0011  0.0167  0.9843
  DIIS coefficients:  0.0000 -0.0000 -0.0000  0.0001  0.0000 -0.0011  0.0167  0.9843
 SCF Error: norm([F,P])=      0.000001946475, max([F,P])=      0.000001322855
 orbitals (Q,E):
 ---------------
 S :1...3            ( 2.00   -10.0628)  ( 2.00    -0.5001)  ( 0.00     0.3739)
 P :1...2            ( 2.00    -0.1927)  ( 0.00     0.1686)
 D :1...1            ( 0.00     1.2430)
 F :1...1            ( 0.00     4.0162)

 CYCLE   11
  SDIIS (wt  1.000):  0.0000 -0.0000 -0.0002 -0.0078  1.0079
  DIIS coefficients:  0.0000 -0.0000 -0.0002 -0.0078  1.0079
 SCF Error: norm([F,P])=      0.000000017997, max([F,P])=      0.000000015004
 orbitals (Q,E):
 ---------------
 S :1...3            ( 2.00   -10.0628)  ( 2.00    -0.5001)  ( 0.00     0.3739)
 P :1...2            ( 2.00    -0.1927)  ( 0.00     0.1686)
 D :1...1            ( 0.00     1.2430)
 F :1...1            ( 0.00     4.0162)

 CYCLE   12
  SDIIS (wt  1.000):  0.0000 -0.0001  0.0057  0.9944
  DIIS coefficients:  0.0000 -0.0001  0.0057  0.9944
 SCF Error: norm([F,P])=      0.000000000214, max([F,P])=      0.000000000163
 orbitals (Q,E):
 ---------------
 S :1...3            ( 2.00   -10.0628)  ( 2.00    -0.5001)  ( 0.00     0.3739)
 P :1...2            ( 2.00    -0.1927)  ( 0.00     0.1686)
 D :1...1            ( 0.00     1.2430)
 F :1...1            ( 0.00     4.0162)

 SCF CONVERGED

 CYCLE   13
1
 ***************************************************************************************************



                                                *******************
                                                *  R E S U L T S  *
                                                *******************
  
 *** Setting up for NEW gradients in Focky
 *** Using FIT density in Focky

 Orbital Energies, per Irrep and Spin:
 ======================================
                        Occup              E (au)              E (eV)       Diff (eV) with prev. cycle
                        -----      --------------------        ------       --------------------------
 S
               1        2.000     -0.10062819482682E+02      -273.823              -1.46E-09
               2        2.000     -0.50012405867784E+00       -13.609              -9.06E-10
               3        0.000      0.37386666571789E+00        10.173
               4        0.000      0.54114616881922E+01       147.253
               5        0.000      0.50154618712633E+02      1364.777
 P
               1        2.000     -0.19265861396330E+00        -5.243              -8.46E-10
               2        0.000      0.16859720175392E+00         4.588
               3        0.000      0.20146797119588E+01        54.822
 D
               1        0.000      0.12429821924707E+01        33.823
 F
               1        0.000      0.40162441326384E+01       109.288


 Partially Occupied:
               1 P                -0.19265861396330E+00
  
 HOMO :        2 S                -0.50012405867784E+00
 LUMO :        2 P                 0.16859720175392E+00
  


 Orbital Energies, all Irreps
 ========================================

 Irrep        no.  (spin)   Occup              E (au)                E (eV)
 ---------------------------------------------------------------------------
 S             1             2.00       -0.10062819482682E+02      -273.8233
 S             2             2.00       -0.50012405867784E+00       -13.6091
 P             1             2.00       -0.19265861396330E+00        -5.2425
 P             2             0.00        0.16859720175392E+00         4.5878
 S             3             0.00        0.37386666571789E+00        10.1734
 D             1             0.00        0.12429821924707E+01        33.8233
 P             3             0.00        0.20146797119588E+01        54.8222
 F             1             0.00        0.40162441326384E+01       109.2876
 S             4             0.00        0.54114616881922E+01       147.2534
 S             5             0.00        0.50154618712633E+02      1364.7766


 All Electron Calculation, thus no Orbital Energies of the Core Orbitals are calculated



 =======================================
 M U L L I K E N   P O P U L A T I O N S
 =======================================
  
 The survey below gives for each atom:
 a) the total charge (Z minus electrons)
 b) the net spin polarization (nr of electrons spin-A minus spin-B)
 c) for each spin the atomic electron valence density (integrated) per L-value.

 Atom              Charge    Spin density          S         P         D         F
 ----              ------    ------------       ------    ------    ------    ------
 1 C              -0.0000                       4.0000    2.0000    0.0000    0.0000

 Populations of individual BAS functions
 ----------------------------------------
 1 C            0.4900  1.5029  0.9348  1.1161 -0.0439  0.1802  0.1802  0.1802  0.3776  0.3776
                0.3776  0.1089  0.1089  0.1089  0.0000  0.0000  0.0000  0.0000  0.0000  0.0000
                0.0000  0.0000  0.0000  0.0000  0.0000  0.0000  0.0000  0.0000  0.0000  0.0000

 Gross Charges per Atom (Z minus electrons)
 ==========================================
            -0.0000
 Net Total: -0.00000000



 =======================================================================
 Electrostatic potential at the Nuclei due to electrons and other nuclei
 =======================================================================
  
         Atom                  Potential
         ----                  ---------
     1)   C                  14.67487189
 
 
 ========================
 No memory problems found
 ========================
 
 Maximum number of active allocate calls:         447
 
 *******************************************************************************

                             A D F   E X I T
 NORMAL TERMINATION



 =================
 Timing Statistics
 =================
  
 Total Used :                     CPU=        0.49      System=        0.02     Elapsed=        0.52

 Calls  Section                     ( Mean, Percentage )
 ---------------------------------------------------------------------------------------------------
     3  ><      ................      0.00    0.20             0.00    0.00             0.00    0.15
     1  INIT    ................      0.01    1.82             0.01   70.00             0.03    4.93
     1  GEOMET  ................      0.01    1.21             0.00   10.00             0.01    1.60
     1  INPUTA  ................      0.00    0.20             0.00    0.00             0.00    0.29
     1  MAINSY  ................      0.00    1.01             0.00    5.00             0.01    1.16
     1  SYMFIT  ................      0.00    0.20             0.00    0.00             0.00    0.15
     1  CORORT  ................      0.00    0.20             0.00    0.00             0.00    0.05
     1  SYMORB  ................      0.00    0.00             0.00    0.00             0.00    0.13
     1  CLSMAT  ................      0.00    1.01             0.00    0.00             0.01    1.01
     1  ORTHON  ................      0.00    0.40             0.00    0.00             0.00    0.29
     1  GENPT   ................      0.01    3.04             0.00    0.00             0.01    2.86
     1  PTBAS   ................      0.00    0.40             0.00    5.00             0.00    0.67
    13  FOCKY   ................      0.03   75.10             0.00    0.00             0.03   71.79
    13  FOCKTR  ................      0.00    2.23             0.00    0.00             0.00    2.12
    13  SDIIS   ................      0.00    4.05             0.00    5.00             0.00    4.06
     1  COREPS  ................      0.02    4.25             0.00    0.00             0.02    4.04
     1  POPAN   ................      0.00    1.01             0.00    0.00             0.01    1.01
     1  DEBYE   ................      0.00    0.20             0.00    0.00             0.00    0.11
     1  EXIT PROCEDURE .........      0.02    3.44             0.00    5.00             0.02    3.56


 Currently Open Files (EXIT00)
 ====================

 Unit    Access Format  Status   Type       Ident (file)
 -------------------------------------------------------
   3      SEQ    FORM   TRANSP  NORMAL      LOGFILE
                                          ( logfile )


 Buffered I/O statistics
 =======================
 Memory available:                     67108864
 Number of records fitting in memory:     16131
 Input :   0.1% of                        27803  *4k bytes
 Output:  13.6% of                         1374  *4k bytes
 Records from serial files evicted:           0
                    others evicted:           0
 Hash table lookups:      71867 with          0 conflicts (  0.00%)

 ***************************************************************************************************
 (LOGFILE)
 <Apr25-2019> <15:26:41>  ADF development version  RunTime: Apr25-2019 15:26:41  Nodes: 1  Procs: 1
 <Apr25-2019> <15:26:41>  Oxygen (TZ2P)
 <Apr25-2019> <15:26:41>  RunType   : CREATE
 <Apr25-2019> <15:26:41>  Net Charge: 0 (Nuclei minus Electrons)
 <Apr25-2019> <15:26:41>  Symmetry  : ATOM
  Coordinates
    Atom         X           Y           Z   (Angstrom)
    1.O         0.000000    0.000000    0.000000
 <Apr25-2019> <15:26:41>  >>>> CORORT
 <Apr25-2019> <15:26:41>  >>>> CLSMAT
 <Apr25-2019> <15:26:41>  >>>> ORTHON
 <Apr25-2019> <15:26:41>  >>>> GENPT
 <Apr25-2019> <15:26:41>  Block Length=  68
 <Apr25-2019> <15:26:41>  >>>> PTBAS
 <Apr25-2019> <15:26:41>  >>>> CYCLE
 <Apr25-2019> <15:26:41>              |Error|         MaxErr       Wt(A-DIIS)
 <Apr25-2019> <15:26:41>      1      0.00000000      0.00000000
 <Apr25-2019> <15:26:41>      2      8.76574541      5.51803131    100.0
 <Apr25-2019> <15:26:41>      3      3.58549945      2.49941011    100.0
 <Apr25-2019> <15:26:41>      4      1.14791911      0.58301962    100.0
 <Apr25-2019> <15:26:41>      5      1.51958547      0.84054201    100.0
 <Apr25-2019> <15:26:41>      6      0.17882893      0.10424203    100.0
 <Apr25-2019> <15:26:41>      7      0.20012529      0.11364913    100.0
 <Apr25-2019> <15:26:41>      8      0.01695178      0.00994720      9.0
 <Apr25-2019> <15:26:41>      9      0.00174843      0.00098437      0.0
 <Apr25-2019> <15:26:41>     10      0.00000143      0.00000071      0.0
 <Apr25-2019> <15:26:41>     11      0.00000005      0.00000002      0.0
 <Apr25-2019> <15:26:41>     12      0.00000000      0.00000000      0.0
 <Apr25-2019> <15:26:41>  SCF converged
 <Apr25-2019> <15:26:41>     13      0.00000000      0.00000000      0.0
 <Apr25-2019> <15:26:41>  >>>> POPAN
 <Apr25-2019> <15:26:41>  >>>> DEBYE
 <Apr25-2019> <15:26:41>  NORMAL TERMINATION
 <Apr25-2019> <15:26:41>  END
 <Apr25-2019> <15:26:41>  ADF development version  RunTime: Apr25-2019 15:26:41  Nodes: 1  Procs: 1
 <Apr25-2019> <15:26:41>  Carbon (TZ2P)
 <Apr25-2019> <15:26:41>  RunType   : CREATE
 <Apr25-2019> <15:26:41>  Net Charge: 0 (Nuclei minus Electrons)
 <Apr25-2019> <15:26:41>  Symmetry  : ATOM
  Coordinates
    Atom         X           Y           Z   (Angstrom)
    1.C         0.000000    0.000000    0.000000
 <Apr25-2019> <15:26:41>  >>>> CORORT
 <Apr25-2019> <15:26:41>  >>>> CLSMAT
 <Apr25-2019> <15:26:41>  >>>> ORTHON
 <Apr25-2019> <15:26:41>  >>>> GENPT
 <Apr25-2019> <15:26:41>  Block Length=  72
 <Apr25-2019> <15:26:41>  >>>> PTBAS
 <Apr25-2019> <15:26:41>  >>>> CYCLE
 <Apr25-2019> <15:26:41>              |Error|         MaxErr       Wt(A-DIIS)
 <Apr25-2019> <15:26:41>      1      0.00000000      0.00000000
 <Apr25-2019> <15:26:41>      2      4.48031974      3.32884133    100.0
 <Apr25-2019> <15:26:41>      3      1.63678889      1.31529535    100.0
 <Apr25-2019> <15:26:42>      4      0.72226765      0.58081551    100.0
 <Apr25-2019> <15:26:42>      5      0.41279476      0.32864204    100.0
 <Apr25-2019> <15:26:42>      6      0.12664316      0.09684749     96.8
 <Apr25-2019> <15:26:42>      7      0.11556823      0.09012376     90.0
 <Apr25-2019> <15:26:42>      8      0.00662928      0.00514089      4.2
 <Apr25-2019> <15:26:42>      9      0.00021574      0.00016342      0.0
 <Apr25-2019> <15:26:42>     10      0.00000195      0.00000132      0.0
 <Apr25-2019> <15:26:42>     11      0.00000002      0.00000002      0.0
 <Apr25-2019> <15:26:42>     12      0.00000000      0.00000000      0.0
 <Apr25-2019> <15:26:42>  SCF converged
 <Apr25-2019> <15:26:42>     13      0.00000000      0.00000000      0.0
 <Apr25-2019> <15:26:42>  >>>> POPAN
 <Apr25-2019> <15:26:42>  >>>> DEBYE
 <Apr25-2019> <15:26:42>  NORMAL TERMINATION
 <Apr25-2019> <15:26:42>  END

Create Ni   file=TZ2P-Ni
XC
  GGA blyp
End
End Input

 *******************************************************************************
 *                                                                             *
 *  -------------------------------------                                      *
 *   Amsterdam Density Functional  (ADF)         development version           *
 *  -------------------------------------                                      *
 *                                               r61132 2017-09-08             *
 *                                                                             *
 *                                                                             *
 *                              =================                              *
 *                              |               |                              *
 *                              |     A D F     |                              *
 *                              |               |                              *
 *                              =================                              *
 *                                                                             *
 *                                                                             *
 *   Online information and documentation:  https://www.scm.com/support/       *
 *   E-mail:  support@scm.com   info@scm.com                                   *
 *                                                                             *
 *   Scientific publications using ADF results must be properly referenced     *
 *   See the User Manuals (or the web site) for recommended citations          *
 *   The terms and conditions of the End User License Agreement apply to       *
 *   the use of ADF, https://www.scm.com/license-terms/                        *
 *                                                                             *
 **********************  x86_64_linux_intel / intelmpi  ************************
 
 Licensed to: VU/FEW (+ SARA) / ALGEMEEN / Amsterdam / THE NETHERLANDS
 SCM User ID: u7668
  
 ADF development version  RunTime: Apr25-2019 15:26:42  Nodes: 1  Procs: 1

 Temporary files are created in /local/datastore0/tcst25/187650/kid_0.EQNOhL

 Nickel (TZ2P)



 ===========================
 A T T A C H E D   F I L E S
 ===========================
  
 CREATE - Data File:    TZ2P-Ni
                        Nickel (TZ2P)



 ===============================
 M O D E L   P A R A M E T E R S
 ===============================
  
 DENSITY FUNCTIONAL POTENTIAL (scf)
    LDA:                               Exchange only                           == Not Default ==
    Gradient Corrections:              Becke88 LYP                             == Not Default ==

 SPIN  (restricted / unrestr.)
    Molecule:                          Restricted                               

 OTHER ASPECTS
    Relativistic Corrections:          ---                                      

    Nuclear Charge Density Model:      Point Charge Nuclei                      
    Core Treatment:                    Frozen Orbital(s)                        

    Hyperfine or Zeeman Interaction:   ---                                      



 =====================================
 S Y M M E T R Y ,   E L E C T R O N S
 =====================================
  
 Symmetry: ATOM

 Irreducible Representations, including subspecies
 -------------------------------------------------
 S
 P:x  P:y  P:z
 D:z2  D:x2-y2  D:xy  D:xz  D:yz
 F:z3  F:z  F:xyz  F:z2x  F:z2y  F:x  F:y


 Configuration of Valence Electrons
 ==================================

          Occupation Numbers
          -------------------------------------------------
 S        3*2 1
 P        2*6
 D        9
 F        0
          -------------------------------------------------

 Total:   28

 Net Charge: 0 (Nuclei minus Electrons)

 Preset values for MO occupations will be applied through SCF cycle no. 1000000
 Thereafter, the program will assign electrons to MOs that are spatially
 similar to the occupied MOs in a "reference" cycle ("KeepOrbitals").
 The reference cycle is always the PREVIOUS cycle: it will evolve with
 the SCF procedure.



 ================================
 (Slater-type)  F U N C T I O N S  ***  (Basis and Fit)  ***
 ================================
  

 Atom Type    1  (Ni)
 ==============

 Valence Basis Sets:  19
 -----------------------
   1 S   33.000000
   1 S   25.900000
   2 S   10.950000
   2 S    7.150000
   2 P   15.450000
   2 P   10.000000
   3 S    6.600000
   3 S    4.000000
   3 P    6.800000
   3 P    4.500000
   3 P    3.050000
   3 D    7.000000
   3 D    3.350000
   3 D    1.540000
   4 S    2.450000
   4 S    1.480000
   4 S    0.940000
   4 P    1.470000
   4 F    2.300000


 BAS: List of all Elementary Cartesian Basis Functions
 =====================================================

 The numbering in the list below (to the right of the function characteristics) is referred
 to in print-outs of MO eigenvectors and Mulliken populations in the BAS representation
 (as contrasted to the SFO representation).

 Notes:
 1. The functions are characterized by a polynomial prefactor (powers of x,y,z and r) and
    an exponential decay factor alpha.
 2. Since the basis sets are specific for an atom TYPE, the individual functions occur on
    all atoms of that type.
 3. The word 'Core' in the left margin signals that it is a Core Function (CF) : not a
    degree of freedom in the valence set, but only used to ensure orthogonalization of
    the other valence basis functions on the frozen Core Orbitals.


 (power of) X  Y  Z  R     Alpha  on Atom
            ==========     =====     ==========

 Ni                                   1
                                  ---------------------------------------------------------------------------
            0  0  0  0    33.000      1
            0  0  0  0    25.900      2
            0  0  0  1    10.950      3
            0  0  0  1     7.150      4
            1  0  0  0    15.450      5
            0  1  0  0    15.450      6
            0  0  1  0    15.450      7
            1  0  0  0    10.000      8
            0  1  0  0    10.000      9
            0  0  1  0    10.000     10
            0  0  0  2     6.600     11
            0  0  0  2     4.000     12
            1  0  0  1     6.800     13
            0  1  0  1     6.800     14
            0  0  1  1     6.800     15
            1  0  0  1     4.500     16
            0  1  0  1     4.500     17
            0  0  1  1     4.500     18
            1  0  0  1     3.050     19
            0  1  0  1     3.050     20
            0  0  1  1     3.050     21
            2  0  0  0     7.000     22
            1  1  0  0     7.000     23
            1  0  1  0     7.000     24
            0  2  0  0     7.000     25
            0  1  1  0     7.000     26
            0  0  2  0     7.000     27
            2  0  0  0     3.350     28
            1  1  0  0     3.350     29
            1  0  1  0     3.350     30
            0  2  0  0     3.350     31
            0  1  1  0     3.350     32
            0  0  2  0     3.350     33
            2  0  0  0     1.540     34
            1  1  0  0     1.540     35
            1  0  1  0     1.540     36
            0  2  0  0     1.540     37
            0  1  1  0     1.540     38
            0  0  2  0     1.540     39
            0  0  0  3     2.450     40
            0  0  0  3     1.480     41
            0  0  0  3     0.940     42
            1  0  0  2     1.470     43
            0  1  0  2     1.470     44
            0  0  1  2     1.470     45
            3  0  0  0     2.300     46
            2  1  0  0     2.300     47
            2  0  1  0     2.300     48
            1  2  0  0     2.300     49
            1  1  1  0     2.300     50
            1  0  2  0     2.300     51
            0  3  0  0     2.300     52
            0  2  1  0     2.300     53
            0  1  2  0     2.300     54
            0  0  3  0     2.300     55

 Total number of charge fitting functions (nprimf)       170
 Total number of Cartesian basis functions (naos)         55
 Total number of Cartesian core functions  (ncos)          0



 BAS: List of all Elementary Cartesian Basis Functions
 =====================================================

 The numbering in the list below (to the right of the function characteristics) is referred
 to in print-outs of MO eigenvectors and Mulliken populations in the BAS representation
 (as contrasted to the SFO representation).

 Notes:
 1. The functions are characterized by a polynomial prefactor (powers of x,y,z and r) and
    an exponential decay factor alpha.
 2. Since the basis sets are specific for an atom TYPE, the individual functions occur on
    all atoms of that type.
 3. The word 'Core' in the left margin signals that it is a Core Function (CF) : not a
    degree of freedom in the valence set, but only used to ensure orthogonalization of
    the other valence basis functions on the frozen Core Orbitals.


 (power of) X  Y  Z  R     Alpha  on Atom
            ==========     =====     ==========

 Ni                                   1
                                  ---------------------------------------------------------------------------
            0  0  0  0    33.000      1
            0  0  0  0    25.900      2
            0  0  0  1    10.950      3
            0  0  0  1     7.150      4
            1  0  0  0    15.450      5
            0  1  0  0    15.450      6
            0  0  1  0    15.450      7
            1  0  0  0    10.000      8
            0  1  0  0    10.000      9
            0  0  1  0    10.000     10
            0  0  0  2     6.600     11
            0  0  0  2     4.000     12
            1  0  0  1     6.800     13
            0  1  0  1     6.800     14
            0  0  1  1     6.800     15
            1  0  0  1     4.500     16
            0  1  0  1     4.500     17
            0  0  1  1     4.500     18
            1  0  0  1     3.050     19
            0  1  0  1     3.050     20
            0  0  1  1     3.050     21
            2  0  0  0     7.000     22
            1  1  0  0     7.000     23
            1  0  1  0     7.000     24
            0  2  0  0     7.000     25
            0  1  1  0     7.000     26
            0  0  2  0     7.000     27
            2  0  0  0     3.350     28
            1  1  0  0     3.350     29
            1  0  1  0     3.350     30
            0  2  0  0     3.350     31
            0  1  1  0     3.350     32
            0  0  2  0     3.350     33
            2  0  0  0     1.540     34
            1  1  0  0     1.540     35
            1  0  1  0     1.540     36
            0  2  0  0     1.540     37
            0  1  1  0     1.540     38
            0  0  2  0     1.540     39
            0  0  0  3     2.450     40
            0  0  0  3     1.480     41
            0  0  0  3     0.940     42
            1  0  0  2     1.470     43
            0  1  0  2     1.470     44
            0  0  1  2     1.470     45
            3  0  0  0     2.300     46
            2  1  0  0     2.300     47
            2  0  1  0     2.300     48
            1  2  0  0     2.300     49
            1  1  1  0     2.300     50
            1  0  2  0     2.300     51
            0  3  0  0     2.300     52
            0  2  1  0     2.300     53
            0  1  2  0     2.300     54
            0  0  3  0     2.300     55
1
 ***************************************************************************************************



                                              ***********************
                                              *  T E C H N I C A L  *
                                              ***********************
  



 =============================================================
 P A R A L L E L I Z A T I O N  and  V E C T O R I Z A T I O N
 =============================================================
  
 Nr of parallel processes:                                1
 Maximum vector length in NumInt loops:                 128

 IO buffersize (Mb):                                     64.000000



 =====================
 S C F   U P D A T E S
 =====================
  
 Max. nr. of cycles:                               300
 Convergence criterion:                              0.0000000100
   secondary criterion:                              0.0000000100

 Mix parameter (when DIIS does not apply):           0.2000000000
 Special mix parameter for the first cycle:          1.0000000000
 Mixed ADIIS+DIIS will be used
    Max number of expansion vectors:                10
    Pure ADIIS when Max([F,P]) is above              0.1000000000
    Pure DIIS when Max([F,P]) is below               0.0010000000
 Automatic ElectronSmearing (in case of problematic SCF convergence) disabled



 =================
 P R E C I S I O N  ***  (General: NumInt, NeglectFunctionTails, ...)  ***
 =================
  

 NumInt:           Target precision:                12.0000000000
 -------           Initial precision:               10.0000000000
                   Min. precision (optimization):   10.0000000000

 Neglect Functions:          Basis functions:        0.1000000000E-13
 ------------------          Fit functions:          0.1000000000E-13



 ===========================
 L I N E A R   S C A L I N G
 ===========================
  

 Cut-off radii density fit:                        0.1000000000E-97
 Overlap cut-off criterion AO matrix elements:     0.1000000000E-97
 Cut-offs for Coulomb potential and fitted density:0.1000000000E-97
 Cut-off criterion for Coulomb multipole terms:    0.1000000000E-97
 Progressive Convergence parameter:                 0.000000000    
1
 ***************************************************************************************************



                                            ***************************
                                            *  C O M P U T A T I O N  *
                                            ***************************
  

 Number of elements of the density matrix on this node (used, total):      1540      1540



 ===========================================
 Numerical Integration : Fuzzy Cells (Becke)
 ===========================================
  
 Becke grid quality: VERYGOOD       
  
 Lebedev angular grid order:             min:  13 max:  41
 Nr. of radial points:                   min: 102 max: 102

 Total nr. of points:        102
 Nr. of blocks:                1
 Block length:               102
 Nr. of dummy points:          0


 Test of Precision of the Numerical Integration Grid
 ===================================================

 Integral of the Total Core Density:                   0.00000000000000



 ========================
 Density Fitting (zlmFit)
 ========================
  
 ZlmFit Fit Quality: VERYGOOD       
  
 Max L-expansion:                        min:   0 max:   0
 Nr. of radial interpolation points:     min: 240 max: 240



 =====
 S C F  ***  ScaSCF  ***
 =====
  

 CYCLE    1
 SCF Error: norm([F,P])=      0.000000000000, max([F,P])=      0.000000000000
 orbitals (Q,E):
 ---------------
 S :1...9            ( 2.00  -391.9892)  ( 2.00   -97.9812)  ( 2.00   -43.4557)  ( 1.00   -24.0828)
                     ( 0.00   -14.4359)  ( 0.00    -9.0196)  ( 0.00    -6.3314)  ( 0.00    -4.2879)
                     ( 0.00   528.0926)
 P :1...6            ( 6.00   -97.9725)  ( 6.00   -43.2980)  ( 0.00   -24.0873)  ( 0.00   -14.8413)
                     ( 0.00    -8.1344)  ( 0.00    16.0733)
 D :1...3            ( 9.00   -41.5527)  ( 0.00   -21.2384)  ( 0.00   -10.4488)
 F :1...1            ( 0.00   -13.4550)

 CYCLE    2
  SDIIS (wt  0.000):  1.0000  0.0000
 A-DIIS (wt  1.000):  0.0000  1.0000
  DIIS coefficients:  0.0000  1.0000
 SCF Error: norm([F,P])=     82.198834740606, max([F,P])=     20.431205655741
 orbitals (Q,E):
 ---------------
 S :1...5            ( 2.00  -269.6367)  ( 2.00   -16.6630)  ( 2.00    -0.0459)  ( 1.00     0.1138)
                     ( 0.00     0.6433)
 P :1...3            ( 6.00   -10.9428)  ( 6.00     0.1753)  ( 0.00     1.3051)
 D :1...2            ( 9.00     0.7592)  ( 0.00     4.4039)
 F :1...1            ( 0.00     2.3357)

 CYCLE    3
  SDIIS (wt  0.000):  0.1533  0.8467
 A-DIIS (wt  1.000):  0.4137  0.5863
  DIIS coefficients:  0.4137  0.5863
 SCF Error: norm([F,P])=     31.271083467751, max([F,P])=      9.044852736597
 orbitals (Q,E):
 ---------------
 S :1...5            ( 2.00  -299.8931)  ( 2.00   -38.0754)  ( 2.00    -7.5313)  ( 1.00    -1.6288)
                     ( 0.00    -0.1376)
 P :1...3            ( 6.00   -33.4286)  ( 6.00    -6.1098)  ( 0.00    -1.1726)
 D :1...2            ( 9.00    -3.6881)  ( 0.00    -0.4262)
 F :1...1            ( 0.00     0.0258)

 CYCLE    4
  SDIIS (wt  0.000):  0.0026  0.0278  0.9696
 A-DIIS (wt  1.000):  0.0000  0.0171  0.9829
  DIIS coefficients:  0.0000  0.0171  0.9829
 SCF Error: norm([F,P])=      6.647407159329, max([F,P])=      1.687182188859
 orbitals (Q,E):
 ---------------
 S :1...5            ( 2.00  -295.2830)  ( 2.00   -32.0889)  ( 2.00    -2.0341)  ( 1.00    -0.0101)
                     ( 0.00     0.1972)
 P :1...3            ( 6.00   -27.5848)  ( 6.00    -0.7878)  ( 0.00     0.2067)
 D :1...2            ( 9.00     0.5663)  ( 0.00     1.8057)
 F :1...1            ( 0.00     1.9715)

 CYCLE    5
  SDIIS (wt  0.000):  0.0064 -0.0365  0.7040  0.3260
 A-DIIS (wt  1.000):  0.0000  0.0000  0.7633  0.2367
  DIIS coefficients:  0.0000  0.0000  0.7633  0.2367
 SCF Error: norm([F,P])=     12.980079057770, max([F,P])=      3.408755333926
 orbitals (Q,E):
 ---------------
 S :1...5            ( 2.00  -297.8850)  ( 2.00   -34.5523)  ( 2.00    -3.4747)  ( 1.00    -0.1220)
                     ( 0.00     0.0972)
 P :1...3            ( 6.00   -30.0824)  ( 6.00    -2.1283)  ( 0.00     0.0586)
 D :1...2            ( 9.00     0.0311)  ( 0.00     0.7664)
 F :1...1            ( 0.00     1.6080)

 CYCLE    6
  SDIIS (wt  0.000):  0.0051 -0.0072  0.3030 -0.0946  0.7937
 A-DIIS (wt  1.000):  0.0000  0.0000  0.2462  0.0000  0.7538
  DIIS coefficients:  0.0000  0.0000  0.2462  0.0000  0.7538
 SCF Error: norm([F,P])=      3.957322049884, max([F,P])=      1.341541274099
 orbitals (Q,E):
 ---------------
 S :1...5            ( 2.00  -299.1440)  ( 2.00   -35.8138)  ( 2.00    -4.1206)  ( 1.00    -0.1841)
                     ( 0.00     0.0656)
 P :1...3            ( 6.00   -31.3578)  ( 6.00    -2.7473)  ( 0.00     0.0053)
 D :1...2            ( 9.00    -0.4557)  ( 0.00     0.5622)
 F :1...1            ( 0.00     1.5104)

 CYCLE    7
  SDIIS (wt  0.000): -0.0032  0.0054 -0.0445 -0.0287  0.4711  0.5998
 A-DIIS (wt  1.000):  0.0000  0.0000  0.0000  0.0000  0.4265  0.5735
  DIIS coefficients:  0.0000  0.0000  0.0000  0.0000  0.4265  0.5735
 SCF Error: norm([F,P])=      3.204203490729, max([F,P])=      0.989879423632
 orbitals (Q,E):
 ---------------
 S :1...5            ( 2.00  -298.2809)  ( 2.00   -35.0987)  ( 2.00    -3.7362)  ( 1.00    -0.1498)
                     ( 0.00     0.0760)
 P :1...3            ( 6.00   -30.6186)  ( 6.00    -2.3748)  ( 0.00     0.0310)
 D :1...2            ( 9.00    -0.1433)  ( 0.00     0.6600)
 F :1...1            ( 0.00     1.5826)

 CYCLE    8
  SDIIS (wt  0.132): -0.0000  0.0000 -0.0105 -0.0002  0.0035  0.1045  0.9026
 A-DIIS (wt  0.868):  0.0000  0.0000  0.0000  0.0000  0.0000  0.0000  1.0000
  DIIS coefficients: -0.0000  0.0000 -0.0014 -0.0000  0.0005  0.0138  0.9872
 SCF Error: norm([F,P])=      0.297545993066, max([F,P])=      0.086976938267
 orbitals (Q,E):
 ---------------
 S :1...5            ( 2.00  -298.5045)  ( 2.00   -35.2749)  ( 2.00    -3.8123)  ( 1.00    -0.1587)
                     ( 0.00     0.0707)
 P :1...3            ( 6.00   -30.8025)  ( 6.00    -2.4481)  ( 0.00     0.0226)
 D :1...2            ( 9.00    -0.2013)  ( 0.00     0.6344)
 F :1...1            ( 0.00     1.5697)

 CYCLE    9
  SDIIS (wt  0.000): -0.0000  0.0002  0.0015 -0.0009  0.0590 -0.0778  0.1842  0.8339
 A-DIIS (wt  1.000):  0.0000  0.0000  0.0000  0.0000  0.0000  0.0000  0.7826  0.2174
  DIIS coefficients:  0.0000  0.0000  0.0000  0.0000  0.0000  0.0000  0.7826  0.2174
 SCF Error: norm([F,P])=      0.619771058438, max([F,P])=      0.204016809046
 orbitals (Q,E):
 ---------------
 S :1...5            ( 2.00  -298.4171)  ( 2.00   -35.1971)  ( 2.00    -3.7691)  ( 1.00    -0.1544)
                     ( 0.00     0.0727)
 P :1...3            ( 6.00   -30.7229)  ( 6.00    -2.4063)  ( 0.00     0.0263)
 D :1...2            ( 9.00    -0.1675)  ( 0.00     0.6476)
 F :1...1            ( 0.00     1.5786)

 CYCLE   10
  SDIIS (wt  0.406): -0.0000  0.0000  0.0000  0.0002 -0.0074  0.0171  0.1846 -0.4057  1.2112
 A-DIIS (wt  0.594):  0.0000  0.0000  0.0000  0.0000  0.0000  0.0000  0.3791  0.0000  0.6209
  DIIS coefficients: -0.0000  0.0000  0.0000  0.0001 -0.0030  0.0069  0.3001 -0.1648  0.8606
 SCF Error: norm([F,P])=      0.185105282436, max([F,P])=      0.059790280662
 orbitals (Q,E):
 ---------------
 S :1...5            ( 2.00  -298.3699)  ( 2.00   -35.1589)  ( 2.00    -3.7511)  ( 1.00    -0.1532)
                     ( 0.00     0.0732)
 P :1...3            ( 6.00   -30.6832)  ( 6.00    -2.3890)  ( 0.00     0.0273)
[...]
 Contributions from frequencies below 20 1/cm are not included in
 the vibrational sums. Their contributions, if any, are reported separately.


     Temp                                                       Transl     Rotat    Vibrat     Total
     ----                                                       ------     -----    ------     -----

     298.15   Entropy (cal/mole-K):                             41.298    25.160    33.052    99.510
              Internal Energy (Kcal/mole):                       0.889     0.889    23.692    25.470
              Constant Volume Heat Capacity (cal/mole-K):        2.981     2.981    27.705    33.667

              Summary of energy terms
                                                   hartree              eV         kcal/mol           kJ/mol
                                      --------------------     -----------       ----------      -----------
              Bond Energy:              -2.388325623815772        -64.9896         -1498.70         -6270.55
              Internal Energy:           0.040588451323531          1.1045            25.47           106.56
              pV/n = RT:                 0.000944186013486          0.0257             0.59             2.48
              Enthalpy H:               -2.346792986478755        -63.8595         -1472.63         -6161.50
              -T*S:                     -0.047280580789203         -1.2866           -29.67          -124.14
              Gibbs free energy:        -2.394073567267959        -65.1461         -1502.30         -6285.64
 

 ***************************************************************************************************
 


====================================================================
*** DONE CALCULATING ANALYTICAL SECOND DERIVATIVES OF THE ENERGY ***
====================================================================

 
 
 ========================
 No memory problems found
 ========================
 
 Maximum number of active allocate calls:        2290
 
 *******************************************************************************

                             A D F   E X I T
 NORMAL TERMINATION



 =================
 Timing Statistics
 =================
  
 Total Used :                     CPU=       77.32      System=        1.29     Elapsed=       78.78

 Calls  Section                     ( Mean, Percentage )
 ---------------------------------------------------------------------------------------------------
     3  ><      ................      0.00    0.00             0.00    0.00             0.00    0.00
     1  INIT    ................      0.46    0.60             0.02    1.40             0.48    0.61
     1  GEOMET  ................      0.04    0.05             0.01    0.70             0.05    0.06
     1  FRAGM   ................      0.03    0.03             0.01    0.62             0.04    0.04
     1  INPUTA  ................      0.00    0.00             0.00    0.00             0.00    0.00
     1  ATDEN   ................      0.01    0.01             0.00    0.16             0.01    0.01
     3  MAINSY  ................      0.02    0.09             0.01    3.42             0.04    0.16
     3  SYMFIT  ................      0.00    0.02             0.00    0.00             0.00    0.01
     3  CORORT  ................      0.00    0.00             0.00    0.00             0.00    0.00
     3  SYMORB  ................      0.01    0.02             0.00    0.00             0.01    0.02
     3  CLSMAT  ................      0.02    0.06             0.00    0.08             0.02    0.06
     3  ORTHON  ................      0.01    0.05             0.01    2.02             0.02    0.09
     3  GENPT   ................      0.14    0.56             0.01    1.32             0.15    0.57
     3  PTBAS   ................      0.29    1.12             0.01    3.42             0.31    1.17
    29  FOCKY   ................      0.55   20.47             0.01   11.72             0.55   20.29
    29  FOCKTR  ................      0.01    0.27             0.01   12.58             0.01    0.50
    29  SDIIS   ................      0.00    0.08             0.00    1.55             0.00    0.12
     3  TOTEN   ................      1.26    4.88             0.01    3.34             1.27    4.85
     3  POPAN   ................      0.01    0.03             0.00    0.39             0.01    0.03
     3  DEBYE   ................      0.01    0.04             0.00    0.47             0.01    0.05
     3  INPUTE  ................      0.00    0.00             0.00    0.00             0.00    0.00
     3  SYMORE  ................      0.00    0.01             0.00    0.00             0.00    0.01
     5  ELNRGY  ................      0.61    3.94             0.00    1.01             0.61    3.88
     2  ENGRAD  ................      0.00    0.00             0.00    0.16             0.00    0.01
     1  COREPS  ................      0.41    0.53             0.01    0.62             0.42    0.53
     1  METS    ................      0.00    0.00             0.00    0.00             0.00    0.00
     1  CETS    ................      0.01    0.01             0.00    0.23             0.01    0.02
     1  POPUL   ................      0.02    0.02             0.00    0.00             0.02    0.02
     1  ENHESS  ................     51.85   67.06             0.70   54.04            52.65   66.83
     1  EXIT PROCEDURE .........      0.03    0.04             0.01    0.78             0.04    0.05


 Currently Open Files (EXIT00)
 ====================

 Unit    Access Format  Status   Type       Ident (file)
 -------------------------------------------------------
   3      SEQ    FORM   TRANSP  NORMAL      LOGFILE
                                          ( logfile )


 Buffered I/O statistics
 =======================
 Memory available:                     67108864
 Number of records fitting in memory:     16131
 Input :   0.2% of                       654165  *4k bytes
 Output:   8.9% of                        36663  *4k bytes
 Records from serial files evicted:           0
                    others evicted:           0
 Hash table lookups:    1793814 with       4844 conflicts (  0.27%)

 ***************************************************************************************************
 (LOGFILE)
 <Apr25-2019> <15:26:41>  ADF development version  RunTime: Apr25-2019 15:26:41  Nodes: 1  Procs: 1
 <Apr25-2019> <15:26:41>  Oxygen (TZ2P)
 <Apr25-2019> <15:26:41>  RunType   : CREATE
 <Apr25-2019> <15:26:41>  Net Charge: 0 (Nuclei minus Electrons)
 <Apr25-2019> <15:26:41>  Symmetry  : ATOM
  Coordinates
    Atom         X           Y           Z   (Angstrom)
    1.O         0.000000    0.000000    0.000000
 <Apr25-2019> <15:26:41>  >>>> CORORT
 <Apr25-2019> <15:26:41>  >>>> CLSMAT
 <Apr25-2019> <15:26:41>  >>>> ORTHON
 <Apr25-2019> <15:26:41>  >>>> GENPT
 <Apr25-2019> <15:26:41>  Block Length=  68
 <Apr25-2019> <15:26:41>  >>>> PTBAS
 <Apr25-2019> <15:26:41>  >>>> CYCLE
 <Apr25-2019> <15:26:41>              |Error|         MaxErr       Wt(A-DIIS)
 <Apr25-2019> <15:26:41>      1      0.00000000      0.00000000
 <Apr25-2019> <15:26:41>      2      8.76574541      5.51803131    100.0
 <Apr25-2019> <15:26:41>      3      3.58549945      2.49941011    100.0
 <Apr25-2019> <15:26:41>      4      1.14791911      0.58301962    100.0
 <Apr25-2019> <15:26:41>      5      1.51958547      0.84054201    100.0
 <Apr25-2019> <15:26:41>      6      0.17882893      0.10424203    100.0
 <Apr25-2019> <15:26:41>      7      0.20012529      0.11364913    100.0
 <Apr25-2019> <15:26:41>      8      0.01695178      0.00994720      9.0
 <Apr25-2019> <15:26:41>      9      0.00174843      0.00098437      0.0
 <Apr25-2019> <15:26:41>     10      0.00000143      0.00000071      0.0
 <Apr25-2019> <15:26:41>     11      0.00000005      0.00000002      0.0
 <Apr25-2019> <15:26:41>     12      0.00000000      0.00000000      0.0
 <Apr25-2019> <15:26:41>  SCF converged
 <Apr25-2019> <15:26:41>     13      0.00000000      0.00000000      0.0
 <Apr25-2019> <15:26:41>  >>>> POPAN
 <Apr25-2019> <15:26:41>  >>>> DEBYE
 <Apr25-2019> <15:26:41>  NORMAL TERMINATION
 <Apr25-2019> <15:26:41>  END
 <Apr25-2019> <15:26:41>  ADF development version  RunTime: Apr25-2019 15:26:41  Nodes: 1  Procs: 1
 <Apr25-2019> <15:26:41>  Carbon (TZ2P)
 <Apr25-2019> <15:26:41>  RunType   : CREATE
 <Apr25-2019> <15:26:41>  Net Charge: 0 (Nuclei minus Electrons)
 <Apr25-2019> <15:26:41>  Symmetry  : ATOM
  Coordinates
    Atom         X           Y           Z   (Angstrom)
    1.C         0.000000    0.000000    0.000000
 <Apr25-2019> <15:26:41>  >>>> CORORT
 <Apr25-2019> <15:26:41>  >>>> CLSMAT
 <Apr25-2019> <15:26:41>  >>>> ORTHON
 <Apr25-2019> <15:26:41>  >>>> GENPT
 <Apr25-2019> <15:26:41>  Block Length=  72
 <Apr25-2019> <15:26:41>  >>>> PTBAS
 <Apr25-2019> <15:26:41>  >>>> CYCLE
 <Apr25-2019> <15:26:41>              |Error|         MaxErr       Wt(A-DIIS)
 <Apr25-2019> <15:26:41>      1      0.00000000      0.00000000
 <Apr25-2019> <15:26:41>      2      4.48031974      3.32884133    100.0
 <Apr25-2019> <15:26:41>      3      1.63678889      1.31529535    100.0
 <Apr25-2019> <15:26:42>      4      0.72226765      0.58081551    100.0
 <Apr25-2019> <15:26:42>      5      0.41279476      0.32864204    100.0
 <Apr25-2019> <15:26:42>      6      0.12664316      0.09684749     96.8
 <Apr25-2019> <15:26:42>      7      0.11556823      0.09012376     90.0
 <Apr25-2019> <15:26:42>      8      0.00662928      0.00514089      4.2
 <Apr25-2019> <15:26:42>      9      0.00021574      0.00016342      0.0
 <Apr25-2019> <15:26:42>     10      0.00000195      0.00000132      0.0
 <Apr25-2019> <15:26:42>     11      0.00000002      0.00000002      0.0
 <Apr25-2019> <15:26:42>     12      0.00000000      0.00000000      0.0
 <Apr25-2019> <15:26:42>  SCF converged
 <Apr25-2019> <15:26:42>     13      0.00000000      0.00000000      0.0
 <Apr25-2019> <15:26:42>  >>>> POPAN
 <Apr25-2019> <15:26:42>  >>>> DEBYE
 <Apr25-2019> <15:26:42>  NORMAL TERMINATION
 <Apr25-2019> <15:26:42>  END
 <Apr25-2019> <15:26:42>  ADF development version  RunTime: Apr25-2019 15:26:42  Nodes: 1  Procs: 1
 <Apr25-2019> <15:26:42>  Nickel (TZ2P)
 <Apr25-2019> <15:26:42>  RunType   : CREATE
 <Apr25-2019> <15:26:42>  Net Charge: 0 (Nuclei minus Electrons)
 <Apr25-2019> <15:26:42>  Symmetry  : ATOM
  Coordinates
    Atom         X           Y           Z   (Angstrom)
    1.Ni        0.000000    0.000000    0.000000
 <Apr25-2019> <15:26:42>  >>>> CORORT
 <Apr25-2019> <15:26:42>  >>>> CLSMAT
 <Apr25-2019> <15:26:42>  >>>> ORTHON
 <Apr25-2019> <15:26:42>  >>>> GENPT
 <Apr25-2019> <15:26:42>  Block Length= 102
 <Apr25-2019> <15:26:42>  >>>> PTBAS
 <Apr25-2019> <15:26:42>  >>>> CYCLE
 <Apr25-2019> <15:26:42>              |Error|         MaxErr       Wt(A-DIIS)
 <Apr25-2019> <15:26:42>      1      0.00000000      0.00000000
 <Apr25-2019> <15:26:42>      2     82.19883474     20.43120566    100.0
 <Apr25-2019> <15:26:42>      3     31.27108347      9.04485274    100.0
 <Apr25-2019> <15:26:42>      4      6.64740716      1.68718219    100.0
 <Apr25-2019> <15:26:42>      5     12.98007906      3.40875533    100.0
 <Apr25-2019> <15:26:42>      6      3.95732205      1.34154127    100.0
 <Apr25-2019> <15:26:42>      7      3.20420349      0.98987942    100.0
 <Apr25-2019> <15:26:42>      8      0.29754599      0.08697694     86.8
 <Apr25-2019> <15:26:42>      9      0.61977106      0.20401681    100.0
 <Apr25-2019> <15:26:42>     10      0.18510528      0.05979028     59.4
 <Apr25-2019> <15:26:43>     11      0.02669629      0.00945217      8.5
 <Apr25-2019> <15:26:43>     12      0.00627842      0.00214057      1.2
 <Apr25-2019> <15:26:43>     13      0.00014922      0.00005132      0.0
 <Apr25-2019> <15:26:43>     14      0.00000005      0.00000002      0.0
 <Apr25-2019> <15:26:43>     15      0.00000000      0.00000000      0.0
 <Apr25-2019> <15:26:43>  SCF converged
 <Apr25-2019> <15:26:43>     16      0.00000000      0.00000000      0.0
 <Apr25-2019> <15:26:43>  >>>> POPAN
 <Apr25-2019> <15:26:43>  >>>> DEBYE
 <Apr25-2019> <15:26:43>  NORMAL TERMINATION
 <Apr25-2019> <15:26:43>  END
 <Apr25-2019> <15:26:43>  ADF development version  RunTime: Apr25-2019 15:26:43  Nodes: 1  Procs: 12
 <Apr25-2019> <15:26:43>  *** (NO TITLE) ***
 <Apr25-2019> <15:26:43>  RunType   : GEOMETRY OPTIMIZATION
 <Apr25-2019> <15:26:43>  Net Charge: 0 (Nuclei minus Electrons)
 <Apr25-2019> <15:26:43>  Symmetry  : T(D)
 <Apr25-2019> <15:26:43>  >>>> FRAGM
  Coordinates in Geometry Cycle 1
    Atom         X           Y           Z   (Angstrom)
    1.Ni        0.000000    0.000000    0.000000
    2.C         1.072010   -1.072010    1.072010
    3.O         1.736000   -1.736000    1.736000
    4.C         1.072010    1.072010   -1.072010
    5.O         1.736000    1.736000   -1.736000
    6.C        -1.072010    1.072010    1.072010
    7.O        -1.736000    1.736000    1.736000
    8.C        -1.072010   -1.072010   -1.072010
    9.O        -1.736000   -1.736000   -1.736000
 <Apr25-2019> <15:26:44>  >>>> CORORT
 <Apr25-2019> <15:26:44>  >>>> CLSMAT
 <Apr25-2019> <15:26:44>  >>>> ORTHON
 <Apr25-2019> <15:26:44>  >>>> GENPT
 <Apr25-2019> <15:26:44>  Block Length= 128
 <Apr25-2019> <15:26:44>  >>>> PTBAS
 <Apr25-2019> <15:26:44>  >>>> CYCLE
 <Apr25-2019> <15:26:45>              |Error|         MaxErr       Wt(A-DIIS)
 <Apr25-2019> <15:26:45>      1      7.19213224      1.57025533
 <Apr25-2019> <15:26:45>      2      5.84054284      1.23530682    100.0
 <Apr25-2019> <15:26:46>      3      4.72066179      1.12684841    100.0
 <Apr25-2019> <15:26:46>      4      0.92230252      0.16707549    100.0
 <Apr25-2019> <15:26:47>      5      2.10968222      0.35705701    100.0
 <Apr25-2019> <15:26:48>      6      1.45532245      0.32903122    100.0
 <Apr25-2019> <15:26:48>      7      2.05509785      0.50782117    100.0
 <Apr25-2019> <15:26:49>      8      0.22483424      0.04771576     47.2
 <Apr25-2019> <15:26:49>      9      0.48750933      0.11736860    100.0
 <Apr25-2019> <15:26:50>     10      0.22151166      0.04866765     48.1
 <Apr25-2019> <15:26:50>     11      0.23834133      0.05623053     48.1
 <Apr25-2019> <15:26:51>     12      0.04664905      0.01161511     10.7
 <Apr25-2019> <15:26:51>     13      0.01407832      0.00341662      2.4
 <Apr25-2019> <15:26:52>     14      0.00127061      0.00032046      0.0
 <Apr25-2019> <15:26:53>     15      0.00002068      0.00000516      0.0
 <Apr25-2019> <15:26:53>     16      0.00000057      0.00000014      0.0
 <Apr25-2019> <15:26:53>  SCF converged
 <Apr25-2019> <15:26:54>     17      0.00000006      0.00000001      0.0
 <Apr25-2019> <15:26:54>  >>>> TOTEN
 <Apr25-2019> <15:26:55>  >>>> POPAN
 <Apr25-2019> <15:26:55>  >>>> DEBYE
 <Apr25-2019> <15:26:55>  >>>> ENGRAD
 <Apr25-2019> <15:26:56>  current energy                               -2.38832837 Hartree
 <Apr25-2019> <15:26:56>  energy change                      -2.38832837     0.00010000    F
 <Apr25-2019> <15:26:56>  constrained gradient max            0.00025110     0.00010000    F
 <Apr25-2019> <15:26:56>  constrained gradient rms            0.00017586     0.00006667    F
 <Apr25-2019> <15:26:56>  gradient max                        0.00025110
 <Apr25-2019> <15:26:56>  gradient rms                        0.00017586
 <Apr25-2019> <15:26:56>  cart. step max                      0.00012345     0.01000000    T
 <Apr25-2019> <15:26:56>  cart. step rms                      0.00009555     0.00666667    T
  Coordinates in Geometry Cycle 2
    Atom         X           Y           Z   (Angstrom)
    1.Ni        0.000000    0.000000    0.000000
    2.C         1.072083   -1.072083    1.072083
    3.O         1.736123   -1.736123    1.736123
    4.C         1.072083    1.072083   -1.072083
    5.O         1.736123    1.736123   -1.736123
    6.C        -1.072083    1.072083    1.072083
    7.O        -1.736123    1.736123    1.736123
    8.C        -1.072083   -1.072083   -1.072083
    9.O        -1.736123   -1.736123   -1.736123
 <Apr25-2019> <15:26:56>  >>>> CORORT
 <Apr25-2019> <15:26:56>  >>>> CLSMAT
 <Apr25-2019> <15:26:56>  >>>> ORTHON
 <Apr25-2019> <15:26:56>  >>>> GENPT
 <Apr25-2019> <15:26:56>  Block Length= 128
 <Apr25-2019> <15:26:56>  >>>> PTBAS
 <Apr25-2019> <15:26:57>  >>>> CYCLE
 <Apr25-2019> <15:26:57>              |Error|         MaxErr       Wt(A-DIIS)
 <Apr25-2019> <15:26:57>      1      0.00131234      0.00038161
 <Apr25-2019> <15:26:58>      2      0.00108576      0.00026158    100.0
 <Apr25-2019> <15:26:59>      3      0.01340508      0.00331326    100.0
 <Apr25-2019> <15:26:59>      4      0.00593800      0.00145555    100.0
 <Apr25-2019> <15:27:00>      5      0.00219460      0.00053009      0.0
 <Apr25-2019> <15:27:00>      6      0.00002520      0.00000629      0.0
 <Apr25-2019> <15:27:01>      7      0.00001520      0.00000382      0.0
 <Apr25-2019> <15:27:01>      8      0.00000171      0.00000044      0.0
 <Apr25-2019> <15:27:01>  SCF converged
 <Apr25-2019> <15:27:02>      9      0.00000021      0.00000005      0.0
 <Apr25-2019> <15:27:02>  >>>> TOTEN
 <Apr25-2019> <15:27:03>  >>>> POPAN
 <Apr25-2019> <15:27:03>  >>>> DEBYE
 <Apr25-2019> <15:27:03>  >>>> ENGRAD
 <Apr25-2019> <15:27:04>  current energy                               -2.38832563 Hartree
 <Apr25-2019> <15:27:04>  energy change                       0.00000274     0.00010000    T
 <Apr25-2019> <15:27:04>  constrained gradient max            0.00007944     0.00010000    T
 <Apr25-2019> <15:27:04>  constrained gradient rms            0.00006291     0.00006667    T
 <Apr25-2019> <15:27:04>  gradient max                        0.00007944
 <Apr25-2019> <15:27:04>  gradient rms                        0.00006291
 <Apr25-2019> <15:27:04>  cart. step max                      0.00016427     0.01000000    T
 <Apr25-2019> <15:27:04>  cart. step rms                      0.00013959     0.00666667    T
 <Apr25-2019> <15:27:04>  GEOMETRY CONVERGED
 <Apr25-2019> <15:27:04>  Calculating Energy Terms for Final Geometry
  Coordinates in Geometry Cycle 2
    Atom         X           Y           Z   (Angstrom)
    1.Ni        0.000000    0.000000    0.000000
    2.C         1.072083   -1.072083    1.072083
    3.O         1.736123   -1.736123    1.736123
    4.C         1.072083    1.072083   -1.072083
    5.O         1.736123    1.736123   -1.736123
    6.C        -1.072083    1.072083    1.072083
    7.O        -1.736123    1.736123    1.736123
    8.C        -1.072083   -1.072083   -1.072083
    9.O        -1.736123   -1.736123   -1.736123
 <Apr25-2019> <15:27:04>  >>>> CORORT
 <Apr25-2019> <15:27:04>  >>>> CLSMAT
 <Apr25-2019> <15:27:04>  >>>> ORTHON
 <Apr25-2019> <15:27:04>  >>>> GENPT
 <Apr25-2019> <15:27:04>  Block Length= 128
 <Apr25-2019> <15:27:05>  >>>> PTBAS
 <Apr25-2019> <15:27:05>  >>>> CYCLE
 <Apr25-2019> <15:27:06>              |Error|         MaxErr       Wt(A-DIIS)
 <Apr25-2019> <15:27:06>      1      0.00000001      0.00000000
 <Apr25-2019> <15:27:06>      2      0.00000008      0.00000002    100.0
 <Apr25-2019> <15:27:06>  SCF converged
 <Apr25-2019> <15:27:07>      3      0.00000102      0.00000021    100.0
 <Apr25-2019> <15:27:07>  >>>> TOTEN
 <Apr25-2019> <15:27:09>  >>>> POPAN
 <Apr25-2019> <15:27:09>  >>>> DEBYE
 <Apr25-2019> <15:27:09>  >>>> AMETS
 <Apr25-2019> <15:27:09>  >>>> POPUL
 <Apr25-2019> <15:27:09>   Bond Energy          -2.38832562 a.u.
 <Apr25-2019> <15:27:09>   Bond Energy         -64.98964692 eV
 <Apr25-2019> <15:27:09>   Bond Energy       -1498.70       kcal/mol
 <Apr25-2019> <15:27:09>  >>>> ENHESS
 <Apr25-2019> <15:27:09>  === NUCLEUS:     1
 <Apr25-2019> <15:27:24>  === NUCLEUS:     2
 <Apr25-2019> <15:27:41>  === NUCLEUS:     6
 <Apr25-2019> <15:27:58>  >>>> CALC_HESS_PMAT
 <Apr25-2019> <15:28:01>  >>>> CALC_HESS_WMAT
 <Apr25-2019> <15:28:02>  NORMAL TERMINATION
 <Apr25-2019> <15:28:02>  END
