
Create Al   file=TZ2P-Al
XC
  GGA blyp
End
End Input

 *******************************************************************************
 *                                                                             *
 *  -------------------------------------                                      *
 *   Amsterdam Density Functional  (ADF)         2017                          *
 *  -------------------------------------                                      *
 *                                               r58813 2017-04-12             *
 *                                                                             *
 *                                                                             *
 *                              =================                              *
 *                              |               |                              *
 *                              |     A D F     |                              *
 *                              |               |                              *
 *                              =================                              *
 *                                                                             *
 *                                                                             *
 *   Online information and documentation:  https://www.scm.com/support/       *
 *   E-mail:  support@scm.com   info@scm.com                                   *
 *                                                                             *
 *   Scientific publications using ADF results must be properly referenced     *
 *   See the User Manuals (or the web site) for recommended citations          *
 *   The terms and conditions of the End User License Agreement apply to       *
 *   the use of ADF, https://www.scm.com/license-terms/                        *
 *                                                                             *
 **********************  x86_64_linux_intel / intelmpi  ************************
 
 Licensed to: VU/FEW (+ SARA) / ALGEMEEN / Amsterdam / THE NETHERLANDS
 SCM User ID: u7668
  
 ADF 2017  RunTime: May19-2019 11:19:14  Nodes: 1  Procs: 1

 Temporary files are created in /local/datastore0/tcst25/190757/kid_0.6h6Nsb

 Aluminium (TZ2P)



 ===========================
 A T T A C H E D   F I L E S
 ===========================
  
 CREATE - Data File:    TZ2P-Al
                        Aluminium (TZ2P)



 ===============================
 M O D E L   P A R A M E T E R S
 ===============================
  
 DENSITY FUNCTIONAL POTENTIAL (scf)
    LDA:                               Exchange only                           == Not Default ==
    Gradient Corrections:              Becke88 LYP                             == Not Default ==

 SPIN  (restricted / unrestr.)
    Molecule:                          Restricted                               

 OTHER ASPECTS
    Relativistic Corrections:          ---                                      

    Nuclear Charge Density Model:      Point Charge Nuclei                      
    Core Treatment:                    Frozen Orbital(s)                        

    Hyperfine or Zeeman Interaction:   ---                                      



 =====================================
 S Y M M E T R Y ,   E L E C T R O N S
 =====================================
  
 Symmetry: ATOM

 Irreducible Representations, including subspecies
 -------------------------------------------------
 S
 P:x  P:y  P:z
 D:z2  D:x2-y2  D:xy  D:xz  D:yz
 F:z3  F:z  F:xyz  F:z2x  F:z2y  F:x  F:y


 Configuration of Valence Electrons
 ==================================

          Occupation Numbers
          -------------------------------------------------
 S        3*2
 P        6 1
 D        0
 F        0
          -------------------------------------------------

 Total:   13

 Net Charge: 0 (Nuclei minus Electrons)

 Preset values for MO occupations will be applied through SCF cycle no. 1000000
 Thereafter, the program will assign electrons to MOs that are spatially
 similar to the occupied MOs in a "reference" cycle ("KeepOrbitals").
 The reference cycle is always the PREVIOUS cycle: it will evolve with
 the SCF procedure.



 ================================
 (Slater-type)  F U N C T I O N S  ***  (Basis and Fit)  ***
 ================================
  

 Atom Type    1  (Al)
 ==============

 Valence Basis Sets:  14
 -----------------------
   1 S   15.900000
   1 S   11.500000
   2 S    4.800000
   2 S    3.300000
   2 P    6.300000
   2 P    3.200000
   3 S    2.000000
   3 S    1.350000
   3 S    0.950000
   3 P    1.650000
   3 P    0.950000
   3 P    0.580000
   3 D    1.600000
   4 F    1.750000


 BAS: List of all Elementary Cartesian Basis Functions
 =====================================================

 The numbering in the list below (to the right of the function characteristics) is referred
 to in print-outs of MO eigenvectors and Mulliken populations in the BAS representation
 (as contrasted to the SFO representation).

 Notes:
 1. The functions are characterized by a polynomial prefactor (powers of x,y,z and r) and
    an exponential decay factor alpha.
 2. Since the basis sets are specific for an atom TYPE, the individual functions occur on
    all atoms of that type.
 3. The word 'Core' in the left margin signals that it is a Core Function (CF) : not a
    degree of freedom in the valence set, but only used to ensure orthogonalization of
    the other valence basis functions on the frozen Core Orbitals.


 (power of) X  Y  Z  R     Alpha  on Atom
            ==========     =====     ==========

 Al                                   1
                                  ---------------------------------------------------------------------------
            0  0  0  0    15.900      1
            0  0  0  0    11.500      2
            0  0  0  1     4.800      3
            0  0  0  1     3.300      4
            1  0  0  0     6.300      5
            0  1  0  0     6.300      6
            0  0  1  0     6.300      7
            1  0  0  0     3.200      8
            0  1  0  0     3.200      9
            0  0  1  0     3.200     10
            0  0  0  2     2.000     11
            0  0  0  2     1.350     12
            0  0  0  2     0.950     13
            1  0  0  1     1.650     14
            0  1  0  1     1.650     15
            0  0  1  1     1.650     16
            1  0  0  1     0.950     17
            0  1  0  1     0.950     18
            0  0  1  1     0.950     19
            1  0  0  1     0.580     20
            0  1  0  1     0.580     21
            0  0  1  1     0.580     22
            2  0  0  0     1.600     23
            1  1  0  0     1.600     24
            1  0  1  0     1.600     25
            0  2  0  0     1.600     26
            0  1  1  0     1.600     27
            0  0  2  0     1.600     28
            3  0  0  0     1.750     29
            2  1  0  0     1.750     30
            2  0  1  0     1.750     31
            1  2  0  0     1.750     32
            1  1  1  0     1.750     33
            1  0  2  0     1.750     34
            0  3  0  0     1.750     35
            0  2  1  0     1.750     36
            0  1  2  0     1.750     37
            0  0  3  0     1.750     38

 Total number of charge fitting functions (nprimf)       106
 Total number of Cartesian basis functions (naos)         38
 Total number of Cartesian core functions  (ncos)          0



 BAS: List of all Elementary Cartesian Basis Functions
 =====================================================

 The numbering in the list below (to the right of the function characteristics) is referred
 to in print-outs of MO eigenvectors and Mulliken populations in the BAS representation
 (as contrasted to the SFO representation).

 Notes:
 1. The functions are characterized by a polynomial prefactor (powers of x,y,z and r) and
    an exponential decay factor alpha.
 2. Since the basis sets are specific for an atom TYPE, the individual functions occur on
    all atoms of that type.
 3. The word 'Core' in the left margin signals that it is a Core Function (CF) : not a
    degree of freedom in the valence set, but only used to ensure orthogonalization of
    the other valence basis functions on the frozen Core Orbitals.


 (power of) X  Y  Z  R     Alpha  on Atom
            ==========     =====     ==========

 Al                                   1
                                  ---------------------------------------------------------------------------
            0  0  0  0    15.900      1
            0  0  0  0    11.500      2
            0  0  0  1     4.800      3
            0  0  0  1     3.300      4
            1  0  0  0     6.300      5
            0  1  0  0     6.300      6
            0  0  1  0     6.300      7
            1  0  0  0     3.200      8
            0  1  0  0     3.200      9
            0  0  1  0     3.200     10
            0  0  0  2     2.000     11
            0  0  0  2     1.350     12
            0  0  0  2     0.950     13
            1  0  0  1     1.650     14
            0  1  0  1     1.650     15
            0  0  1  1     1.650     16
            1  0  0  1     0.950     17
            0  1  0  1     0.950     18
            0  0  1  1     0.950     19
            1  0  0  1     0.580     20
            0  1  0  1     0.580     21
            0  0  1  1     0.580     22
            2  0  0  0     1.600     23
            1  1  0  0     1.600     24
            1  0  1  0     1.600     25
            0  2  0  0     1.600     26
            0  1  1  0     1.600     27
            0  0  2  0     1.600     28
            3  0  0  0     1.750     29
            2  1  0  0     1.750     30
            2  0  1  0     1.750     31
            1  2  0  0     1.750     32
            1  1  1  0     1.750     33
            1  0  2  0     1.750     34
            0  3  0  0     1.750     35
            0  2  1  0     1.750     36
            0  1  2  0     1.750     37
            0  0  3  0     1.750     38
1
 ***************************************************************************************************



                                              ***********************
                                              *  T E C H N I C A L  *
                                              ***********************
  



 =============================================================
 P A R A L L E L I Z A T I O N  and  V E C T O R I Z A T I O N
 =============================================================
  
 Nr of parallel processes:                                1
 Maximum vector length in NumInt loops:                 128

 IO buffersize (Mb):                                     64.000000



 =====================
 S C F   U P D A T E S
 =====================
  
 Max. nr. of cycles:                               300
 Convergence criterion:                              0.0000000100
   secondary criterion:                              0.0000000100

 Mix parameter (when DIIS does not apply):           0.2000000000
 Special mix parameter for the first cycle:          1.0000000000
 Mixed ADIIS+DIIS will be used
    Max number of expansion vectors:                10
    Pure ADIIS when Max([F,P]) is above              0.1000000000
    Pure DIIS when Max([F,P]) is below               0.0010000000
 Automatic ElectronSmearing (in case of problematic SCF convergence) disabled



 =================
 P R E C I S I O N  ***  (General: NumInt, NeglectFunctionTails, ...)  ***
 =================
  

 NumInt:           Target precision:                12.0000000000
 -------           Initial precision:               10.0000000000
                   Min. precision (optimization):   10.0000000000

 Neglect Functions:          Basis functions:        0.1000000000E-13
 ------------------          Fit functions:          0.1000000000E-13



 ===========================
 L I N E A R   S C A L I N G
 ===========================
  

 Cut-off radii density fit:                        0.1000000000E-97
 Overlap cut-off criterion AO matrix elements:     0.1000000000E-97
 Cut-offs for Coulomb potential and fitted density:0.1000000000E-97
 Cut-off criterion for Coulomb multipole terms:    0.1000000000E-97
 Progressive Convergence parameter:                 0.000000000    
1
 ***************************************************************************************************



                                            ***************************
                                            *  C O M P U T A T I O N  *
                                            ***************************
  

 Number of elements of the density matrix on this node (used, total):       741       741



 ===========================================
 Numerical Integration : Fuzzy Cells (Becke)
 ===========================================
  
 Becke grid quality: VERYGOOD       
  
 Lebedev angular grid order:             min:  13 max:  41
 Nr. of radial points:                   min:  85 max:  85

 Total nr. of points:         85
 Nr. of blocks:                1
 Block length:                85
 Nr. of dummy points:          0


 Test of Precision of the Numerical Integration Grid
 ===================================================

 Integral of the Total Core Density:                   0.00000000000000



 ========================
 Density Fitting (zlmFit)
 ========================
  
 ZlmFit Fit Quality: VERYGOOD       
  
 Max L-expansion:                        min:   0 max:   0
 Nr. of radial interpolation points:     min: 310 max: 310



 =====
 S C F  ***  ScaSCF  ***
 =====
  

 CYCLE    1
 SCF Error: norm([F,P])=      0.000000000000, max([F,P])=      0.000000000000
 orbitals (Q,E):
 ---------------
 S :1...7            ( 2.00   -84.4870)  ( 2.00   -21.0757)  ( 2.00    -9.3773)  ( 0.00    -5.2415)
                     ( 0.00    -3.2788)  ( 0.00    -2.0926)  ( 0.00    93.5784)
 P :1...5            ( 6.00   -21.1181)  ( 1.00    -9.3136)  ( 0.00    -5.0820)  ( 0.00    -2.8741)
                     ( 0.00    -1.5877)
 D :1...1            ( 0.00    -5.6533)
 F :1...1            ( 0.00    -4.1563)

 CYCLE    2
  SDIIS (wt  0.000):  1.0000  0.0000
 A-DIIS (wt  1.000):  0.0000  1.0000
  DIIS coefficients:  0.0000  1.0000
 SCF Error: norm([F,P])=     19.703187127064, max([F,P])=      6.542786111659
 orbitals (Q,E):
 ---------------
 S :1...4            ( 2.00   -45.9767)  ( 2.00    -0.8124)  ( 2.00     0.0181)  ( 0.00     0.3309)
 P :1...3            ( 6.00     0.0154)  ( 1.00     0.1274)  ( 0.00     0.4234)
 D :1...1            ( 0.00     0.9272)
 F :1...1            ( 0.00     1.3114)

 CYCLE    3
  SDIIS (wt  0.000):  0.2347  0.7653
 A-DIIS (wt  1.000):  0.6341  0.3659
  DIIS coefficients:  0.6341  0.3659
 SCF Error: norm([F,P])=     10.437858006925, max([F,P])=      6.314706340431
 orbitals (Q,E):
 ---------------
 S :1...4            ( 2.00   -54.3244)  ( 2.00    -4.5994)  ( 2.00    -0.7336)  ( 0.00    -0.1063)
 P :1...3            ( 6.00    -3.1313)  ( 1.00    -0.4568)  ( 0.00    -0.0483)
 D :1...1            ( 0.00    -0.1262)
 F :1...1            ( 0.00     0.5307)

 CYCLE    4
  SDIIS (wt  0.000):  0.0876 -0.0347  0.9471
 A-DIIS (wt  1.000):  0.0000  0.0000  1.0000
  DIIS coefficients:  0.0000  0.0000  1.0000
 SCF Error: norm([F,P])=      2.400667946041, max([F,P])=      1.075614954774
 orbitals (Q,E):
 ---------------
 S :1...4            ( 2.00   -55.8459)  ( 2.00    -3.8681)  ( 2.00    -0.1682)  ( 0.00     0.1047)
 P :1...3            ( 6.00    -2.5046)  ( 1.00    -0.0200)  ( 0.00     0.0831)
 D :1...1            ( 0.00     0.5130)
 F :1...1            ( 0.00     1.0508)

 CYCLE    5
  SDIIS (wt  0.000):  0.0011  0.0011  0.2756  0.7221
 A-DIIS (wt  1.000):  0.0000  0.0000  0.0000  1.0000
  DIIS coefficients:  0.0000  0.0000  0.0000  1.0000
 SCF Error: norm([F,P])=      0.913965106166, max([F,P])=      0.366443746555
 orbitals (Q,E):
 ---------------
 S :1...4            ( 2.00   -55.2795)  ( 2.00    -3.9874)  ( 2.00    -0.3461)  ( 0.00     0.0187)
 P :1...3            ( 6.00    -2.5818)  ( 1.00    -0.1461)  ( 0.00     0.0163)
 D :1...1            ( 0.00     0.2936)
 F :1...1            ( 0.00     0.8643)

 CYCLE    6
  SDIIS (wt  0.000):  0.0001  0.0002  0.0195  0.3490  0.6313
 A-DIIS (wt  1.000):  0.0000  0.0000  0.0000  0.0000  1.0000
  DIIS coefficients:  0.0000  0.0000  0.0000  0.0000  1.0000
 SCF Error: norm([F,P])=      0.436690185879, max([F,P])=      0.173063218477
 orbitals (Q,E):
 ---------------
 S :1...4            ( 2.00   -55.5633)  ( 2.00    -3.9562)  ( 2.00    -0.2582)  ( 0.00     0.0602)
 P :1...3            ( 6.00    -2.5698)  ( 1.00    -0.0783)  ( 0.00     0.0460)
 D :1...1            ( 0.00     0.3972)
 F :1...1            ( 0.00     0.9550)

 CYCLE    7
  SDIIS (wt  0.116): -0.0001  0.0002 -0.0030  0.0471  0.3966  0.5592
 A-DIIS (wt  0.884):  0.0000  0.0000  0.0000  0.0000  0.0000  1.0000
  DIIS coefficients: -0.0000  0.0000 -0.0004  0.0055  0.0462  0.9487
 SCF Error: norm([F,P])=      0.225509801030, max([F,P])=      0.088468265548
 orbitals (Q,E):
 ---------------
 S :1...4            ( 2.00   -55.3985)  ( 2.00    -3.9441)  ( 2.00    -0.2865)  ( 0.00     0.0462)
 P :1...3            ( 6.00    -2.5481)  ( 1.00    -0.0998)  ( 0.00     0.0351)
 D :1...1            ( 0.00     0.3628)
 F :1...1            ( 0.00     0.9244)

 CYCLE    8
  SDIIS (wt  0.576): -0.0000 -0.0000 -0.0014 -0.0225  0.0707  0.4551  0.4981
 A-DIIS (wt  0.424):  0.0000  0.0000  0.0000  0.0000  0.0000  0.0000  1.0000
  DIIS coefficients: -0.0000 -0.0000 -0.0008 -0.0130  0.0408  0.2623  0.7108
 SCF Error: norm([F,P])=      0.109470509274, max([F,P])=      0.042946018722
 orbitals (Q,E):
 ---------------
 S :1...4            ( 2.00   -55.4721)  ( 2.00    -3.9572)  ( 2.00    -0.2790)  ( 0.00     0.0500)
 P :1...3            ( 6.00    -2.5650)  ( 1.00    -0.0939)  ( 0.00     0.0380)
 D :1...1            ( 0.00     0.3720)
 F :1...1            ( 0.00     0.9330)

 CYCLE    9
  SDIIS (wt  0.902): -0.0000 -0.0000  0.0002  0.0027 -0.0233 -0.0193  0.2642  0.7755
 A-DIIS (wt  0.098):  0.0000  0.0000  0.0000  0.0000  0.0000  0.0000  0.0000  1.0000
  DIIS coefficients: -0.0000 -0.0000  0.0002  0.0024 -0.0211 -0.0174  0.2384  0.7975
 SCF Error: norm([F,P])=      0.027409913733, max([F,P])=      0.010675338569
 orbitals (Q,E):
 ---------------
 S :1...4            ( 2.00   -55.4551)  ( 2.00    -3.9526)  ( 2.00    -0.2796)  ( 0.00     0.0497)
 P :1...3            ( 6.00    -2.5596)  ( 1.00    -0.0944)  ( 0.00     0.0377)
 D :1...1            ( 0.00     0.3712)
 F :1...1            ( 0.00     0.9321)

 CYCLE   10
  SDIIS (wt  1.000): -0.0000  0.0000 -0.0000 -0.0000  0.0006 -0.0009  0.0028  0.0841  0.9135
  DIIS coefficients: -0.0000  0.0000 -0.0000 -0.0000  0.0006 -0.0009  0.0028  0.0841  0.9135
 SCF Error: norm([F,P])=      0.001679451292, max([F,P])=      0.000648730246
 orbitals (Q,E):
 ---------------
 S :1...4            ( 2.00   -55.4561)  ( 2.00    -3.9530)  ( 2.00    -0.2797)  ( 0.00     0.0497)
 P :1...3            ( 6.00    -2.5600)  ( 1.00    -0.0944)  ( 0.00     0.0377)
 D :1...1            ( 0.00     0.3711)
 F :1...1            ( 0.00     0.9321)

 CYCLE   11
  SDIIS (wt  1.000): -0.0000 -0.0000  0.0000 -0.0000 -0.0000  0.0016  0.0225  0.9760
  DIIS coefficients: -0.0000 -0.0000  0.0000 -0.0000 -0.0000  0.0016  0.0225  0.9760
 SCF Error: norm([F,P])=      0.000002033754, max([F,P])=      0.000000855064
 orbitals (Q,E):
 ---------------
 S :1...4            ( 2.00   -55.4561)  ( 2.00    -3.9530)  ( 2.00    -0.2797)  ( 0.00     0.0497)
 P :1...3            ( 6.00    -2.5600)  ( 1.00    -0.0944)  ( 0.00     0.0377)
 D :1...1            ( 0.00     0.3711)
 F :1...1            ( 0.00     0.9321)

 CYCLE   12
  SDIIS (wt  1.000): -0.0000 -0.0002 -0.0262  1.0264
  DIIS coefficients: -0.0000 -0.0002 -0.0262  1.0264
 SCF Error: norm([F,P])=      0.000000010763, max([F,P])=      0.000000005421
 orbitals (Q,E):
 ---------------
 S :1...4            ( 2.00   -55.4561)  ( 2.00    -3.9530)  ( 2.00    -0.2797)  ( 0.00     0.0497)
 P :1...3            ( 6.00    -2.5600)  ( 1.00    -0.0944)  ( 0.00     0.0377)
 D :1...1            ( 0.00     0.3711)
 F :1...1            ( 0.00     0.9321)

 SCF CONVERGED

 CYCLE   13
1
 ***************************************************************************************************



                                                *******************
                                                *  R E S U L T S  *
                                                *******************
  
 *** Setting up for NEW gradients in Focky
 *** Using FIT density in Focky

 Orbital Energies, per Irrep and Spin:
 ======================================
                        Occup              E (au)              E (eV)       Diff (eV) with prev. cycle
                        -----      --------------------        ------       --------------------------
 S
               1        2.000     -0.55456147426998E+02     -1509.039               2.76E-09
               2        2.000     -0.39529542546537E+01      -107.565               1.30E-09
               3        2.000     -0.27965196745147E+00        -7.610               8.56E-10
               4        0.000      0.49650507617542E-01         1.351
               5        0.000      0.72172213067489E+00        19.639
               6        0.000      0.58319719510007E+01       158.696
               7        0.000      0.11923573963194E+03      3244.570
 P
               1        6.000     -0.25600226844991E+01       -69.662               1.49E-09
               2        1.000     -0.94435460415481E-01        -2.570               8.62E-10
               3        0.000      0.37712802954337E-01         1.026
               4        0.000      0.43331177654454E+00        11.791
               5        0.000      0.62903899972702E+01       171.170
 D
               1        0.000      0.37113560781223E+00        10.099
 F
               1        0.000      0.93206551753248E+00        25.363


 Partially Occupied:
               2 P                -0.94435460415481E-01
  
 HOMO :        3 S                -0.27965196745147E+00
 LUMO :        3 P                 0.37712802954337E-01
  


 Orbital Energies, all Irreps
 ========================================

 Irrep        no.  (spin)   Occup              E (au)                E (eV)
 ---------------------------------------------------------------------------
 S             1             2.00       -0.55456147426998E+02     -1509.0386
 S             2             2.00       -0.39529542546537E+01      -107.5654
 P             1             6.00       -0.25600226844991E+01       -69.6618
 S             3             2.00       -0.27965196745147E+00        -7.6097
 P             2             1.00       -0.94435460415481E-01        -2.5697
 P             3             0.00        0.37712802954337E-01         1.0262
 S             4             0.00        0.49650507617542E-01         1.3511
 D             1             0.00        0.37113560781223E+00        10.0991
 P             4             0.00        0.43331177654454E+00        11.7910
 S             5             0.00        0.72172213067489E+00        19.6391
 F             1             0.00        0.93206551753248E+00        25.3628
 S             6             0.00        0.58319719510007E+01       158.6960
 P             5             0.00        0.62903899972702E+01       171.1702
 S             7             0.00        0.11923573963194E+03      3244.5696


 All Electron Calculation, thus no Orbital Energies of the Core Orbitals are calculated



 =======================================
 M U L L I K E N   P O P U L A T I O N S
 =======================================
  
 The survey below gives for each atom:
 a) the total charge (Z minus electrons)
 b) the net spin polarization (nr of electrons spin-A minus spin-B)
 c) for each spin the atomic electron valence density (integrated) per L-value.

 Atom              Charge    Spin density          S         P         D         F
 ----              ------    ------------       ------    ------    ------    ------
 1 Al             -0.0000                       6.0000    7.0000    0.0000    0.0000

 Populations of individual BAS functions
 ----------------------------------------
 1 Al           0.4821  1.4870  1.2979  0.7197  0.7789  0.7789  0.7789  1.2258  1.2258  1.2258
                0.5938  1.0832  0.3362  0.0807  0.0807  0.0807  0.1997  0.1997  0.1997  0.0483
                0.0483  0.0483  0.0000  0.0000  0.0000  0.0000  0.0000  0.0000  0.0000  0.0000
                0.0000  0.0000  0.0000  0.0000  0.0000  0.0000  0.0000  0.0000

 Gross Charges per Atom (Z minus electrons)
 ==========================================
            -0.0000
 Net Total: -0.00000000



 =======================================================================
 Electrostatic potential at the Nuclei due to electrons and other nuclei
 =======================================================================
  
         Atom                  Potential
         ----                  ---------
     1)   Al                 44.49689816
 
 
 ========================
 No memory problems found
 ========================
 
 Maximum number of active allocate calls:         447
 
 *******************************************************************************

                             A D F   E X I T
 NORMAL TERMINATION



 =================
 Timing Statistics
 =================
  
 Total Used :                     CPU=        1.27      System=        0.03     Elapsed=        1.30

 Calls  Section                     ( Mean, Percentage )
 ---------------------------------------------------------------------------------------------------
     3  ><      ................      0.00    0.08             0.00    0.00             0.00    0.06
     1  INIT    ................      0.01    1.18             0.02   56.25             0.03    2.61
     1  GEOMET  ................      0.01    0.79             0.00    9.37             0.01    1.00
     1  INPUTA  ................      0.00    0.24             0.00    0.00             0.00    0.24
     1  MAINSY  ................      0.01    0.63             0.00    0.00             0.01    0.61
     1  SYMFIT  ................      0.00    0.08             0.00    0.00             0.00    0.09
     1  CORORT  ................      0.00    0.00             0.00    0.00             0.00    0.03
     1  SYMORB  ................      0.00    0.08             0.00    3.13             0.00    0.12
     1  CLSMAT  ................      0.01    0.71             0.00    0.00             0.01    0.70
     1  ORTHON  ................      0.00    0.24             0.00    0.00             0.00    0.23
     1  GENPT   ................      0.02    1.97             0.00    3.13             0.03    2.01
     1  PTBAS   ................      0.01    0.47             0.00    0.00             0.01    0.48
    13  FOCKY   ................      0.08   81.89             0.00   12.50             0.08   79.91
    13  FOCKTR  ................      0.00    1.26             0.00    3.13             0.00    1.44
    13  SDIIS   ................      0.00    2.76             0.00    0.00             0.00    2.70
     1  COREPS  ................      0.06    4.72             0.00    3.13             0.06    4.65
     1  POPAN   ................      0.01    0.71             0.00    0.00             0.01    0.70
     1  DEBYE   ................      0.00    0.08             0.00    0.00             0.00    0.07
     1  EXIT PROCEDURE .........      0.03    2.13             0.00    9.37             0.03    2.32


 Currently Open Files (EXIT00)
 ====================

 Unit    Access Format  Status   Type       Ident (file)
 -------------------------------------------------------
   3      SEQ    FORM   TRANSP  NORMAL      LOGFILE
                                          ( logfile )


 Buffered I/O statistics
 =======================
 Memory available:                     67108864
 Number of records fitting in memory:     16131
 Input :   0.1% of                        28581  *4k bytes
 Output:  12.3% of                         1537  *4k bytes
 Records from serial files evicted:           0
                    others evicted:           0
 Hash table lookups:      73744 with          0 conflicts (  0.00%)

 ***************************************************************************************************
 (LOGFILE)
 <May19-2019> <11:19:14>  ADF 2017  RunTime: May19-2019 11:19:14  Nodes: 1  Procs: 1
 <May19-2019> <11:19:14>  Aluminium (TZ2P)
 <May19-2019> <11:19:14>  RunType   : CREATE
 <May19-2019> <11:19:14>  Net Charge: 0 (Nuclei minus Electrons)
 <May19-2019> <11:19:14>  Symmetry  : ATOM
  Coordinates
    Atom         X           Y           Z   (Angstrom)
    1.Al        0.000000    0.000000    0.000000
 <May19-2019> <11:19:14>  >>>> CORORT
 <May19-2019> <11:19:14>  >>>> CLSMAT
 <May19-2019> <11:19:14>  >>>> ORTHON
 <May19-2019> <11:19:14>  >>>> GENPT
 <May19-2019> <11:19:14>  Block Length=  85
 <May19-2019> <11:19:14>  >>>> PTBAS
 <May19-2019> <11:19:14>  >>>> CYCLE
 <May19-2019> <11:19:14>              |Error|         MaxErr       Wt(A-DIIS)
 <May19-2019> <11:19:14>      1      0.00000000      0.00000000
 <May19-2019> <11:19:14>      2     19.70318713      6.54278611    100.0
 <May19-2019> <11:19:14>      3     10.43785801      6.31470634    100.0
 <May19-2019> <11:19:14>      4      2.40066795      1.07561495    100.0
 <May19-2019> <11:19:14>      5      0.91396511      0.36644375    100.0
 <May19-2019> <11:19:14>      6      0.43669019      0.17306322    100.0
 <May19-2019> <11:19:14>      7      0.22550980      0.08846827     88.4
 <May19-2019> <11:19:14>      8      0.10947051      0.04294602     42.4
 <May19-2019> <11:19:15>      9      0.02740991      0.01067534      9.8
 <May19-2019> <11:19:15>     10      0.00167945      0.00064873      0.0
 <May19-2019> <11:19:15>     11      0.00000203      0.00000086      0.0
 <May19-2019> <11:19:15>     12      0.00000001      0.00000001      0.0
 <May19-2019> <11:19:15>  SCF converged
 <May19-2019> <11:19:15>     13      0.00000000      0.00000000      0.0
 <May19-2019> <11:19:15>  >>>> POPAN
 <May19-2019> <11:19:15>  >>>> DEBYE
 <May19-2019> <11:19:15>  NORMAL TERMINATION
 <May19-2019> <11:19:15>  END

Create O   file=TZ2P-O
XC
  GGA blyp
End
End Input

 *******************************************************************************
 *                                                                             *
 *  -------------------------------------                                      *
 *   Amsterdam Density Functional  (ADF)         2017                          *
 *  -------------------------------------                                      *
 *                                               r58813 2017-04-12             *
 *                                                                             *
 *                                                                             *
 *                              =================                              *
 *                              |               |                              *
 *                              |     A D F     |                              *
 *                              |               |                              *
 *                              =================                              *
 *                                                                             *
 *                                                                             *
 *   Online information and documentation:  https://www.scm.com/support/       *
 *   E-mail:  support@scm.com   info@scm.com                                   *
 *                                                                             *
 *   Scientific publications using ADF results must be properly referenced     *
 *   See the User Manuals (or the web site) for recommended citations          *
 *   The terms and conditions of the End User License Agreement apply to       *
 *   the use of ADF, https://www.scm.com/license-terms/                        *
 *                                                                             *
 **********************  x86_64_linux_intel / intelmpi  ************************
 
 Licensed to: VU/FEW (+ SARA) / ALGEMEEN / Amsterdam / THE NETHERLANDS
 SCM User ID: u7668
  
 ADF 2017  RunTime: May19-2019 11:19:15  Nodes: 1  Procs: 1

 Temporary files are created in /local/datastore0/tcst25/190757/kid_0.k7nLEG

 Oxygen (TZ2P)



 ===========================
 A T T A C H E D   F I L E S
 ===========================
  
 CREATE - Data File:    TZ2P-O
                        Oxygen (TZ2P)



 ===============================
 M O D E L   P A R A M E T E R S
 ===============================
  
 DENSITY FUNCTIONAL POTENTIAL (scf)
    LDA:                               Exchange only                           == Not Default ==
    Gradient Corrections:              Becke88 LYP                             == Not Default ==

 SPIN  (restricted / unrestr.)
    Molecule:                          Restricted                               

 OTHER ASPECTS
    Relativistic Corrections:          ---                                      

    Nuclear Charge Density Model:      Point Charge Nuclei                      
    Core Treatment:                    Frozen Orbital(s)                        

    Hyperfine or Zeeman Interaction:   ---                                      



 =====================================
 S Y M M E T R Y ,   E L E C T R O N S
 =====================================
  
 Symmetry: ATOM

 Irreducible Representations, including subspecies
 -------------------------------------------------
 S
 P:x  P:y  P:z
 D:z2  D:x2-y2  D:xy  D:xz  D:yz
 F:z3  F:z  F:xyz  F:z2x  F:z2y  F:x  F:y


 Configuration of Valence Electrons
 ==================================

          Occupation Numbers
          -------------------------------------------------
 S        2*2
 P        4
 D        0
 F        0
          -------------------------------------------------

 Total:   8

 Net Charge: 0 (Nuclei minus Electrons)

 Preset values for MO occupations will be applied through SCF cycle no. 1000000
 Thereafter, the program will assign electrons to MOs that are spatially
 similar to the occupied MOs in a "reference" cycle ("KeepOrbitals").
 The reference cycle is always the PREVIOUS cycle: it will evolve with
 the SCF procedure.



 ================================
 (Slater-type)  F U N C T I O N S  ***  (Basis and Fit)  ***
 ================================
  

 Atom Type    1  (O)
 ==============

 Valence Basis Sets:  10
 -----------------------
   1 S    9.800000
   1 S    6.800000
   2 S    7.580000
   2 S    2.880000
   2 S    1.720000
   2 P    4.080000
   2 P    2.080000
   2 P    1.120000
   3 D    2.000000
   4 F    3.000000


 BAS: List of all Elementary Cartesian Basis Functions
 =====================================================

 The numbering in the list below (to the right of the function characteristics) is referred
 to in print-outs of MO eigenvectors and Mulliken populations in the BAS representation
 (as contrasted to the SFO representation).

 Notes:
 1. The functions are characterized by a polynomial prefactor (powers of x,y,z and r) and
    an exponential decay factor alpha.
 2. Since the basis sets are specific for an atom TYPE, the individual functions occur on
    all atoms of that type.
 3. The word 'Core' in the left margin signals that it is a Core Function (CF) : not a
    degree of freedom in the valence set, but only used to ensure orthogonalization of
    the other valence basis functions on the frozen Core Orbitals.


 (power of) X  Y  Z  R     Alpha  on Atom
            ==========     =====     ==========

 O                                    1
                                  ---------------------------------------------------------------------------
            0  0  0  0     9.800      1
            0  0  0  0     6.800      2
            0  0  0  1     7.580      3
            0  0  0  1     2.880      4
            0  0  0  1     1.720      5
            1  0  0  0     4.080      6
            0  1  0  0     4.080      7
            0  0  1  0     4.080      8
            1  0  0  0     2.080      9
            0  1  0  0     2.080     10
            0  0  1  0     2.080     11
            1  0  0  0     1.120     12
            0  1  0  0     1.120     13
            0  0  1  0     1.120     14
            2  0  0  0     2.000     15
            1  1  0  0     2.000     16
            1  0  1  0     2.000     17
            0  2  0  0     2.000     18
            0  1  1  0     2.000     19
            0  0  2  0     2.000     20
            3  0  0  0     3.000     21
            2  1  0  0     3.000     22
            2  0  1  0     3.000     23
            1  2  0  0     3.000     24
            1  1  1  0     3.000     25
            1  0  2  0     3.000     26
            0  3  0  0     3.000     27
            0  2  1  0     3.000     28
            0  1  2  0     3.000     29
            0  0  3  0     3.000     30

 Total number of charge fitting functions (nprimf)        84
 Total number of Cartesian basis functions (naos)         30
 Total number of Cartesian core functions  (ncos)          0



 BAS: List of all Elementary Cartesian Basis Functions
 =====================================================

 The numbering in the list below (to the right of the function characteristics) is referred
 to in print-outs of MO eigenvectors and Mulliken populations in the BAS representation
 (as contrasted to the SFO representation).

 Notes:
 1. The functions are characterized by a polynomial prefactor (powers of x,y,z and r) and
    an exponential decay factor alpha.
 2. Since the basis sets are specific for an atom TYPE, the individual functions occur on
    all atoms of that type.
 3. The word 'Core' in the left margin signals that it is a Core Function (CF) : not a
    degree of freedom in the valence set, but only used to ensure orthogonalization of
    the other valence basis functions on the frozen Core Orbitals.


 (power of) X  Y  Z  R     Alpha  on Atom
            ==========     =====     ==========

 O                                    1
                                  ---------------------------------------------------------------------------
            0  0  0  0     9.800      1
            0  0  0  0     6.800      2
            0  0  0  1     7.580      3
            0  0  0  1     2.880      4
            0  0  0  1     1.720      5
            1  0  0  0     4.080      6
            0  1  0  0     4.080      7
            0  0  1  0     4.080      8
            1  0  0  0     2.080      9
            0  1  0  0     2.080     10
            0  0  1  0     2.080     11
            1  0  0  0     1.120     12
            0  1  0  0     1.120     13
            0  0  1  0     1.120     14
            2  0  0  0     2.000     15
            1  1  0  0     2.000     16
            1  0  1  0     2.000     17
            0  2  0  0     2.000     18
            0  1  1  0     2.000     19
            0  0  2  0     2.000     20
            3  0  0  0     3.000     21
            2  1  0  0     3.000     22
            2  0  1  0     3.000     23
            1  2  0  0     3.000     24
            1  1  1  0     3.000     25
            1  0  2  0     3.000     26
            0  3  0  0     3.000     27
            0  2  1  0     3.000     28
            0  1  2  0     3.000     29
            0  0  3  0     3.000     30
1
 ***************************************************************************************************



                                              ***********************
                                              *  T E C H N I C A L  *
                                              ***********************
  



 =============================================================
 P A R A L L E L I Z A T I O N  and  V E C T O R I Z A T I O N
 =============================================================
  
 Nr of parallel processes:                                1
 Maximum vector length in NumInt loops:                 128

 IO buffersize (Mb):                                     64.000000



 =====================
 S C F   U P D A T E S
 =====================
  
 Max. nr. of cycles:                               300
 Convergence criterion:                              0.0000000100
   secondary criterion:                              0.0000000100

 Mix parameter (when DIIS does not apply):           0.2000000000
 Special mix parameter for the first cycle:          1.0000000000
 Mixed ADIIS+DIIS will be used
    Max number of expansion vectors:                10
    Pure ADIIS when Max([F,P]) is above              0.1000000000
    Pure DIIS when Max([F,P]) is below               0.0010000000
 Automatic ElectronSmearing (in case of problematic SCF convergence) disabled



 =================
 P R E C I S I O N  ***  (General: NumInt, NeglectFunctionTails, ...)  ***
 =================
  

 NumInt:           Target precision:                12.0000000000
 -------           Initial precision:               10.0000000000
                   Min. precision (optimization):   10.0000000000

 Neglect Functions:          Basis functions:        0.1000000000E-13
 ------------------          Fit functions:          0.1000000000E-13



 ===========================
 L I N E A R   S C A L I N G
 ===========================
  

 Cut-off radii density fit:                        0.1000000000E-97
 Overlap cut-off criterion AO matrix elements:     0.1000000000E-97
 Cut-offs for Coulomb potential and fitted density:0.1000000000E-97
 Cut-off criterion for Coulomb multipole terms:    0.1000000000E-97
 Progressive Convergence parameter:                 0.000000000    
1
 ***************************************************************************************************



                                            ***************************
                                            *  C O M P U T A T I O N  *
                                            ***************************
  

 Number of elements of the density matrix on this node (used, total):       465       465



 ===========================================
 Numerical Integration : Fuzzy Cells (Becke)
 ===========================================
  
 Becke grid quality: VERYGOOD       
  
 Lebedev angular grid order:             min:  13 max:  41
 Nr. of radial points:                   min:  68 max:  68

 Total nr. of points:         68
 Nr. of blocks:                1
 Block length:                68
 Nr. of dummy points:          0


 Test of Precision of the Numerical Integration Grid
 ===================================================

 Integral of the Total Core Density:                   0.00000000000000



 ========================
 Density Fitting (zlmFit)
 ========================
  
 ZlmFit Fit Quality: VERYGOOD       
  
 Max L-expansion:                        min:   0 max:   0
 Nr. of radial interpolation points:     min: 180 max: 180



 =====
 S C F  ***  ScaSCF  ***
 =====
  

 CYCLE    1
 SCF Error: norm([F,P])=      0.000000000000, max([F,P])=      0.000000000000
 orbitals (Q,E):
 ---------------
 S :1...5            ( 2.00   -31.9999)  ( 2.00    -7.9363)  ( 0.00    -3.4636)  ( 0.00     4.3191)
                     ( 0.00   110.5486)
 P :1...3            ( 4.00    -7.9991)  ( 0.00    -3.4855)  ( 0.00    -1.8903)
 D :1...1            ( 0.00    -3.3333)
 F :1...1            ( 0.00    -1.5000)

 CYCLE    2
  SDIIS (wt  0.000):  1.0000 -0.0000
 A-DIIS (wt  1.000):  0.0000  1.0000
  DIIS coefficients:  0.0000  1.0000
 SCF Error: norm([F,P])=      8.765745414074, max([F,P])=      5.518031311555
 orbitals (Q,E):
 ---------------
 S :1...3            ( 2.00   -14.5579)  ( 2.00    -0.0124)  ( 0.00     1.8192)
 P :1...2            ( 4.00     0.2183)  ( 0.00     1.2385)
 D :1...1            ( 0.00     1.5388)
 F :1...1            ( 0.00     3.9464)

 CYCLE    3
  SDIIS (wt  0.000):  0.2278  0.7722
 A-DIIS (wt  1.000):  0.3148  0.6852
  DIIS coefficients:  0.3148  0.6852
 SCF Error: norm([F,P])=      3.585499450444, max([F,P])=      2.499410108106
 orbitals (Q,E):
 ---------------
 S :1...3            ( 2.00   -19.8063)  ( 2.00    -1.5198)  ( 0.00     0.3996)
 P :1...2            ( 4.00    -0.9763)  ( 0.00     0.1325)
 D :1...1            ( 0.00     0.6540)
 F :1...1            ( 0.00     2.8642)

 CYCLE    4
  SDIIS (wt  0.000): -0.0456  0.1707  0.8749
 A-DIIS (wt  1.000):  0.0000  0.0000  1.0000
  DIIS coefficients:  0.0000  0.0000  1.0000
 SCF Error: norm([F,P])=      1.147919112368, max([F,P])=      0.583019620058
 orbitals (Q,E):
 ---------------
 S :1...3            ( 2.00   -18.0523)  ( 2.00    -0.5465)  ( 0.00     1.0349)
 P :1...2            ( 4.00    -0.0477)  ( 0.00     0.5307)
 D :1...1            ( 0.00     1.2443)
 F :1...1            ( 0.00     3.5731)

 CYCLE    5
  SDIIS (wt  0.000): -0.0195 -0.0760  0.5845  0.5110
 A-DIIS (wt  1.000):  0.0000  0.0000  0.6414  0.3586
  DIIS coefficients:  0.0000  0.0000  0.6414  0.3586
 SCF Error: norm([F,P])=      1.519585468023, max([F,P])=      0.840542006159
 orbitals (Q,E):
 ---------------
 S :1...3            ( 2.00   -18.8182)  ( 2.00    -0.8502)  ( 0.00     0.8091)
 P :1...2            ( 4.00    -0.3077)  ( 0.00     0.3582)
 D :1...1            ( 0.00     1.0753)
 F :1...1            ( 0.00     3.3669)

 CYCLE    6
  SDIIS (wt  0.000):  0.0038 -0.0006  0.0668 -0.0496  0.9795
 A-DIIS (wt  1.000):  0.0000  0.0000  0.0000  0.0000  1.0000
  DIIS coefficients:  0.0000  0.0000  0.0000  0.0000  1.0000
 SCF Error: norm([F,P])=      0.178828926625, max([F,P])=      0.104242033505
 orbitals (Q,E):
 ---------------
 S :1...3            ( 2.00   -19.0541)  ( 2.00    -0.9245)  ( 0.00     0.7610)
 P :1...2            ( 4.00    -0.3806)  ( 0.00     0.3267)
 D :1...1            ( 0.00     1.0451)
 F :1...1            ( 0.00     3.3284)

 CYCLE    7
  SDIIS (wt  0.000): -0.0003  0.0004 -0.0182  0.0130  0.4190  0.5861
 A-DIIS (wt  1.000):  0.0000  0.0000  0.0000  0.0000  0.5807  0.4193
  DIIS coefficients:  0.0000  0.0000  0.0000  0.0000  0.5807  0.4193
 SCF Error: norm([F,P])=      0.200125290981, max([F,P])=      0.113649127569
 orbitals (Q,E):
 ---------------
 S :1...3            ( 2.00   -18.9379)  ( 2.00    -0.8781)  ( 0.00     0.7909)
 P :1...2            ( 4.00    -0.3354)  ( 0.00     0.3452)
 D :1...1            ( 0.00     1.0687)
 F :1...1            ( 0.00     3.3572)

 CYCLE    8
  SDIIS (wt  0.910): -0.0000  0.0002  0.0044 -0.0011 -0.0192 -0.1454  1.1612
 A-DIIS (wt  0.090):  0.0000  0.0000  0.0000  0.0000  0.0000  0.0000  1.0000
  DIIS coefficients: -0.0000  0.0002  0.0040 -0.0010 -0.0175 -0.1323  1.1466
 SCF Error: norm([F,P])=      0.016951777154, max([F,P])=      0.009947196225
 orbitals (Q,E):
 ---------------
 S :1...3            ( 2.00   -18.9255)  ( 2.00    -0.8739)  ( 0.00     0.7936)
 P :1...2            ( 4.00    -0.3314)  ( 0.00     0.3469)
 D :1...1            ( 0.00     1.0707)
 F :1...1            ( 0.00     3.3597)

 CYCLE    9
  SDIIS (wt  1.000): -0.0000  0.0000  0.0000 -0.0001  0.0003  0.0067  0.0145  0.9786
  DIIS coefficients: -0.0000  0.0000  0.0000 -0.0001  0.0003  0.0067  0.0145  0.9786
 SCF Error: norm([F,P])=      0.001748429775, max([F,P])=      0.000984374869
 orbitals (Q,E):
 ---------------
 S :1...3            ( 2.00   -18.9266)  ( 2.00    -0.8743)  ( 0.00     0.7933)
 P :1...2            ( 4.00    -0.3318)  ( 0.00     0.3467)
 D :1...1            ( 0.00     1.0705)
 F :1...1            ( 0.00     3.3595)

 CYCLE   10
  SDIIS (wt  1.000): -0.0000 -0.0000 -0.0000 -0.0000  0.0000  0.0001 -0.0011 -0.0034  1.0043
  DIIS coefficients: -0.0000 -0.0000 -0.0000 -0.0000  0.0000  0.0001 -0.0011 -0.0034  1.0043
 SCF Error: norm([F,P])=      0.000001425696, max([F,P])=      0.000000713883
 orbitals (Q,E):
 ---------------
 S :1...3            ( 2.00   -18.9266)  ( 2.00    -0.8743)  ( 0.00     0.7933)
 P :1...2            ( 4.00    -0.3318)  ( 0.00     0.3467)
 D :1...1            ( 0.00     1.0705)
 F :1...1            ( 0.00     3.3595)

 CYCLE   11
  SDIIS (wt  1.000):  0.0000 -0.0000 -0.0000 -0.0001 -0.0046  1.0047
  DIIS coefficients:  0.0000 -0.0000 -0.0000 -0.0001 -0.0046  1.0047
 SCF Error: norm([F,P])=      0.000000048706, max([F,P])=      0.000000022971
 orbitals (Q,E):
 ---------------
 S :1...3            ( 2.00   -18.9266)  ( 2.00    -0.8743)  ( 0.00     0.7933)
 P :1...2            ( 4.00    -0.3318)  ( 0.00     0.3467)
 D :1...1            ( 0.00     1.0705)
 F :1...1            ( 0.00     3.3595)

 CYCLE   12
  SDIIS (wt  1.000):  0.0000  0.0003  0.0049  0.9947
  DIIS coefficients:  0.0000  0.0003  0.0049  0.9947
 SCF Error: norm([F,P])=      0.000000002392, max([F,P])=      0.000000001168
 orbitals (Q,E):
 ---------------
 S :1...3            ( 2.00   -18.9266)  ( 2.00    -0.8743)  ( 0.00     0.7933)
 P :1...2            ( 4.00    -0.3318)  ( 0.00     0.3467)
 D :1...1            ( 0.00     1.0705)
 F :1...1            ( 0.00     3.3595)

 SCF CONVERGED

 CYCLE   13
1
 ***************************************************************************************************



                                                *******************
                                                *  R E S U L T S  *
                                                *******************
  
 *** Setting up for NEW gradients in Focky
 *** Using FIT density in Focky

 Orbital Energies, per Irrep and Spin:
 ======================================
                        Occup              E (au)              E (eV)       Diff (eV) with prev. cycle
                        -----      --------------------        ------       --------------------------
 S
               1        2.000     -0.18926622910087E+02      -515.020               5.76E-10
               2        2.000     -0.87432318445324E+00       -23.792               3.90E-10
               3        0.000      0.79334608634537E+00        21.588
               4        0.000      0.13459763470969E+02       366.259
               5        0.000      0.12310776301329E+03      3349.933
 P
               1        4.000     -0.33177161342558E+00        -9.028               3.71E-10
               2        0.000      0.34673871865826E+00         9.435
               3        0.000      0.38246989192600E+01       104.075
 D
               1        0.000      0.10704889823391E+01        29.129
 F
               1        0.000      0.33594552407685E+01        91.415


 Partially Occupied:
               1 P                -0.33177161342558E+00
  
 HOMO :        2 S                -0.87432318445324E+00
 LUMO :        2 P                 0.34673871865826E+00
  


 Orbital Energies, all Irreps
 ========================================

 Irrep        no.  (spin)   Occup              E (au)                E (eV)
 ---------------------------------------------------------------------------
 S             1             2.00       -0.18926622910087E+02      -515.0196
 S             2             2.00       -0.87432318445324E+00       -23.7915
 P             1             4.00       -0.33177161342558E+00        -9.0280
 P             2             0.00        0.34673871865826E+00         9.4352
 S             3             0.00        0.79334608634537E+00        21.5880
 D             1             0.00        0.10704889823391E+01        29.1295
 F             1             0.00        0.33594552407685E+01        91.4154
 P             3             0.00        0.38246989192600E+01       104.0754
 S             4             0.00        0.13459763470969E+02       366.2588
 S             5             0.00        0.12310776301329E+03      3349.9327


 All Electron Calculation, thus no Orbital Energies of the Core Orbitals are calculated



 =======================================
 M U L L I K E N   P O P U L A T I O N S
 =======================================
  
 The survey below gives for each atom:
 a) the total charge (Z minus electrons)
 b) the net spin polarization (nr of electrons spin-A minus spin-B)
 c) for each spin the atomic electron valence density (integrated) per L-value.

 Atom              Charge    Spin density          S         P         D         F
 ----              ------    ------------       ------    ------    ------    ------
 1 O              -0.0000                       4.0000    4.0000    0.0000    0.0000

 Populations of individual BAS functions
 ----------------------------------------
 1 O            0.6447  1.3214  0.0008  1.1425  0.8905  0.2537  0.2537  0.2537  0.7364  0.7364
                0.7364  0.3432  0.3432  0.3432  0.0000  0.0000  0.0000  0.0000  0.0000  0.0000
                0.0000  0.0000  0.0000  0.0000  0.0000  0.0000  0.0000  0.0000  0.0000  0.0000

 Gross Charges per Atom (Z minus electrons)
 ==========================================
            -0.0000
 Net Total: -0.00000000



 =======================================================================
 Electrostatic potential at the Nuclei due to electrons and other nuclei
 =======================================================================
  
         Atom                  Potential
         ----                  ---------
     1)   O                  22.23872615
 
 
 ========================
 No memory problems found
 ========================
 
 Maximum number of active allocate calls:         447
 
 *******************************************************************************

                             A D F   E X I T
 NORMAL TERMINATION



 =================
 Timing Statistics
 =================
  
 Total Used :                     CPU=        0.78      System=        0.04     Elapsed=        0.83

 Calls  Section                     ( Mean, Percentage )
 ---------------------------------------------------------------------------------------------------
     3  ><      ................      0.00    0.00             0.00    0.00             0.00    0.09
     1  INIT    ................      0.01    1.78             0.02   46.34             0.03    4.21
     1  GEOMET  ................      0.01    1.15             0.00    9.76             0.01    1.57
     1  INPUTA  ................      0.00    0.38             0.00    0.00             0.00    0.37
     1  MAINSY  ................      0.01    0.76             0.00    4.88             0.01    0.96
     1  SYMFIT  ................      0.00    0.25             0.00    0.00             0.00    0.15
     1  CORORT  ................      0.00    0.00             0.00    0.00             0.00    0.05
     1  SYMORB  ................      0.00    0.13             0.00    2.44             0.00    0.19
     1  CLSMAT  ................      0.01    1.15             0.00    0.00             0.01    1.10
     1  ORTHON  ................      0.00    0.38             0.00    0.00             0.00    0.35
     1  GENPT   ................      0.02    2.55             0.00    2.44             0.02    2.54
     1  PTBAS   ................      0.01    0.76             0.00    0.00             0.01    0.74
    13  FOCKY   ................      0.05   74.90             0.00   19.51             0.05   72.13
    13  FOCKTR  ................      0.00    2.68             0.00    0.00             0.00    2.20
    13  SDIIS   ................      0.00    4.08             0.00    4.88             0.00    4.26
     1  COREPS  ................      0.03    4.46             0.00    2.44             0.04    4.38
     1  POPAN   ................      0.01    1.15             0.00    0.00             0.01    1.10
     1  DEBYE   ................      0.00    0.13             0.00    0.00             0.00    0.11
     1  EXIT PROCEDURE .........      0.03    3.31             0.00    7.32             0.03    3.48


 Currently Open Files (EXIT00)
 ====================

 Unit    Access Format  Status   Type       Ident (file)
 -------------------------------------------------------
   3      SEQ    FORM   TRANSP  NORMAL      LOGFILE
                                          ( logfile )


 Buffered I/O statistics
 =======================
 Memory available:                     67108864
 Number of records fitting in memory:     16131
 Input :   0.1% of                        27833  *4k bytes
 Output:  13.5% of                         1390  *4k bytes
 Records from serial files evicted:           0
                    others evicted:           0
 Hash table lookups:      71898 with          0 conflicts (  0.00%)

 ***************************************************************************************************
 (LOGFILE)
 <May19-2019> <11:19:14>  ADF 2017  RunTime: May19-2019 11:19:14  Nodes: 1  Procs: 1
 <May19-2019> <11:19:14>  Aluminium (TZ2P)
 <May19-2019> <11:19:14>  RunType   : CREATE
 <May19-2019> <11:19:14>  Net Charge: 0 (Nuclei minus Electrons)
 <May19-2019> <11:19:14>  Symmetry  : ATOM
  Coordinates
    Atom         X           Y           Z   (Angstrom)
    1.Al        0.000000    0.000000    0.000000
 <May19-2019> <11:19:14>  >>>> CORORT
 <May19-2019> <11:19:14>  >>>> CLSMAT
 <May19-2019> <11:19:14>  >>>> ORTHON
 <May19-2019> <11:19:14>  >>>> GENPT
 <May19-2019> <11:19:14>  Block Length=  85
 <May19-2019> <11:19:14>  >>>> PTBAS
 <May19-2019> <11:19:14>  >>>> CYCLE
 <May19-2019> <11:19:14>              |Error|         MaxErr       Wt(A-DIIS)
 <May19-2019> <11:19:14>      1      0.00000000      0.00000000
 <May19-2019> <11:19:14>      2     19.70318713      6.54278611    100.0
 <May19-2019> <11:19:14>      3     10.43785801      6.31470634    100.0
 <May19-2019> <11:19:14>      4      2.40066795      1.07561495    100.0
 <May19-2019> <11:19:14>      5      0.91396511      0.36644375    100.0
 <May19-2019> <11:19:14>      6      0.43669019      0.17306322    100.0
 <May19-2019> <11:19:14>      7      0.22550980      0.08846827     88.4
 <May19-2019> <11:19:14>      8      0.10947051      0.04294602     42.4
 <May19-2019> <11:19:15>      9      0.02740991      0.01067534      9.8
 <May19-2019> <11:19:15>     10      0.00167945      0.00064873      0.0
 <May19-2019> <11:19:15>     11      0.00000203      0.00000086      0.0
 <May19-2019> <11:19:15>     12      0.00000001      0.00000001      0.0
 <May19-2019> <11:19:15>  SCF converged
 <May19-2019> <11:19:15>     13      0.00000000      0.00000000      0.0
 <May19-2019> <11:19:15>  >>>> POPAN
 <May19-2019> <11:19:15>  >>>> DEBYE
 <May19-2019> <11:19:15>  NORMAL TERMINATION
 <May19-2019> <11:19:15>  END
 <May19-2019> <11:19:15>  ADF 2017  RunTime: May19-2019 11:19:15  Nodes: 1  Procs: 1
 <May19-2019> <11:19:15>  Oxygen (TZ2P)
 <May19-2019> <11:19:15>  RunType   : CREATE
 <May19-2019> <11:19:15>  Net Charge: 0 (Nuclei minus Electrons)
 <May19-2019> <11:19:15>  Symmetry  : ATOM
  Coordinates
    Atom         X           Y           Z   (Angstrom)
    1.O         0.000000    0.000000    0.000000
 <May19-2019> <11:19:15>  >>>> CORORT
 <May19-2019> <11:19:15>  >>>> CLSMAT
 <May19-2019> <11:19:15>  >>>> ORTHON
 <May19-2019> <11:19:15>  >>>> GENPT
 <May19-2019> <11:19:15>  Block Length=  68
 <May19-2019> <11:19:15>  >>>> PTBAS
 <May19-2019> <11:19:15>  >>>> CYCLE
 <May19-2019> <11:19:15>              |Error|         MaxErr       Wt(A-DIIS)
 <May19-2019> <11:19:15>      1      0.00000000      0.00000000
 <May19-2019> <11:19:15>      2      8.76574541      5.51803131    100.0
 <May19-2019> <11:19:15>      3      3.58549945      2.49941011    100.0
 <May19-2019> <11:19:15>      4      1.14791911      0.58301962    100.0
 <May19-2019> <11:19:15>      5      1.51958547      0.84054201    100.0
 <May19-2019> <11:19:15>      6      0.17882893      0.10424203    100.0
 <May19-2019> <11:19:16>      7      0.20012529      0.11364913    100.0
 <May19-2019> <11:19:16>      8      0.01695178      0.00994720      9.0
 <May19-2019> <11:19:16>      9      0.00174843      0.00098437      0.0
 <May19-2019> <11:19:16>     10      0.00000143      0.00000071      0.0
 <May19-2019> <11:19:16>     11      0.00000005      0.00000002      0.0
 <May19-2019> <11:19:16>     12      0.00000000      0.00000000      0.0
 <May19-2019> <11:19:16>  SCF converged
 <May19-2019> <11:19:16>     13      0.00000000      0.00000000      0.0
 <May19-2019> <11:19:16>  >>>> POPAN
 <May19-2019> <11:19:16>  >>>> DEBYE
 <May19-2019> <11:19:16>  NORMAL TERMINATION
 <May19-2019> <11:19:16>  END

Create C   file=TZ2P-C
XC
  GGA blyp
End
End Input

 *******************************************************************************
 *                                                                             *
 *  -------------------------------------                                      *
 *   Amsterdam Density Functional  (ADF)         2017                          *
 *  -------------------------------------                                      *
 *                                               r58813 2017-04-12             *
 *                                                                             *
 *                                                                             *
 *                              =================                              *
 *                              |               |                              *
 *                              |     A D F     |                              *
 *                              |               |                              *
 *                              =================                              *
 *                                                                             *
 *                                                                             *
 *   Online information and documentation:  https://www.scm.com/support/       *
 *   E-mail:  support@scm.com   info@scm.com                                   *
 *                                                                             *
 *   Scientific publications using ADF results must be properly referenced     *
 *   See the User Manuals (or the web site) for recommended citations          *
 *   The terms and conditions of the End User License Agreement apply to       *
 *   the use of ADF, https://www.scm.com/license-terms/                        *
 *                                                                             *
 **********************  x86_64_linux_intel / intelmpi  ************************
 
 Licensed to: VU/FEW (+ SARA) / ALGEMEEN / Amsterdam / THE NETHERLANDS
 SCM User ID: u7668
  
 ADF 2017  RunTime: May19-2019 11:19:16  Nodes: 1  Procs: 1

 Temporary files are created in /local/datastore0/tcst25/190757/kid_0.XhZRwA

 Carbon (TZ2P)



 ===========================
 A T T A C H E D   F I L E S
 ===========================
  
 CREATE - Data File:    TZ2P-C
                        Carbon (TZ2P)



 ===============================
 M O D E L   P A R A M E T E R S
 ===============================
  
 DENSITY FUNCTIONAL POTENTIAL (scf)
    LDA:                               Exchange only                           == Not Default ==
    Gradient Corrections:              Becke88 LYP                             == Not Default ==

 SPIN  (restricted / unrestr.)
    Molecule:                          Restricted                               

 OTHER ASPECTS
    Relativistic Corrections:          ---                                      

    Nuclear Charge Density Model:      Point Charge Nuclei                      
    Core Treatment:                    Frozen Orbital(s)                        

    Hyperfine or Zeeman Interaction:   ---                                      



 =====================================
 S Y M M E T R Y ,   E L E C T R O N S
 =====================================
  
 Symmetry: ATOM

 Irreducible Representations, including subspecies
 -------------------------------------------------
 S
 P:x  P:y  P:z
 D:z2  D:x2-y2  D:xy  D:xz  D:yz
 F:z3  F:z  F:xyz  F:z2x  F:z2y  F:x  F:y


 Configuration of Valence Electrons
 ==================================

          Occupation Numbers
          -------------------------------------------------
 S        2*2
 P        2
 D        0
 F        0
          -------------------------------------------------

 Total:   6

 Net Charge: 0 (Nuclei minus Electrons)

 Preset values for MO occupations will be applied through SCF cycle no. 1000000
 Thereafter, the program will assign electrons to MOs that are spatially
 similar to the occupied MOs in a "reference" cycle ("KeepOrbitals").
 The reference cycle is always the PREVIOUS cycle: it will evolve with
 the SCF procedure.



 ================================
 (Slater-type)  F U N C T I O N S  ***  (Basis and Fit)  ***
 ================================
  

 Atom Type    1  (C)
 ==============

 Valence Basis Sets:  10
 -----------------------
   1 S    7.680000
   1 S    5.000000
   2 S    1.280000
   2 S    2.100000
   2 S    4.600000
   2 P    0.820000
   2 P    1.480000
   2 P    2.940000
   3 D    2.200000
   4 F    3.300000


 BAS: List of all Elementary Cartesian Basis Functions
 =====================================================

 The numbering in the list below (to the right of the function characteristics) is referred
 to in print-outs of MO eigenvectors and Mulliken populations in the BAS representation
 (as contrasted to the SFO representation).

 Notes:
 1. The functions are characterized by a polynomial prefactor (powers of x,y,z and r) and
    an exponential decay factor alpha.
 2. Since the basis sets are specific for an atom TYPE, the individual functions occur on
    all atoms of that type.
 3. The word 'Core' in the left margin signals that it is a Core Function (CF) : not a
    degree of freedom in the valence set, but only used to ensure orthogonalization of
    the other valence basis functions on the frozen Core Orbitals.


 (power of) X  Y  Z  R     Alpha  on Atom
            ==========     =====     ==========

 C                                    1
                                  ---------------------------------------------------------------------------
            0  0  0  0     7.680      1
            0  0  0  0     5.000      2
            0  0  0  1     1.280      3
            0  0  0  1     2.100      4
            0  0  0  1     4.600      5
            1  0  0  0     0.820      6
            0  1  0  0     0.820      7
            0  0  1  0     0.820      8
            1  0  0  0     1.480      9
            0  1  0  0     1.480     10
            0  0  1  0     1.480     11
            1  0  0  0     2.940     12
            0  1  0  0     2.940     13
            0  0  1  0     2.940     14
            2  0  0  0     2.200     15
            1  1  0  0     2.200     16
            1  0  1  0     2.200     17
            0  2  0  0     2.200     18
            0  1  1  0     2.200     19
            0  0  2  0     2.200     20
            3  0  0  0     3.300     21
            2  1  0  0     3.300     22
            2  0  1  0     3.300     23
            1  2  0  0     3.300     24
            1  1  1  0     3.300     25
            1  0  2  0     3.300     26
            0  3  0  0     3.300     27
            0  2  1  0     3.300     28
            0  1  2  0     3.300     29
            0  0  3  0     3.300     30

 Total number of charge fitting functions (nprimf)        84
 Total number of Cartesian basis functions (naos)         30
 Total number of Cartesian core functions  (ncos)          0



 BAS: List of all Elementary Cartesian Basis Functions
 =====================================================

 The numbering in the list below (to the right of the function characteristics) is referred
 to in print-outs of MO eigenvectors and Mulliken populations in the BAS representation
 (as contrasted to the SFO representation).

 Notes:
 1. The functions are characterized by a polynomial prefactor (powers of x,y,z and r) and
    an exponential decay factor alpha.
 2. Since the basis sets are specific for an atom TYPE, the individual functions occur on
    all atoms of that type.
 3. The word 'Core' in the left margin signals that it is a Core Function (CF) : not a
    degree of freedom in the valence set, but only used to ensure orthogonalization of
    the other valence basis functions on the frozen Core Orbitals.


 (power of) X  Y  Z  R     Alpha  on Atom
            ==========     =====     ==========

 C                                    1
                                  ---------------------------------------------------------------------------
            0  0  0  0     7.680      1
            0  0  0  0     5.000      2
            0  0  0  1     1.280      3
            0  0  0  1     2.100      4
            0  0  0  1     4.600      5
            1  0  0  0     0.820      6
            0  1  0  0     0.820      7
            0  0  1  0     0.820      8
            1  0  0  0     1.480      9
            0  1  0  0     1.480     10
            0  0  1  0     1.480     11
            1  0  0  0     2.940     12
            0  1  0  0     2.940     13
            0  0  1  0     2.940     14
            2  0  0  0     2.200     15
            1  1  0  0     2.200     16
            1  0  1  0     2.200     17
            0  2  0  0     2.200     18
            0  1  1  0     2.200     19
            0  0  2  0     2.200     20
            3  0  0  0     3.300     21
            2  1  0  0     3.300     22
            2  0  1  0     3.300     23
            1  2  0  0     3.300     24
            1  1  1  0     3.300     25
            1  0  2  0     3.300     26
            0  3  0  0     3.300     27
            0  2  1  0     3.300     28
            0  1  2  0     3.300     29
            0  0  3  0     3.300     30
1
 ***************************************************************************************************



                                              ***********************
                                              *  T E C H N I C A L  *
                                              ***********************
  



 =============================================================
 P A R A L L E L I Z A T I O N  and  V E C T O R I Z A T I O N
 =============================================================
  
 Nr of parallel processes:                                1
 Maximum vector length in NumInt loops:                 128

 IO buffersize (Mb):                                     64.000000



 =====================
 S C F   U P D A T E S
 =====================
  
 Max. nr. of cycles:                               300
 Convergence criterion:                              0.0000000100
   secondary criterion:                              0.0000000100

 Mix parameter (when DIIS does not apply):           0.2000000000
 Special mix parameter for the first cycle:          1.0000000000
 Mixed ADIIS+DIIS will be used
    Max number of expansion vectors:                10
    Pure ADIIS when Max([F,P]) is above              0.1000000000
    Pure DIIS when Max([F,P]) is below               0.0010000000
 Automatic ElectronSmearing (in case of problematic SCF convergence) disabled



 =================
 P R E C I S I O N  ***  (General: NumInt, NeglectFunctionTails, ...)  ***
 =================
  

 NumInt:           Target precision:                12.0000000000
 -------           Initial precision:               10.0000000000
                   Min. precision (optimization):   10.0000000000

 Neglect Functions:          Basis functions:        0.1000000000E-13
 ------------------          Fit functions:          0.1000000000E-13



 ===========================
 L I N E A R   S C A L I N G
 ===========================
  

 Cut-off radii density fit:                        0.1000000000E-97
 Overlap cut-off criterion AO matrix elements:     0.1000000000E-97
 Cut-offs for Coulomb potential and fitted density:0.1000000000E-97
 Cut-off criterion for Coulomb multipole terms:    0.1000000000E-97
 Progressive Convergence parameter:                 0.000000000    
1
 ***************************************************************************************************



                                            ***************************
                                            *  C O M P U T A T I O N  *
                                            ***************************
  

 Number of elements of the density matrix on this node (used, total):       465       465



 ===========================================
 Numerical Integration : Fuzzy Cells (Becke)
 ===========================================
  
 Becke grid quality: VERYGOOD       
  
 Lebedev angular grid order:             min:  13 max:  41
 Nr. of radial points:                   min:  72 max:  72

 Total nr. of points:         72
 Nr. of blocks:                1
 Block length:                72
 Nr. of dummy points:          0


 Test of Precision of the Numerical Integration Grid
 ===================================================

 Integral of the Total Core Density:                   0.00000000000000



 ========================
 Density Fitting (zlmFit)
 ========================
  
 ZlmFit Fit Quality: VERYGOOD       
  
 Max L-expansion:                        min:   0 max:   0
 Nr. of radial interpolation points:     min: 160 max: 160



 =====
 S C F  ***  ScaSCF  ***
 =====
  

 CYCLE    1
 SCF Error: norm([F,P])=      0.000000000000, max([F,P])=      0.000000000000
 orbitals (Q,E):
 ---------------
 S :1...5            ( 2.00   -17.9995)  ( 2.00    -4.4761)  ( 0.00    -1.9482)  ( 0.00     0.6812)
                     ( 0.00    42.8100)
 P :1...3            ( 2.00    -4.4994)  ( 0.00    -1.9807)  ( 0.00    -1.0849)
 D :1...1            ( 0.00    -1.9800)
 F :1...1            ( 0.00     0.4950)

 CYCLE    2
  SDIIS (wt  0.000):  1.0000 -0.0000
 A-DIIS (wt  1.000):  0.0000  1.0000
  DIIS coefficients:  0.0000  1.0000
 SCF Error: norm([F,P])=      4.480319744476, max([F,P])=      3.328841325837
 orbitals (Q,E):
 ---------------
 S :1...3            ( 2.00    -7.7917)  ( 2.00    -0.0500)  ( 0.00     0.8490)
 P :1...2            ( 2.00     0.1033)  ( 0.00     0.5895)
 D :1...1            ( 0.00     1.7552)
 F :1...1            ( 0.00     4.6366)

 CYCLE    3
  SDIIS (wt  0.000):  0.2185  0.7815
 A-DIIS (wt  1.000):  0.1233  0.8767
  DIIS coefficients:  0.1233  0.8767
 SCF Error: norm([F,P])=      1.636788894664, max([F,P])=      1.315295345514
 orbitals (Q,E):
 ---------------
 S :1...3            ( 2.00   -10.9862)  ( 2.00    -0.9428)  ( 0.00     0.1231)
 P :1...2            ( 2.00    -0.6386)  ( 0.00     0.0246)
 D :1...1            ( 0.00     0.8395)
 F :1...1            ( 0.00     3.5625)

 CYCLE    4
  SDIIS (wt  0.000): -0.0629  0.2184  0.8445
 A-DIIS (wt  1.000):  0.0000  0.0872  0.9128
  DIIS coefficients:  0.0000  0.0872  0.9128
 SCF Error: norm([F,P])=      0.722267649759, max([F,P])=      0.580815510644
 orbitals (Q,E):
 ---------------
 S :1...3            ( 2.00    -9.6419)  ( 2.00    -0.3647)  ( 0.00     0.4682)
 P :1...2            ( 2.00    -0.0765)  ( 0.00     0.2450)
 D :1...1            ( 0.00     1.3742)
 F :1...1            ( 0.00     4.1720)

 CYCLE    5
  SDIIS (wt  0.000): -0.0214 -0.0561  0.3847  0.6927
 A-DIIS (wt  1.000):  0.0000  0.0000  0.2646  0.7354
  DIIS coefficients:  0.0000  0.0000  0.2646  0.7354
 SCF Error: norm([F,P])=      0.412794757847, max([F,P])=      0.328642040749
 orbitals (Q,E):
 ---------------
 S :1...3            ( 2.00   -10.1968)  ( 2.00    -0.5643)  ( 0.00     0.3336)
 P :1...2            ( 2.00    -0.2533)  ( 0.00     0.1428)
 D :1...1            ( 0.00     1.1818)
 F :1...1            ( 0.00     3.9467)

 CYCLE    6
  SDIIS (wt  0.032):  0.0025 -0.0116 -0.0698  0.2077  0.8712
 A-DIIS (wt  0.968):  0.0000  0.0000  0.0000  0.0000  1.0000
  DIIS coefficients:  0.0001 -0.0004 -0.0022  0.0066  0.9959
 SCF Error: norm([F,P])=      0.126643163176, max([F,P])=      0.096847488733
 orbitals (Q,E):
 ---------------
 S :1...3            ( 2.00    -9.9458)  ( 2.00    -0.4545)  ( 0.00     0.4037)
 P :1...2            ( 2.00    -0.1511)  ( 0.00     0.1903)
 D :1...1            ( 0.00     1.2866)
 F :1...1            ( 0.00     4.0669)

 CYCLE    7
  SDIIS (wt  0.100): -0.0001  0.0030  0.0073 -0.1526  0.2846  0.8578
 A-DIIS (wt  0.900):  0.0000  0.0000  0.0000  0.0000  0.4446  0.5554
  DIIS coefficients: -0.0000  0.0003  0.0007 -0.0152  0.4286  0.5856
 SCF Error: norm([F,P])=      0.115568228223, max([F,P])=      0.090123764632
 orbitals (Q,E):
 ---------------
 S :1...3            ( 2.00   -10.0697)  ( 2.00    -0.5032)  ( 0.00     0.3719)
 P :1...2            ( 2.00    -0.1955)  ( 0.00     0.1673)
 D :1...1            ( 0.00     1.2400)
 F :1...1            ( 0.00     4.0128)

 CYCLE    8
  SDIIS (wt  0.958): -0.0001  0.0006  0.0026 -0.0162 -0.0129  0.1023  0.9238
 A-DIIS (wt  0.042):  0.0000  0.0000  0.0000  0.0000  0.0000  0.0000  1.0000
  DIIS coefficients: -0.0001  0.0005  0.0025 -0.0155 -0.0124  0.0980  0.9270
 SCF Error: norm([F,P])=      0.006629277794, max([F,P])=      0.005140885246
 orbitals (Q,E):
 ---------------
 S :1...3            ( 2.00   -10.0626)  ( 2.00    -0.5000)  ( 0.00     0.3739)
 P :1...2            ( 2.00    -0.1926)  ( 0.00     0.1686)
 D :1...1            ( 0.00     1.2431)
 F :1...1            ( 0.00     4.0163)

 CYCLE    9
  SDIIS (wt  1.000): -0.0000 -0.0000 -0.0000 -0.0000  0.0023 -0.0004 -0.0164  1.0145
  DIIS coefficients: -0.0000 -0.0000 -0.0000 -0.0000  0.0023 -0.0004 -0.0164  1.0145
 SCF Error: norm([F,P])=      0.000215737590, max([F,P])=      0.000163422091
 orbitals (Q,E):
 ---------------
 S :1...3            ( 2.00   -10.0628)  ( 2.00    -0.5001)  ( 0.00     0.3739)
 P :1...2            ( 2.00    -0.1927)  ( 0.00     0.1686)
 D :1...1            ( 0.00     1.2430)
 F :1...1            ( 0.00     4.0162)

 CYCLE   10
  SDIIS (wt  1.000):  0.0000 -0.0000 -0.0000  0.0001  0.0000 -0.0011  0.0167  0.9843
  DIIS coefficients:  0.0000 -0.0000 -0.0000  0.0001  0.0000 -0.0011  0.0167  0.9843
 SCF Error: norm([F,P])=      0.000001946474, max([F,P])=      0.000001322854
 orbitals (Q,E):
 ---------------
 S :1...3            ( 2.00   -10.0628)  ( 2.00    -0.5001)  ( 0.00     0.3739)
 P :1...2            ( 2.00    -0.1927)  ( 0.00     0.1686)
 D :1...1            ( 0.00     1.2430)
 F :1...1            ( 0.00     4.0162)

 CYCLE   11
  SDIIS (wt  1.000):  0.0000 -0.0000 -0.0002 -0.0078  1.0079
  DIIS coefficients:  0.0000 -0.0000 -0.0002 -0.0078  1.0079
 SCF Error: norm([F,P])=      0.000000018017, max([F,P])=      0.000000015021
 orbitals (Q,E):
 ---------------
 S :1...3            ( 2.00   -10.0628)  ( 2.00    -0.5001)  ( 0.00     0.3739)
 P :1...2            ( 2.00    -0.1927)  ( 0.00     0.1686)
 D :1...1            ( 0.00     1.2430)
 F :1...1            ( 0.00     4.0162)

 CYCLE   12
  SDIIS (wt  1.000):  0.0000 -0.0001  0.0057  0.9944
  DIIS coefficients:  0.0000 -0.0001  0.0057  0.9944
 SCF Error: norm([F,P])=      0.000000000214, max([F,P])=      0.000000000163
 orbitals (Q,E):
 ---------------
 S :1...3            ( 2.00   -10.0628)  ( 2.00    -0.5001)  ( 0.00     0.3739)
 P :1...2            ( 2.00    -0.1927)  ( 0.00     0.1686)
 D :1...1            ( 0.00     1.2430)
 F :1...1            ( 0.00     4.0162)

 SCF CONVERGED

 CYCLE   13
1
 ***************************************************************************************************



                                                *******************
                                                *  R E S U L T S  *
                                                *******************
  
 *** Setting up for NEW gradients in Focky
 *** Using FIT density in Focky

 Orbital Energies, per Irrep and Spin:
[...]
    6.C          0.385   0.005  -0.000        -0.000   0.000  -0.000         0.000   0.000   0.000
    7.O         -0.141  -0.002  -0.000        -0.000  -0.000   0.000         0.000   0.000  -0.000
    8.C          0.114   0.006  -0.040         0.403   0.000   0.001        -0.057   0.001  -0.000
    9.O          0.128  -0.002  -0.006        -0.296   0.000   0.000         0.042  -0.000   0.000
   10.C          0.114   0.006   0.040        -0.403   0.000   0.001        -0.057   0.001   0.000
   11.O          0.128  -0.002   0.006         0.296   0.000   0.000         0.042  -0.000  -0.000


                      2236.751                      2236.824                      2239.587
              ------------------------      ------------------------      ------------------------
    1.Al         0.011  -0.001   0.000        -0.000   0.000   0.005        -0.000  -0.000  -0.005
    2.C          0.001   0.057   0.000        -0.000  -0.279   0.000        -0.000  -0.292  -0.000
    3.O         -0.000  -0.042  -0.000         0.000   0.204  -0.000         0.000   0.213  -0.000
    4.C          0.001   0.057  -0.000        -0.000   0.279   0.000        -0.000   0.292  -0.000
    5.O         -0.000  -0.042   0.000         0.000  -0.204  -0.000         0.000  -0.213  -0.000
    6.C          0.000  -0.000  -0.000        -0.000   0.000  -0.583        -0.000  -0.000   0.558
    7.O          0.000  -0.000   0.000        -0.000   0.000   0.428        -0.000   0.000  -0.407
    8.C         -0.567  -0.000  -0.000        -0.279   0.000   0.000        -0.292  -0.000  -0.000
    9.O          0.416   0.000   0.000         0.204   0.000  -0.000         0.213   0.000  -0.000
   10.C         -0.567  -0.000   0.000         0.279   0.000   0.000         0.292  -0.000  -0.000
   11.O          0.416   0.000  -0.000        -0.204  -0.000  -0.000        -0.213  -0.000  -0.000




 List of All Frequencies:


 Intensities
 ===========

               Frequency       Dipole Strength        Absorption Intensity (degeneracy not counted)
                 cm-1           1e-40 esu2 cm2          km/mole
              ----------          ----------          ----------
               41.753623            0.000000            0.000000
               76.537668            0.107214            0.002057
               76.537668            0.107214            0.002057
               87.892462            0.000000            0.000000
               99.415885          476.336255           11.869912
               99.415885          476.336255           11.869912
              107.903009          545.189371           14.745483
              180.483384            0.000000            0.000000
              224.262127           68.151674            3.830986
              262.695588           89.560756            5.897237
              262.695588           89.560756            5.897237
              271.184767            0.000000            0.000000
              271.533185          335.480638           22.833288
              292.945464            0.000000            0.000000
              316.991315          296.219682           23.536363
              316.991315          296.219682           23.536363
              351.006061            2.054960            0.180799
              351.006061            2.054960            0.180799
              383.518045          242.186271           23.281631
              397.006353            0.000000            0.000000
              408.106129          813.170289           83.182638
              408.106129          813.170289           83.182638
             2234.585157            0.000000            0.000000
             2236.750591            0.018113            0.010155
             2236.750591            0.018113            0.010155
             2236.824432            0.557061            0.312329
             2239.587076            0.174596            0.098012



 ============================
 Statistical Thermal Analysis  ***  ideal gas assumed  ***
 ============================
  
 Pressure:                  1.000000 atm.
 Temperature:             298.150000 K



 Moments of Inertia (and direction vectors)
 ==========================================

        2420.1948       2420.1948       3410.6644
 ------------------------------------------------
           1.0000          0.0000          0.0000
           0.0000          1.0000          0.0000
           0.0000          0.0000          1.0000


 The rotational contribution to the molecular entropy includes
 a term, dependent on the symmetry number sigma. The results 
 reported below were computed using sigma = 4, determined from
 the point group symmetry of the input geometry (C(4V)). 
 If this is not the correct symmetry, please contact SCM to report a bug.
 Contributions from frequencies below 20 1/cm are not included in
 the vibrational sums. Their contributions, if any, are reported separately.


     Temp                                                       Transl     Rotat    Vibrat     Total
     ----                                                       ------     -----    ------     -----

     298.15   Entropy (cal/mole-K):                             41.246    28.614    48.084   117.944
              Internal Energy (Kcal/mole):                       0.889     0.889    30.778    32.555
              Constant Volume Heat Capacity (cal/mole-K):        2.981     2.981    38.341    44.302

              Summary of energy terms
                                                   hartree              eV         kcal/mol           kJ/mol
                                      --------------------     -----------       ----------      -----------
              Bond Energy:              -1.445316101009628        -39.3291          -906.95         -3794.68
              Internal Energy:           0.051880204867303          1.4117            32.56           136.21
              pV/n = RT:                 0.000944186013486          0.0257             0.59             2.48
              Enthalpy H:               -1.392491710128839        -37.8916          -873.80         -3655.99
              -T*S:                     -0.056038971378292         -1.5249           -35.16          -147.13
              Gibbs free energy:        -1.448530681507131        -39.4165          -908.97         -3803.12
 

 ***************************************************************************************************
 


====================================================================
*** DONE CALCULATING ANALYTICAL SECOND DERIVATIVES OF THE ENERGY ***
====================================================================

 
 
 ========================
 No memory problems found
 ========================
 
 Maximum number of active allocate calls:        2520
 
 *******************************************************************************

                             A D F   E X I T
 NORMAL TERMINATION



 =================
 Timing Statistics
 =================
  
 Total Used :                     CPU=      142.62      System=        0.65     Elapsed=      143.53

 Calls  Section                     ( Mean, Percentage )
 ---------------------------------------------------------------------------------------------------
     3  ><      ................      0.00    0.00             0.00    0.00             0.00    0.00
     1  INIT    ................      0.46    0.33             0.03    4.01             0.49    0.34
     1  GEOMET  ................      0.05    0.04             0.01    1.70             0.06    0.04
     1  FRAGM   ................      0.03    0.02             0.02    2.62             0.06    0.04
     1  INPUTA  ................      0.00    0.00             0.00    0.00             0.00    0.00
     1  ATDEN   ................      0.01    0.01             0.00    0.31             0.01    0.01
     1  MAINSY  ................      0.02    0.01             0.03    4.32             0.06    0.04
     1  SYMFIT  ................      0.01    0.00             0.00    0.00             0.01    0.01
     1  CORORT  ................      0.00    0.00             0.00    0.00             0.00    0.00
     1  SYMORB  ................      0.01    0.01             0.00    0.31             0.01    0.01
     1  CLSMAT  ................      0.01    0.01             0.00    0.00             0.02    0.01
     1  ORTHON  ................      0.02    0.01             0.00    0.15             0.02    0.01
     1  GENPT   ................      0.19    0.14             0.01    2.01             0.21    0.15
     1  PTBAS   ................      0.55    0.38             0.00    0.46             0.55    0.38
    14  FOCKY   ................      0.81    7.93             0.00    4.17             0.81    7.91
    14  FOCKTR  ................      0.00    0.05             0.00    0.31             0.01    0.05
    14  SDIIS   ................      0.01    0.05             0.00    0.46             0.01    0.06
     1  COREPS  ................      0.58    0.41             0.00    0.00             0.59    0.41
     1  TOTEN   ................      2.50    1.75             0.01    1.85             2.51    1.75
     1  POPAN   ................      0.01    0.00             0.00    0.15             0.01    0.01
     1  DEBYE   ................      0.02    0.01             0.00    0.00             0.02    0.01
     1  INPUTE  ................      0.00    0.00             0.00    0.00             0.00    0.00
     1  SYMORE  ................      0.00    0.00             0.00    0.00             0.00    0.00
     1  METS    ................      0.00    0.00             0.00    0.00             0.00    0.00
     1  CETS    ................      0.01    0.01             0.00    0.00             0.01    0.01
     2  ELNRGY  ................      1.28    1.79             0.00    0.46             1.28    1.78
     1  POPUL   ................      0.03    0.02             0.00    0.46             0.05    0.04
     1  ENGRAD  ................      0.00    0.00             0.00    0.00             0.00    0.00
     1  ENHESS  ................    124.06   86.98             0.49   75.62           124.70   86.88
     1  EXIT PROCEDURE .........      0.04    0.03             0.00    0.62             0.05    0.03


 Currently Open Files (EXIT00)
 ====================

 Unit    Access Format  Status   Type       Ident (file)
 -------------------------------------------------------
   3      SEQ    FORM   TRANSP  NORMAL      LOGFILE
                                          ( logfile )


 Buffered I/O statistics
 =======================
 Memory available:                     67108864
 Number of records fitting in memory:     16131
 Input :   0.2% of                       658946  *4k bytes
 Output:   5.3% of                        30070  *4k bytes
 Records from serial files evicted:           0
                    others evicted:           0
 Hash table lookups:    1752130 with          0 conflicts (  0.00%)

 ***************************************************************************************************
 (LOGFILE)
 <May19-2019> <11:19:14>  ADF 2017  RunTime: May19-2019 11:19:14  Nodes: 1  Procs: 1
 <May19-2019> <11:19:14>  Aluminium (TZ2P)
 <May19-2019> <11:19:14>  RunType   : CREATE
 <May19-2019> <11:19:14>  Net Charge: 0 (Nuclei minus Electrons)
 <May19-2019> <11:19:14>  Symmetry  : ATOM
  Coordinates
    Atom         X           Y           Z   (Angstrom)
    1.Al        0.000000    0.000000    0.000000
 <May19-2019> <11:19:14>  >>>> CORORT
 <May19-2019> <11:19:14>  >>>> CLSMAT
 <May19-2019> <11:19:14>  >>>> ORTHON
 <May19-2019> <11:19:14>  >>>> GENPT
 <May19-2019> <11:19:14>  Block Length=  85
 <May19-2019> <11:19:14>  >>>> PTBAS
 <May19-2019> <11:19:14>  >>>> CYCLE
 <May19-2019> <11:19:14>              |Error|         MaxErr       Wt(A-DIIS)
 <May19-2019> <11:19:14>      1      0.00000000      0.00000000
 <May19-2019> <11:19:14>      2     19.70318713      6.54278611    100.0
 <May19-2019> <11:19:14>      3     10.43785801      6.31470634    100.0
 <May19-2019> <11:19:14>      4      2.40066795      1.07561495    100.0
 <May19-2019> <11:19:14>      5      0.91396511      0.36644375    100.0
 <May19-2019> <11:19:14>      6      0.43669019      0.17306322    100.0
 <May19-2019> <11:19:14>      7      0.22550980      0.08846827     88.4
 <May19-2019> <11:19:14>      8      0.10947051      0.04294602     42.4
 <May19-2019> <11:19:15>      9      0.02740991      0.01067534      9.8
 <May19-2019> <11:19:15>     10      0.00167945      0.00064873      0.0
 <May19-2019> <11:19:15>     11      0.00000203      0.00000086      0.0
 <May19-2019> <11:19:15>     12      0.00000001      0.00000001      0.0
 <May19-2019> <11:19:15>  SCF converged
 <May19-2019> <11:19:15>     13      0.00000000      0.00000000      0.0
 <May19-2019> <11:19:15>  >>>> POPAN
 <May19-2019> <11:19:15>  >>>> DEBYE
 <May19-2019> <11:19:15>  NORMAL TERMINATION
 <May19-2019> <11:19:15>  END
 <May19-2019> <11:19:15>  ADF 2017  RunTime: May19-2019 11:19:15  Nodes: 1  Procs: 1
 <May19-2019> <11:19:15>  Oxygen (TZ2P)
 <May19-2019> <11:19:15>  RunType   : CREATE
 <May19-2019> <11:19:15>  Net Charge: 0 (Nuclei minus Electrons)
 <May19-2019> <11:19:15>  Symmetry  : ATOM
  Coordinates
    Atom         X           Y           Z   (Angstrom)
    1.O         0.000000    0.000000    0.000000
 <May19-2019> <11:19:15>  >>>> CORORT
 <May19-2019> <11:19:15>  >>>> CLSMAT
 <May19-2019> <11:19:15>  >>>> ORTHON
 <May19-2019> <11:19:15>  >>>> GENPT
 <May19-2019> <11:19:15>  Block Length=  68
 <May19-2019> <11:19:15>  >>>> PTBAS
 <May19-2019> <11:19:15>  >>>> CYCLE
 <May19-2019> <11:19:15>              |Error|         MaxErr       Wt(A-DIIS)
 <May19-2019> <11:19:15>      1      0.00000000      0.00000000
 <May19-2019> <11:19:15>      2      8.76574541      5.51803131    100.0
 <May19-2019> <11:19:15>      3      3.58549945      2.49941011    100.0
 <May19-2019> <11:19:15>      4      1.14791911      0.58301962    100.0
 <May19-2019> <11:19:15>      5      1.51958547      0.84054201    100.0
 <May19-2019> <11:19:15>      6      0.17882893      0.10424203    100.0
 <May19-2019> <11:19:16>      7      0.20012529      0.11364913    100.0
 <May19-2019> <11:19:16>      8      0.01695178      0.00994720      9.0
 <May19-2019> <11:19:16>      9      0.00174843      0.00098437      0.0
 <May19-2019> <11:19:16>     10      0.00000143      0.00000071      0.0
 <May19-2019> <11:19:16>     11      0.00000005      0.00000002      0.0
 <May19-2019> <11:19:16>     12      0.00000000      0.00000000      0.0
 <May19-2019> <11:19:16>  SCF converged
 <May19-2019> <11:19:16>     13      0.00000000      0.00000000      0.0
 <May19-2019> <11:19:16>  >>>> POPAN
 <May19-2019> <11:19:16>  >>>> DEBYE
 <May19-2019> <11:19:16>  NORMAL TERMINATION
 <May19-2019> <11:19:16>  END
 <May19-2019> <11:19:16>  ADF 2017  RunTime: May19-2019 11:19:16  Nodes: 1  Procs: 1
 <May19-2019> <11:19:16>  Carbon (TZ2P)
 <May19-2019> <11:19:16>  RunType   : CREATE
 <May19-2019> <11:19:16>  Net Charge: 0 (Nuclei minus Electrons)
 <May19-2019> <11:19:16>  Symmetry  : ATOM
  Coordinates
    Atom         X           Y           Z   (Angstrom)
    1.C         0.000000    0.000000    0.000000
 <May19-2019> <11:19:16>  >>>> CORORT
 <May19-2019> <11:19:16>  >>>> CLSMAT
 <May19-2019> <11:19:16>  >>>> ORTHON
 <May19-2019> <11:19:16>  >>>> GENPT
 <May19-2019> <11:19:16>  Block Length=  72
 <May19-2019> <11:19:16>  >>>> PTBAS
 <May19-2019> <11:19:16>  >>>> CYCLE
 <May19-2019> <11:19:16>              |Error|         MaxErr       Wt(A-DIIS)
 <May19-2019> <11:19:16>      1      0.00000000      0.00000000
 <May19-2019> <11:19:16>      2      4.48031974      3.32884133    100.0
 <May19-2019> <11:19:16>      3      1.63678889      1.31529535    100.0
 <May19-2019> <11:19:16>      4      0.72226765      0.58081551    100.0
 <May19-2019> <11:19:16>      5      0.41279476      0.32864204    100.0
 <May19-2019> <11:19:16>      6      0.12664316      0.09684749     96.8
 <May19-2019> <11:19:16>      7      0.11556823      0.09012376     90.0
 <May19-2019> <11:19:16>      8      0.00662928      0.00514089      4.2
 <May19-2019> <11:19:16>      9      0.00021574      0.00016342      0.0
 <May19-2019> <11:19:17>     10      0.00000195      0.00000132      0.0
 <May19-2019> <11:19:17>     11      0.00000002      0.00000002      0.0
 <May19-2019> <11:19:17>     12      0.00000000      0.00000000      0.0
 <May19-2019> <11:19:17>  SCF converged
 <May19-2019> <11:19:17>     13      0.00000000      0.00000000      0.0
 <May19-2019> <11:19:17>  >>>> POPAN
 <May19-2019> <11:19:17>  >>>> DEBYE
 <May19-2019> <11:19:17>  NORMAL TERMINATION
 <May19-2019> <11:19:17>  END
 <May19-2019> <11:19:17>  ADF 2017  RunTime: May19-2019 11:19:17  Nodes: 1  Procs: 12
 <May19-2019> <11:19:17>  *** (NO TITLE) ***
 <May19-2019> <11:19:17>  RunType   : SINGLE POINT
 <May19-2019> <11:19:18>  Net Charge: 3 (Nuclei minus Electrons)
 <May19-2019> <11:19:18>  Symmetry  : C(4V)
 <May19-2019> <11:19:18>  >>>> FRAGM
  Coordinates
    Atom         X           Y           Z   (Angstrom)
    1.Al        0.000000    0.000000    0.000000
    2.C         0.000000    2.225999    0.000000
    3.O         0.000000    3.348199    0.000000
    4.C         0.000000   -2.225999    0.000000
    5.O         0.000000   -3.348199    0.000000
    6.C         0.000000    0.000000   -2.225999
    7.O         0.000000    0.000000   -3.348199
    8.C         2.225999    0.000000    0.000000
    9.O         3.348199    0.000000    0.000000
   10.C        -2.225999    0.000000    0.000000
   11.O        -3.348199    0.000000    0.000000
 <May19-2019> <11:19:18>  >>>> CORORT
 <May19-2019> <11:19:18>  >>>> CLSMAT
 <May19-2019> <11:19:18>  >>>> ORTHON
 <May19-2019> <11:19:18>  >>>> GENPT
 <May19-2019> <11:19:18>  Block Length= 128
 <May19-2019> <11:19:18>  >>>> PTBAS
 <May19-2019> <11:19:18>  >>>> CYCLE
 <May19-2019> <11:19:20>              |Error|         MaxErr       Wt(A-DIIS)
 <May19-2019> <11:19:20>      1      7.08314773      1.80157279
 <May19-2019> <11:19:20>      2      1.24314591      0.26993488    100.0
 <May19-2019> <11:19:21>      3      0.32227065      0.06149507    100.0
 <May19-2019> <11:19:22>      4      0.52228347      0.11163768    100.0
 <May19-2019> <11:19:23>      5      0.34746656      0.07431259     74.1
 <May19-2019> <11:19:24>      6      0.28654590      0.06435940     64.0
 <May19-2019> <11:19:24>      7      0.02307543      0.00573678      4.8
 <May19-2019> <11:19:25>      8      0.01289675      0.00462018      3.7
 <May19-2019> <11:19:26>      9      0.00190544      0.00089108      0.0
 <May19-2019> <11:19:27>     10      0.00027030      0.00004822      0.0
 <May19-2019> <11:19:28>     11      0.00005668      0.00001174      0.0
 <May19-2019> <11:19:28>     12      0.00001548      0.00000338      0.0
 <May19-2019> <11:19:29>     13      0.00000174      0.00000061      0.0
 <May19-2019> <11:19:29>  SCF converged
 <May19-2019> <11:19:30>     14      0.00000044      0.00000012      0.0
 <May19-2019> <11:19:31>  >>>> TOTEN
 <May19-2019> <11:19:33>  >>>> POPAN
 <May19-2019> <11:19:33>  >>>> DEBYE
 <May19-2019> <11:19:33>  >>>> AMETS
 <May19-2019> <11:19:33>   Bond Energy          -1.44531610 a.u.
 <May19-2019> <11:19:33>   Bond Energy         -39.32905218 eV
 <May19-2019> <11:19:33>   Bond Energy        -906.95       kcal/mol
 <May19-2019> <11:19:33>  >>>> POPUL
 <May19-2019> <11:19:33>  >>>> ENGRAD
 <May19-2019> <11:19:36>  >>>> ENHESS
 <May19-2019> <11:19:36>  === NUCLEUS:     1
 <May19-2019> <11:20:01>  === NUCLEUS:     2
 <May19-2019> <11:20:26>  === NUCLEUS:     4
 <May19-2019> <11:20:48>  === NUCLEUS:     7
 <May19-2019> <11:21:12>  === NUCLEUS:     9
 <May19-2019> <11:21:34>  >>>> CALC_HESS_PMAT
 <May19-2019> <11:21:39>  >>>> CALC_HESS_WMAT
 <May19-2019> <11:21:40>  NORMAL TERMINATION
 <May19-2019> <11:21:40>  END
