

 Parallel Execution: Process Information
 ==============================================================================
 Rank   Node Name                              NodeID   MyNodeRank  NodeMaster
    0   BAZIS-cn017                               0          0          0
    1   BAZIS-cn017                               0          1         -1
    2   BAZIS-cn017                               0          2         -1
    3   BAZIS-cn017                               0          3         -1
    4   BAZIS-cn017                               0          4         -1
    5   BAZIS-cn017                               0          5         -1
    6   BAZIS-cn017                               0          6         -1
    7   BAZIS-cn017                               0          7         -1
    8   BAZIS-cn017                               0          8         -1
    9   BAZIS-cn017                               0          9         -1
   10   BAZIS-cn017                               0         10         -1
   11   BAZIS-cn017                               0         11         -1
 ==============================================================================


May use up to 30771MB of RAM as shared memory on node 0


XC
    GGA BP86
END

SCF
    iterations 250
END

EPRINT
    SFO Eig Ovl
END

ZLMFIT
    Quality normal
END

BECKEGRID
    Quality good
End

SYMMETRY nosym
CHARGE -1

ATOMS
1.Br       -4.842128    2.971314   -0.046348 f=BrF
2.F        -3.733262    1.256876   -0.054555 f=BrF
3.Cl       -6.199991    5.070729   -0.036298 f=Cl
END

Fragments
BrF /home/tcst25/advanced_comp_chemistry/exercise2/halogen/FBrCl/frag1_BrF.t21
Cl /home/tcst25/advanced_comp_chemistry/exercise2/halogen/FBrCl/frag2_Cl.t21
End
end input

 *******************************************************************************
 *                                                                             *
 *  -------------------------------------                                      *
 *   Amsterdam Density Functional  (ADF)         2017                          *
 *  -------------------------------------                                      *
 *                                               r58813 2017-04-12             *
 *                                                                             *
 *                                                                             *
 *                              =================                              *
 *                              |               |                              *
 *                              |     A D F     |                              *
 *                              |               |                              *
 *                              =================                              *
 *                                                                             *
 *                                                                             *
 *   Online information and documentation:  https://www.scm.com/support/       *
 *   E-mail:  support@scm.com   info@scm.com                                   *
 *                                                                             *
 *   Scientific publications using ADF results must be properly referenced     *
 *   See the User Manuals (or the web site) for recommended citations          *
 *   The terms and conditions of the End User License Agreement apply to       *
 *   the use of ADF, https://www.scm.com/license-terms/                        *
 *                                                                             *
 **********************  x86_64_linux_intel / intelmpi  ************************
 
 Licensed to: VU/FEW (+ SARA) / ALGEMEEN / Amsterdam / THE NETHERLANDS
 SCM User ID: u7668
  
 ADF 2017  RunTime: May09-2019 17:12:12  Nodes: 1  Procs: 12

 Temporary files are created in /local/datastore0/tcst25/189784/kid_0.lST9MD


Communication costs MPI_COMM_WORLD:      3.851 usec per message,   0.0180 usec per 8-byte item
Communication costs for intra-node:      3.858 usec per message,   0.0179 usec per 8-byte item

 *** (NO TITLE) ***



 ===========================
 A T T A C H E D   F I L E S
 ===========================
  



 ===============================
 M O D E L   P A R A M E T E R S
 ===============================
  
 DENSITY FUNCTIONAL POTENTIAL (scf)
    LDA:                               VWN                                      
    Gradient Corrections:              Becke88 Perdew86                        == Not Default ==

 SPIN  (restricted / unrestr.)
    Molecule:                          Restricted                               
    Fragments:                         Restricted                               

 OTHER ASPECTS
    Relativistic Corrections:          ---                                      

    Nuclear Charge Density Model:      Point Charge Nuclei                      
    Core Treatment:                    Frozen Orbital(s)                        

    Hyperfine or Zeeman Interaction:   ---                                      


 Fragment File(s)
 ----------------
 BrF:
         file : /home/tcst25/advanced_comp_chemistry/exercise2/halogen/FBrCl/frag1_BrF.t21
         jobid: ADF 2017  RunTime: May09-2019 16:32:29  Nodes: 1  Procs: 12
         title: *** (NO TITLE) ***
 Cl:
         file : /home/tcst25/advanced_comp_chemistry/exercise2/halogen/FBrCl/frag2_Cl.t21
         jobid: ADF 2017  RunTime: May09-2019 16:32:29  Nodes: 1  Procs: 12
         title: *** (NO TITLE) ***



                                        ************************************
                                        *  R U N   T Y P E : SINGLE POINT  *
                                        ************************************
  



 ===============
 G E O M E T R Y  ***  Linear Molecule  ***
 ===============
  

 ATOMS
 =====                            X Y Z                    CHARGE
                                (Angstrom)             Nucl     +Core       At.Mass
                       --------------------------    ----------------       -------
    1  Br             -4.8421    2.9713   -0.0463     35.00     35.00       78.9183
    2  F              -3.7333    1.2569   -0.0546      9.00      9.00       18.9984
    3  Cl             -6.2000    5.0707   -0.0363     17.00     17.00       34.9689


 FRAGMENTS
 =========                                     Atoms in this Fragment     Cart. coord.s (Angstrom)
                                               -------------------------------------------------------
    1  BrF                                               1  Br          -4.8421    2.9713   -0.0463
                                                         2  F           -3.7333    1.2569   -0.0546
    2  Cl                                                3  Cl          -6.2000    5.0707   -0.0363


 Interatomic Distance Matrix (Angstrom)
 --------------------------------------

   1)     0.000
   2)     2.042   0.000
   3)     2.500   4.542   0.000

 Min. Distance =    2.0418
 Max. Distance =    4.5421



 =====================================
 S Y M M E T R Y ,   E L E C T R O N S
 =====================================
  
 Symmetry: NOSYM

 Irreducible Representations, including subspecies
 -------------------------------------------------
 A


 Configuration of Valence Electrons
 ==================================
 ( determined in the SCF procedure )

 Total:   62

 Net Charge: -1 (Nuclei minus Electrons)

 Aufbau principle for MO occupations will be applied through SCF cycle no.     125
 Thereafter, the program will assign electrons to MOs that are spatially
 similar to the occupied MOs in a "reference" cycle ("KeepOrbitals").
 The reference cycle is always the PREVIOUS cycle: it will evolve with
 the SCF procedure.
1
 ***************************************************************************************************



                                      ****************************************
                                      *  B U I L D : (Fragments, Functions)  *
                                      ****************************************
  

 The individual fragments are copies of the corresponding 'Master' fragments defined on the fragment files.
 However, they may have been rotated (and translated) with respect to the Master. The local coordinate axes
 of each fragment (which define for instance the spatial orientation in the current molecule of a fragment
 P:x orbital) are not necessarily those of the molecule.
 The local frame (if different from the molecular one) is printed to enable an interpretation of the expan-
 sion of an MO in Fragment Orbitals.



                                             *************************
                                             *  Fragment Type : BrF  *
                                             *************************
  

 Fragment no.    1   (in the list of all fragments)
 -----------------
 The local coordinate frame is identical to the molecular frame.

 Check Atomic Coordinates:

                  Master (on file)          After Computed Tranformation               As specified on Input
           ----------------------------     ----------------------------     ---------------------------------
     1)    -4.84213   2.97131  -0.04635     -4.84213   2.97131  -0.04635       1  -4.84213   2.97131  -0.04635
     2)    -3.73326   1.25688  -0.05455     -3.73326   1.25688  -0.05456       2  -3.73326   1.25688  -0.05456



                                              ************************
                                              *  Fragment Type : Cl  *
                                              ************************
  

 Fragment no.    2   (in the list of all fragments)
 -----------------
 The local coordinate frame is identical to the molecular frame.

 Check Atomic Coordinates:

                  Master (on file)          After Computed Tranformation               As specified on Input
           ----------------------------     ----------------------------     ---------------------------------
     1)    -6.19999   5.07073  -0.03630     -6.19999   5.07073  -0.03630       3  -6.19999   5.07073  -0.03630



 =======
 S F O s  ***  (Symmetrized Fragment Orbitals)  ***
 =======
  
 SFOs are linear combinations of (valence) Fragment Orbitals (FOs), such that the SFOs transform as the
 irreducible representations of the (molecular) symmetry group. Each SFO is therefore characterized by
 an irrep of the molecule and by a few (or only one) generating FOs.
 The SFOs constitute a symmetry-adapted basis for the Fock matrix. The MO eigenvector coefficients in
 this basis provide a direct interpretation of the MOs in terms of Frontier Orbital Theory.

 The SFOs are combined with auxiliary Core Functions (CFs) to ensure orthogonalization on the (frozen)
 Core Orbitals (COs). The Core-orthogonalized SFOs (CSFOs) constitute the true Fock basis.

 The FOs, and hence also the (C)SFOs are combinations of the elementary basis functions (BAS). The basis
 functions that participate in the description of the SFOs depend on the irrep. The indices of the
 involved functions are printed below for each irrep.
 (The complete list of primitive basis functions is printed in another section)

 Total nr. of (C)SFOs (summation over all irreps) :   116

 NOTE: a (C)SFO that is defined as a combination of more than one FO is usually NOT normalized.



                                       === A ===
 Nr. of SFOs :  116
 Cartesian basis functions that participate in this irrep (total number =   131) :
      1     2     3    10    11    36    37    38     4     7
     12    15    39    42    45     5     8    13    16    40
     43    46     6     9    14    17    41    44    47    18
     24    30    48    19    25    31    49    20    26    32
     50    21    27    33    51    22    28    34    52    23
     29    35    53    54    55    56    57    58    59    60
     61    62    63    64    65    66    67    68    69    72
     75    70    73    76    71    74    77    78    79    80
     81    82    83    84    85    86    87    88    89    90
     91    92    93    94    95    96    97   104   105   106
     98   101   107   110   113    99   102   108   111   114
    100   103   109   112   115   116   117   118   119   120
    121   122   123   124   125   126   127   128   129   130
    131

    SFO  (index         Fragment          Generating    Expansion in Fragment Orbitals
  indx  incl.CFs)   Occup   Orb.Energy   FragmentType  Coeff.   Orbital     on Fragment
 --------------------------------------------------------------------------------------
     1       1      2.000    -481.078 au  BrF           1.00      1 A               1
                        (  -13090.805 eV)
     2       2      2.000     -61.832 au  BrF           1.00      2 A               1
                        (   -1682.546 eV)
     3       3      2.000     -55.768 au  BrF           1.00      3 A               1
                        (   -1517.533 eV)
     4       4      2.000     -55.759 au  BrF           1.00      4 A               1
                        (   -1517.292 eV)
     5       5      2.000     -55.759 au  BrF           1.00      5 A               1
                        (   -1517.292 eV)
     6       6      2.000     -24.311 au  BrF           1.00      6 A               1
                        (    -661.528 eV)
     7       7      2.000      -8.452 au  BrF           1.00      7 A               1
                        (    -229.987 eV)
     8       8      2.000      -6.368 au  BrF           1.00      8 A               1
                        (    -173.290 eV)
     9       9      2.000      -6.343 au  BrF           1.00      9 A               1
                        (    -172.601 eV)
    10      10      2.000      -6.343 au  BrF           1.00     10 A               1
                        (    -172.600 eV)
    11      11      2.000      -2.571 au  BrF           1.00     11 A               1
                        (     -69.963 eV)
    12      12      2.000      -2.565 au  BrF           1.00     12 A               1
                        (     -69.798 eV)
    13      13      2.000      -2.565 au  BrF           1.00     13 A               1
                        (     -69.798 eV)
    14      14      2.000      -2.547 au  BrF           1.00     14 A               1
                        (     -69.297 eV)
    15      15      2.000      -2.547 au  BrF           1.00     15 A               1
                        (     -69.297 eV)
    16      16      2.000      -1.055 au  BrF           1.00     16 A               1
                        (     -28.709 eV)
    17      17      2.000      -0.740 au  BrF           1.00     17 A               1
                        (     -20.139 eV)
    18      18      2.000      -0.435 au  BrF           1.00     18 A               1
                        (     -11.842 eV)
    19      19      2.000      -0.367 au  BrF           1.00     19 A               1
                        (      -9.980 eV)
    20      20      2.000      -0.367 au  BrF           1.00     20 A               1
                        (      -9.980 eV)
    21      21      2.000      -0.291 au  BrF           1.00     21 A               1
                        (      -7.918 eV)
    22      22      2.000      -0.291 au  BrF           1.00     22 A               1
                        (      -7.918 eV)
    23      23       --        -0.239 au  BrF           1.00     23 A               1
                        (      -6.492 eV)
    24      24       --         0.030 au  BrF           1.00     24 A               1
                        (       0.819 eV)
    25      25       --         0.122 au  BrF           1.00     25 A               1
                        (       3.328 eV)
    26      26       --         0.129 au  BrF           1.00     26 A               1
                        (       3.518 eV)
    27      27       --         0.129 au  BrF           1.00     27 A               1
                        (       3.518 eV)
    28      28       --         0.242 au  BrF           1.00     28 A               1
                        (       6.582 eV)
    29      29       --         0.242 au  BrF           1.00     29 A               1
                        (       6.582 eV)
    30      30       --         0.248 au  BrF           1.00     30 A               1
                        (       6.756 eV)
    31      31       --         0.248 au  BrF           1.00     31 A               1
                        (       6.757 eV)
    32      32       --         0.257 au  BrF           1.00     32 A               1
                        (       6.988 eV)
    33      33       --         0.434 au  BrF           1.00     33 A               1
                        (      11.801 eV)
    34      34       --         0.565 au  BrF           1.00     34 A               1
                        (      15.382 eV)
    35      35       --         0.565 au  BrF           1.00     35 A               1
                        (      15.382 eV)
    36      36       --         0.683 au  BrF           1.00     36 A               1
                        (      18.575 eV)
    37      37       --         0.793 au  BrF           1.00     37 A               1
                        (      21.581 eV)
    38      38       --         0.793 au  BrF           1.00     38 A               1
                        (      21.581 eV)
    39      39       --         0.834 au  BrF           1.00     39 A               1
                        (      22.706 eV)
    40      40       --         0.834 au  BrF           1.00     40 A               1
                        (      22.706 eV)
    41      41       --         0.839 au  BrF           1.00     41 A               1
                        (      22.840 eV)
    42      42       --         0.839 au  BrF           1.00     42 A               1
                        (      22.840 eV)
    43      43       --         0.970 au  BrF           1.00     43 A               1
                        (      26.399 eV)
    44      44       --         1.179 au  BrF           1.00     44 A               1
                        (      32.073 eV)
    45      45       --         1.179 au  BrF           1.00     45 A               1
                        (      32.074 eV)
    46      46       --         1.245 au  BrF           1.00     46 A               1
                        (      33.889 eV)
    47      47       --         1.245 au  BrF           1.00     47 A               1
                        (      33.890 eV)
    48      48       --         1.253 au  BrF           1.00     48 A               1
                        (      34.102 eV)
    49      49       --         1.379 au  BrF           1.00     49 A               1
                        (      37.529 eV)
    50      50       --         1.572 au  BrF           1.00     50 A               1
                        (      42.763 eV)
    51      51       --         1.572 au  BrF           1.00     51 A               1
                        (      42.764 eV)
    52      52       --         2.367 au  BrF           1.00     52 A               1
                        (      64.408 eV)
    53      53       --         2.624 au  BrF           1.00     53 A               1
                        (      71.398 eV)
    54      54       --         2.657 au  BrF           1.00     54 A               1
                        (      72.297 eV)
    55      55       --         2.657 au  BrF           1.00     55 A               1
                        (      72.300 eV)
    56      56       --         2.812 au  BrF           1.00     56 A               1
                        (      76.507 eV)
    57      57       --         2.812 au  BrF           1.00     57 A               1
                        (      76.507 eV)
    58      58       --         3.405 au  BrF           1.00     58 A               1
                        (      92.647 eV)
    59      59       --         3.470 au  BrF           1.00     59 A               1
                        (      94.434 eV)
    60      60       --         3.470 au  BrF           1.00     60 A               1
                        (      94.434 eV)
    61      61       --         3.519 au  BrF           1.00     61 A               1
                        (      95.767 eV)
    62      62       --         3.519 au  BrF           1.00     62 A               1
                        (      95.768 eV)
    63      63       --         3.675 au  BrF           1.00     63 A               1
                        (     100.005 eV)
    64      64       --         3.675 au  BrF           1.00     64 A               1
                        (     100.005 eV)
    65      65       --         3.706 au  BrF           1.00     65 A               1
                        (     100.839 eV)
    66      66       --         4.790 au  BrF           1.00     66 A               1
                        (     130.356 eV)
    67      67       --         4.791 au  BrF           1.00     67 A               1
                        (     130.357 eV)
    68      68       --         5.173 au  BrF           1.00     68 A               1
                        (     140.754 eV)
    69      69       --         8.820 au  BrF           1.00     69 A               1
                        (     239.997 eV)
    70      70       --         8.820 au  BrF           1.00     70 A               1
                        (     240.006 eV)
    71      71       --         9.093 au  BrF           1.00     71 A               1
                        (     247.426 eV)
    72      72       --        14.703 au  BrF           1.00     72 A               1
                        (     400.089 eV)
    73      73       --        20.578 au  BrF           1.00     73 A               1
                        (     559.945 eV)
    74      74       --        20.578 au  BrF           1.00     74 A               1
                        (     559.947 eV)
    75      75       --        20.760 au  BrF           1.00     75 A               1
                        (     564.918 eV)
    76      76       --        20.761 au  BrF           1.00     76 A               1
                        (     564.923 eV)
    77      77       --        21.069 au  BrF           1.00     77 A               1
                        (     573.318 eV)
    78      78       --        50.790 au  BrF           1.00     78 A               1
                        (    1382.067 eV)
    79      79       --       100.864 au  BrF           1.00     79 A               1
                        (    2744.647 eV)
    80      80       --       100.864 au  BrF           1.00     80 A               1
                        (    2744.649 eV)
    81      81       --       101.499 au  BrF           1.00     81 A               1
                        (    2761.915 eV)
    82      82       --       748.404 au  BrF           1.00     82 A               1
                        (   20365.121 eV)
    83      83      2.000    -100.372 au  Cl            1.00      1 A               2
                        (   -2731.270 eV)
    84      84      2.000      -8.827 au  Cl            1.00      2 A               2
                        (    -240.193 eV)
    85      85      2.000      -6.649 au  Cl            1.00      3 A               2
                        (    -180.916 eV)
    86      86      2.000      -6.649 au  Cl            1.00      4 A               2
                        (    -180.916 eV)
    87      87      2.000      -6.649 au  Cl            1.00      5 A               2
                        (    -180.916 eV)
    88      88      2.000      -0.385 au  Cl            1.00      6 A               2
                        (     -10.473 eV)
    89      89      2.000       0.033 au  Cl            1.00      7 A               2
                        (       0.909 eV)
    90      90      2.000       0.033 au  Cl            1.00      8 A               2
                        (       0.909 eV)
    91      91      2.000       0.033 au  Cl            1.00      9 A               2
                        (       0.909 eV)
    92      92       --         0.475 au  Cl            1.00     10 A               2
                        (      12.914 eV)
    93      93       --         0.489 au  Cl            1.00     11 A               2
                        (      13.299 eV)
    94      94       --         0.489 au  Cl            1.00     12 A               2
                        (      13.299 eV)
    95      95       --         0.489 au  Cl            1.00     13 A               2
                        (      13.299 eV)
    96      96       --         0.741 au  Cl            1.00     14 A               2
                        (      20.162 eV)
    97      97       --         0.741 au  Cl            1.00     15 A               2
                        (      20.162 eV)
    98      98       --         0.741 au  Cl            1.00     16 A               2
                        (      20.162 eV)
    99      99       --         0.741 au  Cl            1.00     17 A               2
                        (      20.162 eV)
   100     100       --         0.741 au  Cl            1.00     18 A               2
                        (      20.162 eV)
   101     101       --         1.518 au  Cl            1.00     19 A               2
                        (      41.294 eV)
   102     102       --         1.518 au  Cl            1.00     20 A               2
                        (      41.294 eV)
   103     103       --         1.518 au  Cl            1.00     21 A               2
                        (      41.294 eV)
   104     104       --         1.518 au  Cl            1.00     22 A               2
                        (      41.294 eV)
   105     105       --         1.518 au  Cl            1.00     23 A               2
                        (      41.294 eV)
   106     106       --         1.518 au  Cl            1.00     24 A               2
                        (      41.294 eV)
   107     107       --         1.518 au  Cl            1.00     25 A               2
                        (      41.294 eV)
   108     108       --         2.351 au  Cl            1.00     26 A               2
                        (      63.962 eV)
   109     109       --         2.448 au  Cl            1.00     27 A               2
                        (      66.612 eV)
   110     110       --         2.448 au  Cl            1.00     28 A               2
                        (      66.612 eV)
   111     111       --         2.448 au  Cl            1.00     29 A               2
                        (      66.612 eV)
   112     112       --        13.113 au  Cl            1.00     30 A               2
                        (     356.814 eV)
   113     113       --        19.210 au  Cl            1.00     31 A               2
                        (     522.735 eV)
   114     114       --        19.210 au  Cl            1.00     32 A               2
                        (     522.735 eV)
   115     115       --        19.210 au  Cl            1.00     33 A               2
                        (     522.735 eV)
   116     116       --       215.062 au  Cl            1.00     34 A               2
                        (    5852.138 eV)



 ================================
 (Slater-type)  F U N C T I O N S  ***  (Basis and Fit)  ***
 ================================
  

 Atom Type    1  (Br)
 ==============

 Valence Basis Sets:  20
 -----------------------
   1 S   41.300000
   1 S   32.800000
   2 S   13.900000
   2 P   19.450000
   2 P   13.100000
   3 S    7.200000
   3 S    4.950000
   3 P    7.900000
   3 P    5.050000
   3 D   10.900000
   3 D    6.050000
   3 D    3.500000
   4 S    4.500000
   4 S    2.800000
   4 S    1.800000
   4 P    3.250000
   4 P    1.950000
   4 P    1.200000
   4 D    1.800000
   4 F    1.800000

 Atom Type    2  (F)
 ==============

 Valence Basis Sets:  10
 -----------------------
   1 S   10.880000
   1 S    7.700000
   2 S    3.240000
   2 S    1.940000
   2 S    0.740000
   2 P    4.540000
   2 P    2.300000
   2 P    1.240000
   3 D    2.000000
   4 F    3.000000

 Atom Type    3  (Cl)
 ==============

 Valence Basis Sets:  14
 -----------------------
   1 S   20.300000
   1 S   15.250000
   2 S    6.250000
   2 S    4.450000
   2 P    8.850000
   2 P    5.050000
   3 S    3.450000
   3 S    2.300000
   3 S    1.600000
   3 P    3.350000
   3 P    2.050000
   3 P    1.200000
   3 D    2.000000
   4 F    2.000000


 BAS: List of all Elementary Cartesian Basis Functions
 =====================================================

 The numbering in the list below (to the right of the function characteristics) is referred
 to in print-outs of MO eigenvectors and Mulliken populations in the BAS representation
 (as contrasted to the SFO representation).

 Notes:
 1. The functions are characterized by a polynomial prefactor (powers of x,y,z and r) and
    an exponential decay factor alpha.
 2. Since the basis sets are specific for an atom TYPE, the individual functions occur on
    all atoms of that type.
 3. The word 'Core' in the left margin signals that it is a Core Function (CF) : not a
    degree of freedom in the valence set, but only used to ensure orthogonalization of
    the other valence basis functions on the frozen Core Orbitals.


 (power of) X  Y  Z  R     Alpha  on Atom
            ==========     =====     ==========

 Br                                   1
                                  ---------------------------------------------------------------------------
            0  0  0  0    41.300      1
            0  0  0  0    32.800      2
            0  0  0  1    13.900      3
            1  0  0  0    19.450      4
            0  1  0  0    19.450      5
            0  0  1  0    19.450      6
            1  0  0  0    13.100      7
            0  1  0  0    13.100      8
            0  0  1  0    13.100      9
            0  0  0  2     7.200     10
            0  0  0  2     4.950     11
            1  0  0  1     7.900     12
            0  1  0  1     7.900     13
            0  0  1  1     7.900     14
            1  0  0  1     5.050     15
            0  1  0  1     5.050     16
            0  0  1  1     5.050     17
            2  0  0  0    10.900     18
            1  1  0  0    10.900     19
            1  0  1  0    10.900     20
            0  2  0  0    10.900     21
            0  1  1  0    10.900     22
            0  0  2  0    10.900     23
            2  0  0  0     6.050     24
            1  1  0  0     6.050     25
            1  0  1  0     6.050     26
            0  2  0  0     6.050     27
            0  1  1  0     6.050     28
            0  0  2  0     6.050     29
            2  0  0  0     3.500     30
            1  1  0  0     3.500     31
            1  0  1  0     3.500     32
            0  2  0  0     3.500     33
            0  1  1  0     3.500     34
            0  0  2  0     3.500     35
            0  0  0  3     4.500     36
            0  0  0  3     2.800     37
            0  0  0  3     1.800     38
            1  0  0  2     3.250     39
            0  1  0  2     3.250     40
            0  0  1  2     3.250     41
            1  0  0  2     1.950     42
            0  1  0  2     1.950     43
            0  0  1  2     1.950     44
            1  0  0  2     1.200     45
            0  1  0  2     1.200     46
            0  0  1  2     1.200     47
            2  0  0  1     1.800     48
            1  1  0  1     1.800     49
            1  0  1  1     1.800     50
            0  2  0  1     1.800     51
            0  1  1  1     1.800     52
            0  0  2  1     1.800     53
            3  0  0  0     1.800     54
            2  1  0  0     1.800     55
            2  0  1  0     1.800     56
            1  2  0  0     1.800     57
            1  1  1  0     1.800     58
            1  0  2  0     1.800     59
            0  3  0  0     1.800     60
            0  2  1  0     1.800     61
            0  1  2  0     1.800     62
            0  0  3  0     1.800     63

 F                                    2
                                  ---------------------------------------------------------------------------
            0  0  0  0    10.880     64
            0  0  0  0     7.700     65
            0  0  0  1     3.240     66
            0  0  0  1     1.940     67
            0  0  0  1     0.740     68
            1  0  0  0     4.540     69
            0  1  0  0     4.540     70
            0  0  1  0     4.540     71
            1  0  0  0     2.300     72
            0  1  0  0     2.300     73
            0  0  1  0     2.300     74
            1  0  0  0     1.240     75
            0  1  0  0     1.240     76
            0  0  1  0     1.240     77
            2  0  0  0     2.000     78
            1  1  0  0     2.000     79
            1  0  1  0     2.000     80
            0  2  0  0     2.000     81
            0  1  1  0     2.000     82
            0  0  2  0     2.000     83
            3  0  0  0     3.000     84
            2  1  0  0     3.000     85
            2  0  1  0     3.000     86
            1  2  0  0     3.000     87
            1  1  1  0     3.000     88
            1  0  2  0     3.000     89
            0  3  0  0     3.000     90
            0  2  1  0     3.000     91
            0  1  2  0     3.000     92
            0  0  3  0     3.000     93

 Cl                                   3
                                  ---------------------------------------------------------------------------
            0  0  0  0    20.300     94
            0  0  0  0    15.250     95
            0  0  0  1     6.250     96
            0  0  0  1     4.450     97
            1  0  0  0     8.850     98
            0  1  0  0     8.850     99
            0  0  1  0     8.850    100
            1  0  0  0     5.050    101
            0  1  0  0     5.050    102
            0  0  1  0     5.050    103
            0  0  0  2     3.450    104
            0  0  0  2     2.300    105
            0  0  0  2     1.600    106
            1  0  0  1     3.350    107
            0  1  0  1     3.350    108
            0  0  1  1     3.350    109
            1  0  0  1     2.050    110
            0  1  0  1     2.050    111
            0  0  1  1     2.050    112
            1  0  0  1     1.200    113
            0  1  0  1     1.200    114
            0  0  1  1     1.200    115
            2  0  0  0     2.000    116
            1  1  0  0     2.000    117
            1  0  1  0     2.000    118
            0  2  0  0     2.000    119
            0  1  1  0     2.000    120
            0  0  2  0     2.000    121
            3  0  0  0     2.000    122
            2  1  0  0     2.000    123
            2  0  1  0     2.000    124
            1  2  0  0     2.000    125
            1  1  1  0     2.000    126
            1  0  2  0     2.000    127
            0  3  0  0     2.000    128
            0  2  1  0     2.000    129
            0  1  2  0     2.000    130
            0  0  3  0     2.000    131

 Total number of charge fitting functions (nprimf)       361
 Total number of Cartesian basis functions (naos)        131
 Total number of Cartesian core functions  (ncos)          0

1
 ***************************************************************************************************



                                              ***********************
                                              *  T E C H N I C A L  *
                                              ***********************
  



 =============================================================
 P A R A L L E L I Z A T I O N  and  V E C T O R I Z A T I O N
 =============================================================
  
 Nr of parallel processes:                               12
 Maximum vector length in NumInt loops:                 128

 IO buffersize (Mb):                                     64.000000



 =====================
 S C F   U P D A T E S
 =====================
  
 Max. nr. of cycles:                               250
 Convergence criterion:                              0.0000010000
   secondary criterion:                              0.0010000000

 Mix parameter (when DIIS does not apply):           0.2000000000
 Mixed ADIIS+DIIS will be used
    Max number of expansion vectors:                10
    Pure ADIIS when Max([F,P]) is above              0.1000000000
    Pure DIIS when Max([F,P]) is below               0.0010000000
 Automatic ElectronSmearing (in case of problematic SCF convergence) disabled



 =================
 P R E C I S I O N  ***  (General: NumInt, NeglectFunctionTails, ...)  ***
 =================
  

 NumInt:           Target precision:                 6.0000000000
 -------           Initial precision:                6.0000000000
                   Min. precision (optimization):    6.0000000000

 Neglect Functions:          Basis functions:        0.1000000000E-07
 ------------------          Fit functions:          0.1000000000E-07



 ===========================
 L I N E A R   S C A L I N G
 ===========================
  

 Cut-off radii density fit:                        0.1000000000E-09
 Overlap cut-off criterion AO matrix elements:     0.1000000000E-07
 Cut-offs for Coulomb potential and fitted density:0.1000000000E-09
 Cut-off criterion for Coulomb multipole terms:    0.1000000000E-09
 Progressive Convergence parameter:                 0.000000000    
1
 ***************************************************************************************************



                                            ***************************
                                            *  C O M P U T A T I O N  *
                                            ***************************
  

 Number of elements of the density matrix on this node (used, total):      2016      8646



 ===========================================
 Numerical Integration : Fuzzy Cells (Becke)
 ===========================================
  
 Becke grid quality: GOOD           
  
 Lebedev angular grid order:             min:  11 max:  31
 Nr. of radial points:                   min:  65 max:  90

 Total nr. of points:      50774
 Nr. of blocks:              397
 Block length:               128
 Nr. of dummy points:         42


 Test of Precision of the Numerical Integration Grid
 ===================================================

 Integral of the Total Core Density:                   0.00000000000000



 ========================
 Density Fitting (zlmFit)
 ========================
  
 ZlmFit Fit Quality: NORMAL         
  
 Max L-expansion:                        min:   7 max:   7
 Nr. of radial interpolation points:     min:  51 max:  72



 =====
 S C F  ***  ScaSCF  ***
 =====
  
 Initial density matrix is calculated as sum of fragments

 CYCLE    1
 SCF Error: norm([F,P])=      1.617656519073, max([F,P])=      1.014540687212
 orbitals (Q,E):
 ---------------
 A :22...41          ( 2.00    -0.5649)  ( 2.00    -0.4445)  ( 2.00    -0.2998)  ( 2.00    -0.2519)
                     ( 2.00    -0.2519)  ( 2.00    -0.1197)  ( 2.00    -0.1197)  ( 2.00    -0.1038)
                     ( 2.00    -0.0124)  ( 2.00    -0.0123)  ( 0.00     0.0515)  ( 0.00     0.1570)
                     ( 0.00     0.3009)  ( 0.00     0.3009)  ( 0.00     0.3390)  ( 0.00     0.3919)
                     ( 0.00     0.4047)  ( 0.00     0.4047)  ( 0.00     0.4194)  ( 0.00     0.4194)

 CYCLE    2
  SDIIS (wt  0.000):  0.2980  0.7020
 A-DIIS (wt  1.000):  0.9381  0.0619
  DIIS coefficients:  0.9381  0.0619
 SCF Error: norm([F,P])=      1.033999800633, max([F,P])=      0.497845019309
 orbitals (Q,E):
 ---------------
 A :22...32          ( 2.00    -0.5538)  ( 2.00    -0.4640)  ( 2.00    -0.2739)  ( 2.00    -0.2202)
                     ( 2.00    -0.2202)  ( 2.00    -0.1100)  ( 2.00    -0.1100)  ( 2.00    -0.1027)
                     ( 2.00    -0.0307)  ( 2.00    -0.0307)  ( 0.00     0.0453)

 CYCLE    3
  SDIIS (wt  0.000):  0.0515 -2.0000  2.9485
 A-DIIS (wt  1.000):  0.9119  0.0000  0.0881
  DIIS coefficients:  0.9119  0.0000  0.0881
 SCF Error: norm([F,P])=      0.749818361096, max([F,P])=      0.370576100975
 orbitals (Q,E):
 ---------------
 A :22...32          ( 2.00    -0.5536)  ( 2.00    -0.4658)  ( 2.00    -0.2702)  ( 2.00    -0.2154)
                     ( 2.00    -0.2154)  ( 2.00    -0.1096)  ( 2.00    -0.1096)  ( 2.00    -0.1028)
                     ( 2.00    -0.0326)  ( 2.00    -0.0326)  ( 0.00     0.0446)

 CYCLE    4
  SDIIS (wt  0.000): -1.9578 -0.0422  3.0000
 A-DIIS (wt  1.000):  0.0000  0.0000  1.0000
  DIIS coefficients:  0.0000  0.0000  1.0000
 SCF Error: norm([F,P])=      0.717541735399, max([F,P])=      0.357112901272
 orbitals (Q,E):
 ---------------
 A :22...32          ( 2.00    -0.5144)  ( 2.00    -0.4437)  ( 2.00    -0.2885)  ( 2.00    -0.2756)
                     ( 2.00    -0.2756)  ( 2.00    -0.0268)  ( 2.00    -0.0268)  ( 2.00    -0.0058)
                     ( 2.00     0.1649)  ( 2.00     0.1649)  ( 0.00     0.2003)

 CYCLE    5
  SDIIS (wt  0.000): -1.4200 -0.6546  3.0000  0.0746
 A-DIIS (wt  1.000):  0.0000  0.0000  0.8335  0.1665
  DIIS coefficients:  0.0000  0.0000  0.8335  0.1665
 SCF Error: norm([F,P])=      2.544633395486, max([F,P])=      0.947345824709
 orbitals (Q,E):
 ---------------
 A :22...32          ( 2.00    -0.6215)  ( 2.00    -0.4427)  ( 2.00    -0.2104)  ( 2.00    -0.1721)
                     ( 2.00    -0.1721)  ( 2.00    -0.0970)  ( 2.00    -0.0691)  ( 2.00    -0.0691)
                     ( 2.00    -0.0075)  ( 2.00    -0.0075)  ( 0.00     0.0943)

 CYCLE    6
  SDIIS (wt  0.000): -0.5522 -1.7763  3.0000  0.0219  0.3066
 A-DIIS (wt  1.000):  0.0000  0.0000  0.4843  0.0000  0.5157
  DIIS coefficients:  0.0000  0.0000  0.4843  0.0000  0.5157
 SCF Error: norm([F,P])=      0.703323414147, max([F,P])=      0.195552956043
 orbitals (Q,E):
 ---------------
 A :22...32          ( 2.00    -0.5575)  ( 2.00    -0.4967)  ( 2.00    -0.2034)  ( 2.00    -0.1331)
                     ( 2.00    -0.1331)  ( 2.00    -0.0883)  ( 2.00    -0.0856)  ( 2.00    -0.0856)
                     ( 2.00    -0.0520)  ( 2.00    -0.0520)  ( 0.00     0.0521)

 CYCLE    7
  SDIIS (wt  0.000): -0.2973 -2.0000  2.7328 -0.0435  0.2741  0.3339
 A-DIIS (wt  1.000):  0.0000  0.0000  0.2074  0.0000  0.0679  0.7247
  DIIS coefficients:  0.0000  0.0000  0.2074  0.0000  0.0679  0.7247
 SCF Error: norm([F,P])=      0.429696856188, max([F,P])=      0.178799030974
 orbitals (Q,E):
 ---------------
 A :22...32          ( 2.00    -0.5481)  ( 2.00    -0.4700)  ( 2.00    -0.2336)  ( 2.00    -0.1793)
                     ( 2.00    -0.1793)  ( 2.00    -0.1224)  ( 2.00    -0.1068)  ( 2.00    -0.1068)
                     ( 2.00    -0.0416)  ( 2.00    -0.0416)  ( 0.00     0.0578)

 CYCLE    8
  SDIIS (wt  0.000): -0.1471 -2.0000  2.3967 -0.0145  0.0838  0.4542  0.2270
 A-DIIS (wt  1.000):  0.0000  0.0000  0.0032  0.0000  0.0000  0.6326  0.3643
  DIIS coefficients:  0.0000  0.0000  0.0032  0.0000  0.0000  0.6326  0.3643
 SCF Error: norm([F,P])=      0.644689294451, max([F,P])=      0.198232504222
 orbitals (Q,E):
 ---------------
 A :22...32          ( 2.00    -0.5438)  ( 2.00    -0.4854)  ( 2.00    -0.2257)  ( 2.00    -0.1589)
                     ( 2.00    -0.1589)  ( 2.00    -0.1020)  ( 2.00    -0.0975)  ( 2.00    -0.0975)
                     ( 2.00    -0.0538)  ( 2.00    -0.0538)  ( 0.00     0.0467)

 CYCLE    9
  SDIIS (wt  0.000): -0.1978  0.4139 -0.1800 -0.0116  0.0996  0.3472  0.0910  0.4378
 A-DIIS (wt  1.000):  0.0000  0.0000  0.0000  0.0000  0.0000  0.4166  0.0599  0.5235
  DIIS coefficients:  0.0000  0.0000  0.0000  0.0000  0.0000  0.4166  0.0599  0.5235
 SCF Error: norm([F,P])=      0.271261923519, max([F,P])=      0.105482670362
 orbitals (Q,E):
 ---------------
 A :22...32          ( 2.00    -0.5610)  ( 2.00    -0.4850)  ( 2.00    -0.2063)  ( 2.00    -0.1298)
                     ( 2.00    -0.1298)  ( 2.00    -0.1111)  ( 2.00    -0.1102)  ( 2.00    -0.1102)
                     ( 2.00    -0.0491)  ( 2.00    -0.0491)  ( 0.00     0.0570)

 CYCLE   10
  SDIIS (wt  0.090):  0.0185 -0.7800  0.7526 -0.0043 -0.0146  0.2024 -0.0188  0.4643  0.3799
 A-DIIS (wt  0.910):  0.0000  0.0000  0.0000  0.0000  0.0000  0.1778  0.0000  0.4331  0.3891
  DIIS coefficients:  0.0017 -0.0702  0.0678 -0.0004 -0.0013  0.1800 -0.0017  0.4359  0.3883
 SCF Error: norm([F,P])=      0.243156074453, max([F,P])=      0.091084836795
 orbitals (Q,E):
 ---------------
 A :22...32          ( 2.00    -0.5504)  ( 2.00    -0.4931)  ( 2.00    -0.2100)  ( 2.00    -0.1357)
                     ( 2.00    -0.1357)  ( 2.00    -0.1001)  ( 2.00    -0.0968)  ( 2.00    -0.0968)
                     ( 2.00    -0.0568)  ( 2.00    -0.0568)  ( 0.00     0.0498)

 CYCLE   11
  SDIIS (wt  0.754): -0.0004  0.0862 -0.1103 -0.0003 -0.0148 -0.0142  0.0085  0.1911  0.1383  0.7158
 A-DIIS (wt  0.246):  0.0000  0.0000  0.0000  0.0000  0.0000  0.0000  0.0000  0.0401  0.0000  0.9599
  DIIS coefficients: -0.0003  0.0650 -0.0831 -0.0002 -0.0111 -0.0107  0.0064  0.1540  0.1043  0.7758
 SCF Error: norm([F,P])=      0.068495963890, max([F,P])=      0.025342283207
 orbitals (Q,E):
 ---------------
 A :22...32          ( 2.00    -0.5484)  ( 2.00    -0.4914)  ( 2.00    -0.2128)  ( 2.00    -0.1397)
                     ( 2.00    -0.1397)  ( 2.00    -0.1034)  ( 2.00    -0.0990)  ( 2.00    -0.0990)
                     ( 2.00    -0.0566)  ( 2.00    -0.0566)  ( 0.00     0.0497)

 CYCLE   12
  SDIIS (wt  0.856):  0.0216 -0.0297 -0.0000 -0.0057  0.0106 -0.0153  0.0644  0.0662  0.3292  0.5588
 A-DIIS (wt  0.144):  0.0000  0.0000  0.0000  0.0000  0.0000  0.0000  0.0000  0.0000  0.3466  0.6534
  DIIS coefficients:  0.0185 -0.0254 -0.0000 -0.0049  0.0091 -0.0131  0.0551  0.0567  0.3317  0.5724
 SCF Error: norm([F,P])=      0.041823314693, max([F,P])=      0.015223328052
 orbitals (Q,E):
 ---------------
 A :22...32          ( 2.00    -0.5492)  ( 2.00    -0.4921)  ( 2.00    -0.2115)  ( 2.00    -0.1378)
                     ( 2.00    -0.1378)  ( 2.00    -0.1021)  ( 2.00    -0.0982)  ( 2.00    -0.0982)
                     ( 2.00    -0.0567)  ( 2.00    -0.0567)  ( 0.00     0.0498)

 CYCLE   13
  SDIIS (wt  1.000): -0.0003  0.0000 -0.0008 -0.0033 -0.0007  0.0043  0.0060  0.1257  0.1909  0.6782
  DIIS coefficients: -0.0003  0.0000 -0.0008 -0.0033 -0.0007  0.0043  0.0060  0.1257  0.1909  0.6782
 SCF Error: norm([F,P])=      0.002181294372, max([F,P])=      0.000807497050
 orbitals (Q,E):
 ---------------
 A :22...32          ( 2.00    -0.5491)  ( 2.00    -0.4921)  ( 2.00    -0.2116)  ( 2.00    -0.1379)
                     ( 2.00    -0.1379)  ( 2.00    -0.1021)  ( 2.00    -0.0982)  ( 2.00    -0.0982)
                     ( 2.00    -0.0567)  ( 2.00    -0.0567)  ( 0.00     0.0498)

 CYCLE   14
  SDIIS (wt  1.000):  0.0000 -0.0001 -0.0013 -0.0000  0.0004  0.0005  0.0325  0.0512  0.2344  0.6824
  DIIS coefficients:  0.0000 -0.0001 -0.0013 -0.0000  0.0004  0.0005  0.0325  0.0512  0.2344  0.6824
 SCF Error: norm([F,P])=      0.000137647790, max([F,P])=      0.000045616513
 orbitals (Q,E):
 ---------------
 A :22...32          ( 2.00    -0.5491)  ( 2.00    -0.4921)  ( 2.00    -0.2116)  ( 2.00    -0.1379)
                     ( 2.00    -0.1379)  ( 2.00    -0.1021)  ( 2.00    -0.0983)  ( 2.00    -0.0983)
                     ( 2.00    -0.0567)  ( 2.00    -0.0567)  ( 0.00     0.0498)

 CYCLE   15
  SDIIS (wt  1.000): -0.0000 -0.0003 -0.0001  0.0001  0.0000  0.0075  0.0141  0.0685  0.3441  0.5661
  DIIS coefficients: -0.0000 -0.0003 -0.0001  0.0001  0.0000  0.0075  0.0141  0.0685  0.3441  0.5661
 SCF Error: norm([F,P])=      0.000036810350, max([F,P])=      0.000011927654
 orbitals (Q,E):
 ---------------
 A :22...32          ( 2.00    -0.5491)  ( 2.00    -0.4920)  ( 2.00    -0.2116)  ( 2.00    -0.1379)
                     ( 2.00    -0.1379)  ( 2.00    -0.1021)  ( 2.00    -0.0982)  ( 2.00    -0.0982)
                     ( 2.00    -0.0567)  ( 2.00    -0.0567)  ( 0.00     0.0498)

 CYCLE   16
  SDIIS (wt  1.000): -0.0000 -0.0000  0.0000 -0.0000  0.0010  0.0018  0.0113  0.0873  0.1916  0.7070
  DIIS coefficients: -0.0000 -0.0000  0.0000 -0.0000  0.0010  0.0018  0.0113  0.0873  0.1916  0.7070
 SCF Error: norm([F,P])=      0.000006703448, max([F,P])=      0.000002808564
 orbitals (Q,E):
 ---------------
 A :22...32          ( 2.00    -0.5491)  ( 2.00    -0.4920)  ( 2.00    -0.2116)  ( 2.00    -0.1379)
                     ( 2.00    -0.1379)  ( 2.00    -0.1021)  ( 2.00    -0.0982)  ( 2.00    -0.0982)
                     ( 2.00    -0.0567)  ( 2.00    -0.0567)  ( 0.00     0.0498)

 CYCLE   17
  SDIIS (wt  1.000):  0.0000  0.0000 -0.0000 -0.0000  0.0000  0.0006  0.0086  0.0263  0.2560  0.7084
  DIIS coefficients:  0.0000  0.0000 -0.0000 -0.0000  0.0000  0.0006  0.0086  0.0263  0.2560  0.7084
 SCF Error: norm([F,P])=      0.000001001826, max([F,P])=      0.000000257637
 orbitals (Q,E):
 ---------------
 A :22...32          ( 2.00    -0.5491)  ( 2.00    -0.4920)  ( 2.00    -0.2116)  ( 2.00    -0.1379)
                     ( 2.00    -0.1379)  ( 2.00    -0.1021)  ( 2.00    -0.0982)  ( 2.00    -0.0982)
                     ( 2.00    -0.0567)  ( 2.00    -0.0567)  ( 0.00     0.0498)

 SCF CONVERGED

 CYCLE   18
1
 ***************************************************************************************************



                                                *******************
                                                *  R E S U L T S  *
                                                *******************
  
 *** Setting up for NEW gradients in Focky
 *** Using FIT density in Focky

 Orbital Energies, per Irrep and Spin:
 ======================================
                        Occup              E (au)              E (eV)       Diff (eV) with prev. cycle
                        -----      --------------------        ------       --------------------------
 A
              22        2.000     -0.54912996137616E+00       -14.943              -2.48E-07
              23        2.000     -0.49204887338004E+00       -13.389              -3.22E-07
              24        2.000     -0.21160635067371E+00        -5.758              -3.61E-07
              25        2.000     -0.13789877795511E+00        -3.752              -3.78E-07
              26        2.000     -0.13789840416229E+00        -3.752              -3.78E-07
              27        2.000     -0.10212497534974E+00        -2.779              -4.17E-07
              28        2.000     -0.98249721774073E-01        -2.674              -3.16E-07
              29        2.000     -0.98249323274753E-01        -2.674              -3.16E-07
              30        2.000     -0.56726125524021E-01        -1.544              -2.62E-07
              31        2.000     -0.56723849816682E-01        -1.544              -2.62E-07
              32        0.000      0.49771284747541E-01         1.354
              33        0.000      0.19887699337140E+00         5.412
              34        0.000      0.31446443087148E+00         8.557
              35        0.000      0.31447161975250E+00         8.557
              36        0.000      0.32409833463747E+00         8.819
              37        0.000      0.37570383004038E+00        10.223
              38        0.000      0.41649204257279E+00        11.333
              39        0.000      0.41649398223838E+00        11.333
              40        0.000      0.44632002971942E+00        12.145
              41        0.000      0.44632666255806E+00        12.145
  
 HOMO :       31 A                -0.56723849816682E-01
 LUMO :       32 A                 0.49771284747541E-01
  


 All Electron Calculation, thus no Orbital Energies of the Core Orbitals are calculated


 Fit test: (difference of exact and fit density, squared integrated, result summed over spins)
         Sum-of-Fragments:                             0.00085870243154
         Orthogonalized Fragments:                     0.00085918882337
         SCF:                                          0.00086198204385



 ==========================
 Electron Density at Nuclei
 ==========================
  
 The electron density is calculated at points on a small sphere around the center of a nucleus.
 The printed electron density is the average electron density on these points.
 The radius of the sphere is the printed approximate finite nuclear radius.

         Atom        Nuclear Radius (Angstrom)             Electron Density (a.u.)
         ----        -------------------------             -----------------------
     1)   Br                0.0000536685                            29315.66619
     2)   F                 0.0000361580                              447.48669
     3)   Cl                0.0000426624                             3210.52960



 =======================================
 M U L L I K E N   P O P U L A T I O N S
 =======================================
  
 The survey below gives for each atom:
 a) the total charge (Z minus electrons)
 b) the net spin polarization (nr of electrons spin-A minus spin-B)
 c) for each spin the atomic electron valence density (integrated) per L-value.

 Atom              Charge    Spin density          S         P         D         F
 ----              ------    ------------       ------    ------    ------    ------
 1 Br             -0.0136                       8.0041   16.8279   10.1543    0.0273
 2 F              -0.5086                       3.9869    5.5091    0.0116    0.0010
 3 Cl             -0.4778                       5.9726   11.4818    0.0193    0.0042

 Populations of individual BAS functions
 ----------------------------------------
 1 Br           0.3611  1.5681  2.0733  0.7130  0.7124  0.7134  1.2651  1.2661  1.2643  1.4384
                0.5889  1.1350  1.1240  1.1429  0.8935  0.9031  0.8865  0.2678  0.4019  0.4019
                0.2676  0.4017  0.2681  0.7772  1.1656  1.1663  0.7760  1.1655  0.7783  0.2883
                0.4347  0.4321  0.2933  0.4333  0.2850  0.2931  1.2608  0.4204  0.5515  0.4008
                0.6598  0.8992  0.6820  1.0555  0.1966  0.0899  0.2733  0.0116  0.0603  0.0090
                0.0438  0.0216  0.0033 -0.0025  0.0048  0.0016  0.0155  0.0045 -0.0053  0.0150
                0.0106 -0.0089 -0.0080
 2 F            0.5758  1.4009  1.0887  0.9032  0.0182  0.3816  0.3439  0.4087  0.9305  0.8745
                0.9708  0.5396  0.4687  0.5907  0.0004  0.0043  0.0008  0.0092  0.0019 -0.0050
               -0.0007 -0.0008  0.0006  0.0033  0.0001 -0.0022  0.0046  0.0033 -0.0035 -0.0038
 3 Cl           0.5055  1.4530  1.7117  0.2565  0.7266  0.7240  0.7285  1.2716  1.2752  1.2690
                0.6011  1.0336  0.4113  0.2832  0.2495  0.3074  1.0209  0.9490  1.0727  0.5431
                0.4542  0.6070  0.0014  0.0063  0.0016  0.0124  0.0038 -0.0060 -0.0011 -0.0008
                0.0010  0.0060  0.0006 -0.0035  0.0079  0.0057 -0.0055 -0.0062

 Gross Charges per Atom (Z minus electrons)
 ==========================================
            -0.0136   -0.5086   -0.4778
 Net Total: -1.00000000


 Atom-Atom Population Matrix (off-diagonal elements not doubled)
 ===============================================================

     1 :    34.9210
     2 :     0.0662    9.4402
     3 :     0.0264    0.0021   17.4494


 Frag-Frag Population Matrix (off-diagonal elements not doubled)
 ===============================================================

     1 :    44.4937
     2 :     0.0285   17.4494



 =================================================
 H I R S H F E L D   C H A R G E   A N A L Y S I S
 =================================================
  
 For each fragment: the (numerical) integral of rho(scf) * rho(fragment)/rho(sum-of-fragments)
 (nuclear charges are included, electrons are counted negative)

 The fragments and their ordering are defined in the early G E O M E T R Y output section.
 If you use single-atom fragments, this usually implies that all atoms of the same
 chemical type are grouped together. This may not be the order in which you listed them
 in the input file!

    1  BrF                      -0.3567
    2  Cl                       -0.6433

 Sum of these charges (accuracy NumInt/Tails) =          -0.99998765



 =============================
 V O R O N O I   C H A R G E S
 =============================
  
 For each atom: the (numerical) integral of the total electronic charge density in its Voronoi cell,
 i.e. the region of space that is closer to that atom than to any other atom.
 (cf. Wigner-Seitz cells in crystals)

 Within the Voronoi cell the subintegrals over the atomic sphere and the remaining part are evaluated
 separately to give the numbers of electrons (negative charge) in these regions.
 The net total charge in the cell (including the nuclear charge) is also given.

 Values are provided for
    a) the Initial (sum-of-fragments) density
    b) the Orthogonalized-Fragments density
    c) the SCF density
    d) the Voronoi Deformation Density (VDD): the difference SCF-Initial for the complete atomic cell
 ---------------------------------------------------------------------------------------------------
 Total NetCharge:              -1.000                     -1.000                     -1.000    0.000
 (accuracy NumInt/Tails)

 Remark: the 'NetTotal' Voronoi charges often do not match the Mulliken and/or Hirshfeld charges very
 well. This is caused by the fact that chemically different atoms are not treated in accordance with
 their relative sizes. (Voronoi cells are defined by boundary planes halfway between the atoms.)
 However, the CHANGES in charge, comparing 'Initial' to 'SCF' for instance, do give a fair indication
 of the flow of charge caused by the relaxation from sum-of-fragments to self-consistency.

 Warning: the absolute accuracy of the VDD charges obtained using the Fuzzy Cells (Becke) integration
 scheme is much poorer than the one obtained with an 'equivalent' Voronoi integration grid. 



 =================================================================
 M U L T I P O L E   D E R I V E D   C H A R G E   A N A L Y S I S
 =================================================================

 This charge analysis uses the atomic multipoles (obtained from the fitted density) up to some level X,
 and reconstructs these multipoles exactly (up to level X) by distributing charges over all atoms.
 This is achieved by using Lagrange multipliers and a weight function to keep the multipoles local.

 Dummy atoms can be included (by setting INCDUM in MDC-block to 1) to obtain a fractional charge.
 This is generally useful and necessary only for small symmetrical molecules, when there are not
 enough degrees of freedom to reconstruct the multipoles.

 Since the atomic multipoles are reconstructed up to level X,
 the molecular multipoles are represented also up to level X.
 The recommended level is to reconstruct up to quadrupole : -> MDC-q charges.

 See: M. Swart, P.Th. van Duijnen, J.G. Snijders, J.Comput.Chem., (2001), p. 79-88.

 ------------------------------------------------------------- 
 Atomic electronic multipole moments from SCF equations (a.u.)
 ------------------------------------------------------------- 

   atom        charge        dip-x     dip-y     dip-z      quad-xx   quad-xy   quad-xz   quad-yy   quad-yz   quad-zz
 --------------------------------------------------------------------------------------------------------------------
    1 Br     0.365590     0.373994 -0.578289 -0.002771    -0.211305 -1.674279 -0.008008  2.047067  0.012375 -1.835763
    2 F     -0.818382     0.253741 -0.392273 -0.001875    -0.001829 -0.013755 -0.000060  0.016879  0.000095 -0.015049
    3 Cl    -0.547208     0.028429 -0.043844 -0.000212    -0.058416 -0.464486 -0.002225  0.567566  0.003438 -0.509150

 --------------------------------------- 
 Multipole derived atomic charges (a.u.)
 --------------------------------------- 

 The MDC-m charges are just the Monopole terms in the multipole expansion, while for the MDC-d charges
 also the Dipoles are reconstructed. The usually preferred charges are the MDC-q charges.
 These reconstruct the Monopoles, Dipoles and Quadrupoles (both atomic AND molecular).

        Atom    Level:     MDC-m        MDC-d        MDC-q
 ---------------------------------------------------------
     1     Br           0.365590     0.201946     0.011219
     2     F           -0.818382    -0.587547    -0.482557
     3     Cl          -0.547208    -0.614400    -0.528662

 ------------------------------------------------ 
 Average absolute deviations in atomic multipoles
 ------------------------------------------------ 

 Stated here are the average differences between the atomic multipoles
 and the reconstructed atomic multipoles (from the distributed charges).
 If these values are not zero, this means there are not enough degrees of freedom,
 to be able to reconstruct the atomic multipoles. (This usually happens only
 for small and/or highly symmetric molecules). If this is the case, one could add
 dummy atoms as extra point charges (and setting INCDUM in MDC-block to 1).

 Level:                                 MDC-d        MDC-q
 ---------------------------------------------------------
 Charge   (a.u.)                       0.0000       0.0000
 Dipole   (Debye)                      0.0000       0.0000
 Quad.    (a.u.)                       0.4711       0.1778

 --------------------------------------- 
 Represented molecular multipole moments
 --------------------------------------- 

 Given here are the Molecular multipole moments from the atomic charges, and from the Fit Density.
 Note that the atomic charges represent the latter, NOT the ones from the Exact density.

            Q (a.u.)             Dipole moment (Debye)                                          Quadrupole moment (a.u.)
                                 x         y         z              xx        xy        xz        yy        yz        zz
------------------------------------------------------------------------------------------------------------------------
MDC-m        -1.0000       22.4679  -13.0506    0.2285        -63.5655   84.5459   -1.1130   -0.7123    0.5704   64.2779
MDC-d        -1.0000       24.1356  -15.6291    0.2161        -69.9888  102.6710   -1.1389   -5.0214    0.6726   75.0102
MDC-q        -1.0000       24.1356  -15.6291    0.2161        -70.1891  100.2926   -1.1503   -3.0827    0.6902   73.2717
 
Fit.Dens.    -1.0000       24.1357  -15.6290    0.2161        -70.3293   99.7149   -1.1530   -1.7337    0.6944   72.0631



 =============
 Dipole Moment  ***  (Debye)  ***
 =============
  
 Vector   :        24.13877771    -15.63388438      0.21609047
 Magnitude:        28.76013952

 This molecular dipole moment is calculated with analytic integration
 ************************************************************************************
 Since the molecule is NOT NEUTRAL, the dipole moment depends on the choice of origin
 ************************************************************************************



 =========================================
 Quadrupole Moment (Buckingham convention)  ***  (a.u.)  ***
 =========================================
  
      quad-xx        quad-xy        quad-xz        quad-yy        quad-yz        quad-zz
    -70.34183373    98.66432291    -1.15822590    -1.73506570     0.70261226    72.07689942

 This molecular quadrupole moment is calculated with analytic integration
1



                                             *************************
                                             *  SFO MO coefficients  *
                                             *************************
  


                                       === A ===
 MOs expanded in CFs+SFOs
 ========================

 The SFOs have been characterized in an earlier part of output.
 To deduce the bonding / antibonding nature of SFO combinations in an MO, consider the products
 of the coefficients AND THE OVERLAP between the SFOs (may be NEGATIVE). The SFO overlap matrix
 is printed later, in the SFO Populations section.

 (The CF coefficients are not printed)

 MOs :      1        2        3        4        5        6        7        8        9       10
 occup:   2.00     2.00     2.00     2.00     2.00     2.00     2.00     2.00     2.00     2.00
 CF+SFO
     1   1.0000   0.0000   0.0000   0.0000   0.0000   0.0000   0.0000  -0.0000   0.0000   0.0000
     2  -0.0000   0.0000   1.0000   0.0008  -0.0000  -0.0000   0.0000  -0.0001  -0.0000   0.0000
     3  -0.0000  -0.0000  -0.0008   1.0000   0.0000   0.0000  -0.0000   0.0000  -0.0000   0.0000
     4   0.0000   0.0000  -0.0000   0.0000  -1.0000   0.0015   0.0000  -0.0000  -0.0000  -0.0000
     5  -0.0000  -0.0000   0.0000  -0.0000   0.0015   1.0000  -0.0000   0.0000   0.0000   0.0000
     6   0.0000  -0.0000   0.0000   0.0000   0.0000   0.0000   1.0000   0.0000  -0.0000  -0.0000
     7   0.0000   0.0000  -0.0001  -0.0000   0.0000   0.0000   0.0000  -0.0003  -0.9996   0.0000
     8  -0.0000   0.0000   0.0000  -0.0000   0.0000   0.0000   0.0000  -0.0001  -0.0039  -0.0000
     9   0.0000  -0.0000  -0.0000   0.0000   0.0000  -0.0000  -0.0000   0.0000   0.0000   0.0000
    10   0.0000  -0.0000  -0.0000   0.0000  -0.0000  -0.0000  -0.0000   0.0000  -0.0000   0.0000
    11   0.0000  -0.0000   0.0000   0.0000  -0.0000   0.0000  -0.0000   0.0000  -0.0005   0.0000
    12   0.0000  -0.0000   0.0000  -0.0000   0.0000  -0.0000  -0.0000   0.0000   0.0000   0.0000
    13  -0.0000   0.0000  -0.0000   0.0000  -0.0000  -0.0000   0.0000  -0.0000   0.0000  -0.0000
    14  -0.0000   0.0000  -0.0000   0.0000  -0.0000  -0.0000   0.0000  -0.0000   0.0000  -0.0000
    15   0.0000  -0.0000   0.0000  -0.0000   0.0000   0.0000  -0.0000   0.0000   0.0000   0.0000
    16   0.0000  -0.0000  -0.0000  -0.0000   0.0000   0.0000  -0.0001   0.0001  -0.0002  -0.0000
    17   0.0000  -0.0001  -0.0000  -0.0000   0.0000   0.0000  -0.0000   0.0014  -0.0021   0.0002
    18  -0.0000   0.0000   0.0000  -0.0000  -0.0000  -0.0000  -0.0000  -0.0009   0.0013  -0.0003
    19  -0.0000   0.0000  -0.0000   0.0000  -0.0000  -0.0000   0.0000  -0.0000  -0.0000   0.0000
    20   0.0000  -0.0000   0.0000  -0.0000   0.0000  -0.0000   0.0000   0.0000  -0.0000   0.0000
    21  -0.0000   0.0000  -0.0000   0.0000  -0.0000   0.0000   0.0000  -0.0000  -0.0000   0.0000
    22   0.0000  -0.0000   0.0000  -0.0000   0.0000   0.0000  -0.0000   0.0000  -0.0000   0.0000
    23   0.0000  -0.0000   0.0000   0.0000   0.0000   0.0000  -0.0001   0.0012  -0.0018   0.0004
    24  -0.0000   0.0001  -0.0000  -0.0000  -0.0000  -0.0000   0.0000  -0.0014   0.0016  -0.0001
    25   0.0000  -0.0001   0.0000   0.0000   0.0000   0.0000  -0.0000   0.0019  -0.0024   0.0003
    26  -0.0000   0.0000  -0.0000   0.0000   0.0000   0.0000   0.0000  -0.0000   0.0000  -0.0000
    27  -0.0000   0.0000  -0.0000  -0.0000  -0.0000   0.0000   0.0000  -0.0000   0.0000  -0.0000
    28   0.0000   0.0000   0.0000  -0.0000   0.0000   0.0000   0.0000  -0.0000   0.0000   0.0000
    29   0.0000   0.0000  -0.0000  -0.0000  -0.0000   0.0000   0.0000  -0.0000   0.0000   0.0000
    30  -0.0000  -0.0000   0.0000  -0.0000   0.0000  -0.0000  -0.0000   0.0000  -0.0000  -0.0000
    31  -0.0000  -0.0000   0.0000   0.0000  -0.0000  -0.0000  -0.0000   0.0000   0.0000  -0.0000
    32   0.0000   0.0000  -0.0000  -0.0000   0.0000  -0.0000   0.0000  -0.0003  -0.0002   0.0003
    33   0.0000  -0.0000   0.0000  -0.0000   0.0000  -0.0000   0.0000   0.0002  -0.0008   0.0004
    34  -0.0000   0.0000   0.0000  -0.0000   0.0000  -0.0000  -0.0000  -0.0000   0.0000  -0.0000
    35   0.0000  -0.0000  -0.0000   0.0000  -0.0000  -0.0000   0.0000   0.0000  -0.0000   0.0000
    36   0.0000  -0.0000  -0.0000   0.0000   0.0000   0.0000   0.0000   0.0000   0.0001  -0.0001
    37  -0.0000  -0.0000  -0.0000   0.0000   0.0000  -0.0000   0.0000   0.0000  -0.0000  -0.0000
    38  -0.0000  -0.0000  -0.0000   0.0000   0.0000  -0.0000   0.0000   0.0000  -0.0000  -0.0000
    39   0.0000   0.0000  -0.0000   0.0000  -0.0000  -0.0000  -0.0000  -0.0000  -0.0000   0.0000
    40   0.0000   0.0000  -0.0000   0.0000   0.0000  -0.0000  -0.0000  -0.0000  -0.0000   0.0000
    41   0.0000   0.0000  -0.0000   0.0000   0.0000   0.0000  -0.0000  -0.0000  -0.0000   0.0000
    42   0.0000   0.0000   0.0000  -0.0000  -0.0000   0.0000  -0.0000  -0.0000   0.0000   0.0000
    43   0.0000   0.0000  -0.0000   0.0000   0.0000   0.0000  -0.0000  -0.0001  -0.0002   0.0001
    44  -0.0000  -0.0000   0.0000  -0.0000   0.0000   0.0000   0.0000  -0.0000   0.0000  -0.0000
    45   0.0000   0.0000  -0.0000   0.0000  -0.0000   0.0000  -0.0000  -0.0000  -0.0000   0.0000
    46   0.0000   0.0000  -0.0000   0.0000  -0.0000   0.0000  -0.0000  -0.0000  -0.0000   0.0000
    47  -0.0000  -0.0000   0.0000  -0.0000   0.0000   0.0000   0.0000   0.0000   0.0000  -0.0000
    48  -0.0000  -0.0000   0.0000  -0.0000  -0.0000   0.0000   0.0000   0.0001   0.0004  -0.0002
    49  -0.0000   0.0000   0.0000  -0.0000  -0.0000  -0.0000  -0.0001  -0.0001   0.0002   0.0000
    50  -0.0000   0.0000   0.0000  -0.0000   0.0000   0.0000   0.0000   0.0000   0.0000   0.0000
    51   0.0000   0.0000   0.0000  -0.0000  -0.0000   0.0000   0.0000  -0.0000   0.0000   0.0000
    52   0.0000  -0.0000  -0.0000  -0.0000  -0.0000  -0.0000  -0.0001   0.0000   0.0000  -0.0001
    53  -0.0000   0.0000   0.0000   0.0000  -0.0000  -0.0000  -0.0000  -0.0000   0.0005   0.0000
    54  -0.0000   0.0000   0.0000   0.0000  -0.0000   0.0000  -0.0000  -0.0000   0.0000   0.0000
    55   0.0000  -0.0000  -0.0000  -0.0000   0.0000   0.0000   0.0000   0.0000  -0.0000  -0.0000
    56   0.0000  -0.0000   0.0000  -0.0000   0.0000  -0.0000  -0.0000  -0.0000   0.0000  -0.0000
    57  -0.0000   0.0000  -0.0000   0.0000  -0.0000  -0.0000  -0.0000  -0.0000   0.0000  -0.0000
    58   0.0000   0.0000  -0.0000   0.0000   0.0000   0.0000  -0.0001   0.0000  -0.0002   0.0000
    59   0.0000   0.0000  -0.0000   0.0000   0.0000   0.0000   0.0000  -0.0000  -0.0000   0.0000
    60   0.0000   0.0000  -0.0000   0.0000   0.0000   0.0000   0.0000  -0.0000  -0.0000   0.0000
    61   0.0000  -0.0000   0.0000   0.0000   0.0000  -0.0000  -0.0000   0.0000  -0.0000   0.0000
    62  -0.0000   0.0000  -0.0000  -0.0000  -0.0000  -0.0000   0.0000  -0.0000   0.0000  -0.0000
    63  -0.0000  -0.0000   0.0000  -0.0000   0.0000  -0.0000  -0.0000   0.0000   0.0000  -0.0000
    64   0.0000   0.0000   0.0000   0.0000  -0.0000  -0.0000   0.0000  -0.0000  -0.0000   0.0000
    65  -0.0000  -0.0000   0.0000  -0.0000  -0.0000  -0.0000  -0.0000   0.0000   0.0001  -0.0000
    66   0.0000  -0.0000   0.0000  -0.0000   0.0000   0.0000  -0.0000   0.0000  -0.0000   0.0000
    67  -0.0000  -0.0000   0.0000  -0.0000   0.0000  -0.0000  -0.0000   0.0000   0.0000  -0.0000
    68   0.0000   0.0000  -0.0000  -0.0000  -0.0000  -0.0000   0.0001  -0.0001   0.0000   0.0000
    69   0.0000  -0.0000  -0.0000   0.0000   0.0000   0.0000  -0.0000   0.0000  -0.0000  -0.0000
    70   0.0000  -0.0000  -0.0000  -0.0000  -0.0000   0.0000  -0.0000   0.0000   0.0000  -0.0000
    71  -0.0000   0.0000   0.0000   0.0000   0.0000   0.0000   0.0000  -0.0001   0.0000   0.0000
    72  -0.0000  -0.0000   0.0001   0.0000  -0.0000  -0.0000   0.0000   0.0000  -0.0001  -0.0000
    73   0.0000  -0.0000   0.0000  -0.0000   0.0000  -0.0000  -0.0000  -0.0000   0.0000   0.0000
    74  -0.0000  -0.0000   0.0000  -0.0000  -0.0000   0.0000  -0.0000  -0.0000   0.0000   0.0000
    75   0.0000  -0.0000   0.0000   0.0000   0.0000   0.0000   0.0000   0.0000  -0.0000  -0.0000
    76  -0.0000  -0.0000   0.0000  -0.0000   0.0000  -0.0000   0.0000   0.0000  -0.0000  -0.0000
    77  -0.0000   0.0000  -0.0000  -0.0000  -0.0000  -0.0000  -0.0000  -0.0000  -0.0001   0.0000
    78  -0.0000   0.0000   0.0000  -0.0000  -0.0000  -0.0000   0.0002  -0.0000   0.0000  -0.0000
    79   0.0000  -0.0000  -0.0000   0.0000  -0.0001  -0.0000   0.0000   0.0000   0.0000  -0.0000
    80  -0.0000  -0.0000  -0.0000  -0.0000  -0.0000   0.0001   0.0000  -0.0000  -0.0000   0.0000
    81  -0.0000  -0.0000   0.0000  -0.0001  -0.0000  -0.0000   0.0000   0.0000   0.0000  -0.0000
    82   0.0001  -0.0000  -0.0000  -0.0000  -0.0000  -0.0000   0.0000   0.0000   0.0000  -0.0000
    83  -0.0000   1.0000  -0.0000  -0.0000  -0.0000  -0.0000   0.0000   0.0000   0.0001   0.0000
    84   0.0000   0.0000   0.0000   0.0000   0.0000   0.0000  -0.0000  -0.9997  -0.0004  -0.0023
    85  -0.0000   0.0000  -0.0000  -0.0000   0.0000  -0.0000   0.0000   0.0001   0.0000  -0.0299
    86   0.0000  -0.0000   0.0000   0.0000   0.0000  -0.0000  -0.0000  -0.0020  -0.0002   0.8564
    87   0.0000  -0.0000   0.0000   0.0000   0.0000   0.0000  -0.0000  -0.0012  -0.0001   0.5154
    88   0.0000  -0.0001   0.0000   0.0000   0.0000   0.0000  -0.0000   0.0023  -0.0022   0.0004
    89  -0.0000   0.0000   0.0000  -0.0000   0.0000  -0.0000   0.0000  -0.0001   0.0002  -0.0000
    90   0.0000  -0.0000  -0.0000   0.0000   0.0000  -0.0000  -0.0000   0.0012  -0.0026   0.0003
    91   0.0000  -0.0000  -0.0000   0.0000  -0.0000  -0.0000  -0.0000   0.0000  -0.0000   0.0000
    92  -0.0000   0.0001  -0.0000  -0.0000  -0.0000  -0.0000   0.0000  -0.0014   0.0021  -0.0003
    93  -0.0000   0.0000  -0.0000  -0.0000   0.0000  -0.0000   0.0000  -0.0003   0.0004  -0.0001
    94   0.0000  -0.0000   0.0000   0.0000   0.0000   0.0000  -0.0000   0.0001  -0.0001   0.0000
    95  -0.0000   0.0000  -0.0000  -0.0000   0.0000   0.0000   0.0000  -0.0012   0.0017  -0.0002
    96  -0.0000   0.0000   0.0000   0.0000   0.0000  -0.0000   0.0000   0.0000   0.0001  -0.0000
    97  -0.0000   0.0000   0.0000   0.0000  -0.0000  -0.0000   0.0000   0.0000   0.0004  -0.0002
    98   0.0000  -0.0000  -0.0000  -0.0000  -0.0000  -0.0000  -0.0000  -0.0000  -0.0002   0.0001
    99  -0.0000   0.0000   0.0000   0.0000  -0.0000   0.0000   0.0000   0.0001   0.0005  -0.0003
   100  -0.0000   0.0000   0.0000   0.0000   0.0000   0.0000   0.0000   0.0000   0.0002  -0.0001
   101  -0.0000   0.0000  -0.0000  -0.0000  -0.0000  -0.0000  -0.0000  -0.0000   0.0000   0.0000
   102   0.0000  -0.0000   0.0000   0.0000  -0.0000  -0.0000   0.0000   0.0001  -0.0003  -0.0003
   103   0.0000  -0.0000   0.0000   0.0000   0.0000  -0.0000   0.0000   0.0000  -0.0000  -0.0000
   104  -0.0000   0.0000  -0.0000  -0.0000  -0.0000  -0.0000  -0.0000  -0.0000   0.0000   0.0000
   105  -0.0000   0.0000  -0.0000  -0.0000   0.0000   0.0000  -0.0000  -0.0000   0.0000   0.0000
   106   0.0000  -0.0000   0.0000   0.0000   0.0000   0.0000   0.0000   0.0000  -0.0000  -0.0000
   107  -0.0000   0.0000  -0.0000  -0.0000   0.0000  -0.0000  -0.0000  -0.0000   0.0000   0.0000
   108  -0.0000   0.0000  -0.0000  -0.0000   0.0000  -0.0000  -0.0000  -0.0010  -0.0000   0.0001
   109  -0.0000   0.0000   0.0000   0.0000   0.0000  -0.0000   0.0000   0.0000   0.0002  -0.0004
   110   0.0000  -0.0000  -0.0000  -0.0000   0.0000  -0.0000  -0.0000  -0.0000  -0.0001   0.0003
   111  -0.0000   0.0000   0.0000   0.0000   0.0000   0.0000   0.0000   0.0000   0.0001  -0.0003
   112  -0.0000  -0.0001  -0.0000  -0.0000   0.0000  -0.0000   0.0000   0.0003   0.0001   0.0000
   113   0.0000  -0.0000   0.0000   0.0000   0.0000  -0.0000   0.0000   0.0001  -0.0000  -0.0005
   114   0.0000  -0.0000   0.0000   0.0000   0.0000   0.0000   0.0000   0.0000  -0.0000  -0.0003
   115  -0.0000   0.0000  -0.0000  -0.0000   0.0000  -0.0000  -0.0000  -0.0000   0.0000   0.0000
   116  -0.0000   0.0001  -0.0000  -0.0000   0.0000  -0.0000  -0.0000   0.0000   0.0000   0.0000

 MOs :     11       12       13       14       15       16       17       18       19       20
 occup:   2.00     2.00     2.00     2.00     2.00     2.00     2.00     2.00     2.00     2.00
 CF+SFO
     1   0.0000   0.0000  -0.0000   0.0000  -0.0000   0.0000  -0.0000   0.0000  -0.0000  -0.0000
     2   0.0000   0.0000   0.0000  -0.0000   0.0000   0.0000  -0.0000   0.0000   0.0000  -0.0000
     3  -0.0000  -0.0000  -0.0000   0.0000  -0.0000  -0.0000   0.0000  -0.0000  -0.0000   0.0000
     4  -0.0000  -0.0000  -0.0000  -0.0000  -0.0000  -0.0000   0.0000  -0.0000  -0.0000   0.0000
     5  -0.0000   0.0000   0.0000  -0.0000   0.0000   0.0000   0.0000   0.0000   0.0000  -0.0000
     6  -0.0000  -0.0000   0.0000  -0.0000   0.0000  -0.0000   0.0000  -0.0000   0.0000   0.0000
     7   0.0000   0.0000   0.0041  -0.0000  -0.0000  -0.0003  -0.0000   0.0000   0.0000  -0.0000
     8   0.0000  -0.0000  -1.0000  -0.0000  -0.0000   0.0017   0.0000  -0.0000  -0.0000   0.0000
     9   0.0000  -0.0000   0.0000  -1.0000   0.0057  -0.0000  -0.0000  -0.0017   0.0000   0.0000
    10  -0.0000  -0.0000  -0.0000   0.0057   1.0000  -0.0000   0.0017  -0.0000   0.0000   0.0000
    11  -0.0000   0.0000   0.0017  -0.0000   0.0000   1.0000   0.0000  -0.0002  -0.0001   0.0000
    12  -0.0000  -0.0000   0.0000  -0.0000  -0.0017  -0.0000   1.0000   0.0031  -0.0000  -0.0001
    13  -0.0000   0.0000   0.0000  -0.0017   0.0000   0.0002  -0.0031   1.0000  -0.0000   0.0000
    14   0.0000  -0.0000  -0.0000   0.0000  -0.0000   0.0001   0.0000   0.0000   1.0000   0.0002
    15   0.0000   0.0000   0.0000  -0.0000  -0.0000  -0.0000   0.0001   0.0000  -0.0002   1.0000
    16  -0.0000  -0.0000   0.0000  -0.0000   0.0000  -0.0002  -0.0000   0.0000   0.0000   0.0000
    17  -0.0000  -0.0000   0.0003  -0.0000   0.0000  -0.0012   0.0000   0.0000   0.0000   0.0000
    18   0.0000  -0.0000   0.0000   0.0000  -0.0000   0.0002  -0.0000  -0.0000  -0.0000  -0.0000
    19   0.0000   0.0000  -0.0000  -0.0001   0.0000   0.0000   0.0000  -0.0001   0.0000   0.0000
    20  -0.0000   0.0000   0.0000  -0.0000  -0.0001  -0.0000  -0.0001  -0.0000   0.0000  -0.0000
    21   0.0000  -0.0000  -0.0000   0.0000   0.0002   0.0000   0.0001   0.0000  -0.0000   0.0000
    22  -0.0000  -0.0000   0.0000   0.0002  -0.0000  -0.0000  -0.0000   0.0001  -0.0000  -0.0000
    23  -0.0000   0.0000  -0.0000  -0.0000   0.0000  -0.0003   0.0000   0.0000   0.0000   0.0000
    24   0.0000   0.0000  -0.0002   0.0000  -0.0000   0.0003  -0.0000   0.0000  -0.0000  -0.0000
    25  -0.0000  -0.0000   0.0004  -0.0000   0.0000  -0.0007   0.0000  -0.0000   0.0000   0.0000
    26  -0.0001  -0.0000  -0.0000  -0.0000   0.0001   0.0000   0.0002  -0.0000  -0.0000   0.0000
    27   0.0000  -0.0001  -0.0000  -0.0001  -0.0000   0.0000  -0.0000  -0.0002   0.0000  -0.0000
    28   0.0001   0.0000   0.0000   0.0000  -0.0000  -0.0000   0.0001  -0.0000  -0.0000  -0.0000
    29  -0.0000   0.0001   0.0000   0.0000   0.0000  -0.0000  -0.0000  -0.0001  -0.0000  -0.0000
    30   0.0000  -0.0000  -0.0000   0.0000   0.0000   0.0000   0.0000   0.0000   0.0002  -0.0000
    31   0.0000  -0.0000  -0.0000   0.0000   0.0000   0.0000   0.0000   0.0000   0.0000   0.0002
    32   0.0000   0.0000   0.0001  -0.0000   0.0000  -0.0003   0.0000   0.0000  -0.0000   0.0000
    33   0.0000   0.0000   0.0002  -0.0000   0.0000  -0.0002   0.0000  -0.0000   0.0000   0.0000
    34   0.0001  -0.0000   0.0000  -0.0000  -0.0000  -0.0000   0.0000   0.0000   0.0000  -0.0000
    35  -0.0000  -0.0001  -0.0000  -0.0000   0.0000  -0.0000  -0.0000   0.0000   0.0000   0.0000
    36  -0.0000  -0.0000  -0.0001   0.0000  -0.0000   0.0001  -0.0000  -0.0000  -0.0000  -0.0000
    37   0.0000   0.0000   0.0000  -0.0000   0.0000   0.0000  -0.0000  -0.0000   0.0003  -0.0000
    38  -0.0000   0.0000   0.0000  -0.0000  -0.0000   0.0000   0.0000  -0.0000   0.0000   0.0003
    39   0.0001   0.0001   0.0000  -0.0000   0.0000   0.0000  -0.0001   0.0002  -0.0000   0.0000
[...]
  111   -6.67137608374594E-16 -4.60618360502474E-16  3.96653607872201E-16  6.62934527492742E-16
  112    6.96181086005995E-16 -3.55051372082388E-16  4.83101082402370E-16  2.21343556948183E-16
  113    2.25773726536014E-15  4.69208137337011E-16 -3.58066254336423E-16  6.40264528593441E-17
  114   -4.93332021140979E-16  1.24992356063806E-16  3.65188908067770E-17  1.81224674785951E-16
  115   -2.68643584333841E-16  2.28959890784064E-16 -2.80877948208801E-17  3.85307770185177E-16
  116    2.52540332125028E-16  2.96647878787401E-17 -1.78530828358683E-16  1.93428020318518E-16

 column         101                   102                   103                   104
 row
  101    1.00000000000000E+00
  102   -1.40937969257959E-16  1.00000000000000E+00
  103   -2.32342910596895E-16  7.21595490679554E-17  1.00000000000000E+00
  104    2.09854989143066E-16 -3.13923258021718E-16 -2.09332399334618E-16  1.00000000000000E+00
  105    4.78254849775899E-16  8.06110386748669E-17 -1.19821310316150E-17  6.42328402848187E-16
  106   -3.41903891180651E-17 -6.62189844084221E-17  1.21795572256502E-16  2.81119172893780E-16
  107    5.17547567620359E-16 -1.89639507470427E-16  1.12537665027154E-15 -3.39897262270390E-16
  108   -2.98310538288412E-16  2.31804330301532E-16  5.31255929503376E-16 -2.04339604624167E-16
  109    1.96236569813377E-16  4.46200397119447E-15  4.85782361888181E-17 -5.68555672190958E-16
  110   -2.46205756524317E-16 -5.09421390467379E-16  3.38005784449419E-17 -6.51395494432428E-16
  111    2.54179888802403E-15  4.17570302337425E-16  9.00338825873505E-16  2.77216691514481E-16
  112    1.51716154146221E-16 -3.00352589140455E-16 -2.35704554718530E-16 -6.37063405797310E-17
  113   -2.82169842405004E-16 -1.12276758257399E-16 -3.47119056596681E-16 -1.83661783376236E-16
  114    6.89105076989390E-17  2.98549361874869E-16  4.17010731196645E-17  5.26422049785377E-16
  115    1.64675355402254E-16 -8.23159720682632E-16  9.01972429104537E-17  2.81575937478539E-16
  116    2.13106713265604E-16  3.45860493022876E-17  4.78810784423911E-17  1.58496805090225E-17

 column         105                   106                   107                   108
 row
  105    1.00000000000000E+00
  106   -7.29588739300636E-16  1.00000000000000E+00
  107    8.57792218851727E-16  4.09975332224472E-17  9.99999999999998E-01
  108    7.96859797656639E-16  3.26346630702093E-16  3.08730234679722E-16  1.00000000000001E+00
  109   -4.99549985782016E-16  3.62294262306034E-16 -7.66080529486272E-16 -6.97006471636619E-17
  110    1.50568068815028E-15  6.21562808741675E-16 -7.70610256547396E-16  1.92590728250158E-16
  111    1.55236879678708E-16  1.06559203476244E-15  8.01519994261420E-16 -9.19166273042477E-16
  112    4.12652922045312E-16 -2.09035224411500E-16  4.90626629340312E-18  2.22277200172347E-14
  113    5.77781040546111E-16  3.35071629232906E-16 -5.24418308976224E-16  1.84958961395396E-16
  114    6.00619416195000E-17  2.75184599917014E-16 -5.43069609688114E-16 -9.19110792384431E-16
  115   -2.22906528674275E-16  1.09171946891722E-15  1.42586909348126E-16  3.31443806972151E-16
  116   -6.45930384917184E-17  1.56651967331105E-16  9.29720303565265E-17  1.45456563460655E-14

 column         109                   110                   111                   112
 row
  109    1.00000000000000E+00
  110    2.60521923587005E-17  9.99999999999998E-01
  111    2.01763248035974E-16  1.25288878393120E-17  9.99999999999998E-01
  112    5.91176481140772E-16  6.30328038028760E-17 -2.62730985513444E-16  1.00000000000005E+00
  113    1.52291060553813E-15 -9.39688187288554E-16  4.57540940085408E-16 -4.20873730831717E-16
  114   -6.57727436290069E-17 -3.93484073449302E-16 -5.61086482722510E-16 -1.94878352482455E-16
  115    4.16087915270391E-16  5.14909052234843E-16 -3.85336595878561E-16 -1.34563253890844E-16
  116    3.29597460435593E-17  4.11996825544492E-18  3.92481186439753E-17  4.18937887852744E-14

 column         113                   114                   115                   116
 row
  113    1.00000000000000E+00
  114   -7.71234298145118E-16  1.00000000000000E+00
  115   -1.15742817077564E-17  2.80965765218147E-16  1.00000000000000E+00
  116   -5.99997482253478E-16  8.70614344505860E-17  1.76724954115137E-17  1.00000000000003E+00


 SFO contributions (%) per orbital
 (multiplication by the orbital occupation yields the SFO Gross Populations)

 Orb.:       22     23     24     25     26     27     28     29     30     31     32     33     34     35
 occup:     2.00   2.00   2.00   2.00   2.00   2.00   2.00   2.00   2.00   2.00   0.00   0.00   0.00   0.00
 CF+SFO     ----   ----   ----   ----   ----   ----   ----   ----   ----   ----   ----   ----   ----   ----
 ------
     17:   45.25  53.86   0.41   0.00   0.00   0.82   0.00   0.00   0.00   0.00   0.27  -0.04  -0.00  -0.00
     18:    0.71   0.27  79.85   0.00   0.00  18.61   0.00   0.00   0.00   0.00   0.75  -0.13  -0.00  -0.00
     19:    0.00   0.00   0.00  66.23  23.58   0.00   1.67   8.16   0.00   0.28   0.00   0.00   0.03   0.00
     20:    0.00   0.00   0.00  23.58  66.23   0.00   8.16   1.67   0.28   0.00   0.00  -0.00   0.00   0.03
     21:   -0.00   0.00   0.00   1.23   3.82   0.00  23.29   5.32  65.91   0.27   0.00   0.00   0.00   0.05
     22:    0.00   0.00   0.00   3.82   1.23   0.00   5.32  23.29   0.27  65.91   0.00  -0.00   0.05   0.00
     23:    0.73   0.37   1.72   0.00   0.00  22.05   0.00   0.00   0.00  -0.00  74.47   2.09  -0.00  -0.00
     24:    0.09  -0.11   0.00   0.00  -0.00  -0.17  -0.00  -0.00   0.00  -0.00   1.00 106.17   0.00   0.00
     25:    0.08  -0.19   0.05  -0.00  -0.00  -0.27  -0.00  -0.00  -0.00   0.00  -0.95  -2.23   0.00   0.00
     26:    0.00  -0.00   0.00   0.02   0.13   0.00   0.03   0.01  -0.26  -0.01  -0.00   0.00   0.00  94.54
     27:    0.00  -0.00   0.00   0.13   0.02  -0.00   0.01   0.03  -0.01  -0.26  -0.00   0.00  94.54   0.00
     88:   52.53  45.15   1.18   0.00   0.00   0.03  -0.00  -0.00  -0.00  -0.00   0.69  -0.18  -0.00  -0.00
     89:    0.01   0.00   0.12   3.92   1.08   0.41  12.89  47.71   0.31  32.49   0.17  -0.00  -0.51  -0.01
     90:    0.89   0.55  16.71   0.03   0.01  57.04   0.13   0.31   0.01   0.23  22.89  -0.35  -0.00  -0.00
     91:    0.00   0.00   0.00   1.09   3.95   0.00  48.02  13.02  32.72   0.32   0.00  -0.00  -0.01  -0.52
     92:   -0.25   0.08  -0.11  -0.00  -0.00   0.04   0.00   0.00   0.00  -0.00  -0.31  -4.34   0.00   0.00
     93:   -0.02  -0.01  -0.02  -0.12  -0.03   0.04  -0.03  -0.09   0.01   0.35  -0.04  -0.09   4.37   0.03
     94:   -0.00  -0.00  -0.00  -0.03  -0.12   0.00  -0.09  -0.03   0.38   0.01  -0.00  -0.01   0.05   4.63
     95:   -0.34  -0.16  -0.31  -0.01  -0.00   0.68  -0.00  -0.01   0.00   0.02  -0.67  -1.45   0.28   0.03


 Summation over all MOs, multiplied by occupation: Total SFO Gross Populations in this Irrep
 ===========================================================================================

     2.00    2.00    2.00    2.00    2.00    2.00    2.00    2.00    2.00    2.00    2.00    2.00
     2.00    2.00    2.00    2.00    2.01    1.99    2.00    2.00    2.00    2.00    0.50   -0.00
    -0.01   -0.00   -0.00    0.01    0.01    0.00    0.00    0.01    0.01    0.00    0.00   -0.00
     0.00    0.00    0.00    0.00    0.00    0.00    0.00    0.00    0.00    0.00    0.00   -0.00
     0.00    0.00    0.00   -0.00    0.00    0.00    0.00   -0.00   -0.00   -0.00    0.00    0.00
     0.00    0.00    0.00    0.00   -0.00    0.00    0.00    0.00   -0.00   -0.00   -0.00    0.00
     0.00    0.00   -0.00   -0.00   -0.00    0.00    0.00    0.00    0.00   -0.00    2.00    2.00
     2.00    2.00    2.00    1.98    1.98    1.52    1.98   -0.00    0.00    0.00   -0.00    0.00
     0.01    0.00    0.01    0.00    0.00    0.00    0.00    0.00    0.00    0.00    0.00    0.00
     0.00    0.00    0.00    0.00   -0.00   -0.00   -0.00    0.00



 List of all MOs, ordered by energy, with the most significant SFO gross populations
 ===================================================================================

 Each percentage contribution in the table below corresponds to the indicated SFO.
 In general, a SFO may be a linear combination of several Fragment Orbitals on the same,
 or on symmetry-related Fragments. Only the first 'member' of such a combination is
 specified here. A full definition of all SFOs is given in an earlier part of the output.
 The numbering of the SFOs in this table does NOT include the Core Orbitals, and starts
 from one for each symmetry representation, as in the SFO definition list earlier.

       E(eV)  Occ       MO           %     SFO (first member)   E(eV)  Occ   Fragment
 -------------------------------------------------------------------------------------

     -14.943  2.00    22 A         52.53%     6 A             -10.473  2.00     2 Cl
                                   45.25%    17 A             -20.139  2.00     1 BrF
     -13.389  2.00    23 A         53.86%    17 A             -20.139  2.00     1 BrF
                                   45.15%     6 A             -10.473  2.00     2 Cl
      -5.758  2.00    24 A         79.85%    18 A             -11.842  2.00     1 BrF
                                   16.71%     8 A               0.909  2.00     2 Cl
                                    1.72%    23 A              -6.492  0.00     1 BrF
                                    1.18%     6 A             -10.473  2.00     2 Cl
      -3.752  2.00    25 A         66.23%    19 A              -9.980  2.00     1 BrF
                                   23.58%    20 A              -9.980  2.00     1 BrF
                                    3.92%     7 A               0.909  2.00     2 Cl
                                    3.82%    22 A              -7.918  2.00     1 BrF
                                    1.23%    21 A              -7.918  2.00     1 BrF
                                    1.09%     9 A               0.909  2.00     2 Cl
      -3.752  2.00    26 A         66.23%    20 A              -9.980  2.00     1 BrF
                                   23.58%    19 A              -9.980  2.00     1 BrF
                                    3.95%     9 A               0.909  2.00     2 Cl
                                    3.82%    21 A              -7.918  2.00     1 BrF
                                    1.23%    22 A              -7.918  2.00     1 BrF
                                    1.08%     7 A               0.909  2.00     2 Cl
      -2.779  2.00    27 A         57.04%     8 A               0.909  2.00     2 Cl
                                   22.05%    23 A              -6.492  0.00     1 BrF
                                   18.61%    18 A             -11.842  2.00     1 BrF
      -2.674  2.00    28 A         48.02%     9 A               0.909  2.00     2 Cl
                                   23.29%    21 A              -7.918  2.00     1 BrF
                                   12.89%     7 A               0.909  2.00     2 Cl
                                    8.16%    20 A              -9.980  2.00     1 BrF
                                    5.32%    22 A              -7.918  2.00     1 BrF
                                    1.67%    19 A              -9.980  2.00     1 BrF
      -2.674  2.00    29 A         47.71%     7 A               0.909  2.00     2 Cl
                                   23.29%    22 A              -7.918  2.00     1 BrF
                                   13.02%     9 A               0.909  2.00     2 Cl
                                    8.16%    19 A              -9.980  2.00     1 BrF
                                    5.32%    21 A              -7.918  2.00     1 BrF
                                    1.67%    20 A              -9.980  2.00     1 BrF
      -1.544  2.00    30 A         65.91%    21 A              -7.918  2.00     1 BrF
                                   32.72%     9 A               0.909  2.00     2 Cl
      -1.544  2.00    31 A         65.91%    22 A              -7.918  2.00     1 BrF
                                   32.49%     7 A               0.909  2.00     2 Cl
       1.354  0.00    32 A         74.47%    23 A              -6.492  0.00     1 BrF
                                   22.89%     8 A               0.909  2.00     2 Cl
       5.412  0.00    33 A        106.17%    24 A               0.819  0.00     1 BrF
                                   -4.34%    10 A              12.914  0.00     2 Cl
                                   -2.23%    25 A               3.328  0.00     1 BrF
                                    2.09%    23 A              -6.492  0.00     1 BrF
                                   -1.45%    13 A              13.299  0.00     2 Cl



 =======================================================================
 Electrostatic potential at the Nuclei due to electrons and other nuclei
 =======================================================================
  
         Atom                  Potential
         ----                  ---------
     1)   Br                176.11093652
     2)   F                  26.84168295
     3)   Cl                 64.63657158
 
 
 ========================
 No memory problems found
 ========================
 
 Maximum number of active allocate calls:         636
 
 *******************************************************************************

                             A D F   E X I T
 NORMAL TERMINATION



 =================
 Timing Statistics
 =================
  
 Total Used :                     CPU=        6.46      System=        0.22     Elapsed=        7.07

 Calls  Section                     ( Mean, Percentage )
 ---------------------------------------------------------------------------------------------------
     3  ><      ................      0.00    0.00             0.00    0.00             0.00    0.02
     1  INIT    ................      0.46    7.14             0.03   11.66             0.49    6.93
     1  GEOMET  ................      0.03    0.46             0.01    4.04             0.36    5.13
     1  FRAGM   ................      0.01    0.12             0.01    4.93             0.02    0.35
     1  INPUTA  ................      0.00    0.00             0.00    0.00             0.00    0.01
     1  ATDEN   ................      0.00    0.06             0.00    0.45             0.01    0.07
     1  MAINSY  ................      0.01    0.15             0.00    1.35             0.02    0.23
     1  SYMFIT  ................      0.00    0.03             0.00    0.00             0.00    0.03
     1  CORORT  ................      0.00    0.00             0.00    0.00             0.00    0.01
     1  SYMORB  ................      0.00    0.06             0.00    0.00             0.00    0.05
     1  CLSMAT  ................      0.01    0.11             0.00    0.45             0.01    0.11
     1  ORTHON  ................      0.01    0.17             0.00    0.00             0.01    0.16
     1  GENPT   ................      0.12    1.89             0.00    0.90             0.13    1.77
     1  PTBAS   ................      0.04    0.60             0.00    0.45             0.04    0.56
    18  FOCKY   ................      0.12   33.01             0.00   10.31             0.12   30.59
    18  FOCKTR  ................      0.00    0.56             0.00    0.45             0.00    0.55
    18  SDIIS   ................      0.00    1.02             0.00    2.24             0.00    1.01
     1  COREPS  ................      0.10    1.58             0.00    0.00             0.10    1.46
     1  TOTEN   ................      0.32    5.00             0.00    1.79             0.33    4.65
     1  POPAN   ................      0.00    0.05             0.00    0.45             0.01    0.12
     1  DEBYE   ................      0.00    0.08             0.00    0.00             0.00    0.06
     1  INPUTE  ................      0.00    0.00             0.00    0.00             0.00    0.02
     1  SYMORE  ................      0.00    0.02             0.00    0.00             0.00    0.02
     1  METS    ................      0.00    0.02             0.00    0.00             0.00    0.01
     1  CETS    ................      0.01    0.20             0.00    0.90             0.03    0.38
     1  POPUL   ................      3.05   47.21             0.13   58.30             3.20   45.26
     1  EXIT PROCEDURE .........      0.03    0.45             0.00    1.35             0.03    0.44


 Currently Open Files (EXIT00)
 ====================

 Unit    Access Format  Status   Type       Ident (file)
 -------------------------------------------------------
   3      SEQ    FORM   TRANSP  NORMAL      LOGFILE
                                          ( logfile )


 Buffered I/O statistics
 =======================
 Memory available:                     67108864
 Number of records fitting in memory:     16131
 Input :   1.2% of                        57411  *4k bytes
 Output:  12.9% of                         4349  *4k bytes
 Records from serial files evicted:           0
                    others evicted:           0
 Hash table lookups:     163986 with          0 conflicts (  0.00%)

 ***************************************************************************************************
 (LOGFILE)
 <May09-2019> <17:12:12>  ADF 2017  RunTime: May09-2019 17:12:12  Nodes: 1  Procs: 12
 <May09-2019> <17:12:12>  *** (NO TITLE) ***
 <May09-2019> <17:12:12>  RunType   : SINGLE POINT
 <May09-2019> <17:12:12>  Net Charge: -1 (Nuclei minus Electrons)
 <May09-2019> <17:12:12>  Symmetry  : NOSYM
 <May09-2019> <17:12:12>  >>>> FRAGM
  Coordinates
    Atom         X           Y           Z   (Angstrom)
    1.Br       -4.842128    2.971314   -0.046348
    2.F        -3.733262    1.256876   -0.054555
    3.Cl       -6.199991    5.070729   -0.036298
 <May09-2019> <17:12:12>  >>>> CORORT
 <May09-2019> <17:12:12>  >>>> CLSMAT
 <May09-2019> <17:12:12>  >>>> ORTHON
 <May09-2019> <17:12:12>  >>>> GENPT
 <May09-2019> <17:12:12>  Block Length= 128
 <May09-2019> <17:12:13>  >>>> PTBAS
 <May09-2019> <17:12:13>  >>>> CYCLE
 <May09-2019> <17:12:13>              |Error|         MaxErr       Wt(A-DIIS)
 <May09-2019> <17:12:13>      1      1.61765652      1.01454069
 <May09-2019> <17:12:13>      2      1.03399980      0.49784502    100.0
 <May09-2019> <17:12:13>      3      0.74981836      0.37057610    100.0
 <May09-2019> <17:12:13>      4      0.71754174      0.35711290    100.0
 <May09-2019> <17:12:13>      5      2.54463340      0.94734582    100.0
 <May09-2019> <17:12:13>      6      0.70332341      0.19555296    100.0
 <May09-2019> <17:12:14>      7      0.42969686      0.17879903    100.0
 <May09-2019> <17:12:14>      8      0.64468929      0.19823250    100.0
 <May09-2019> <17:12:14>      9      0.27126192      0.10548267    100.0
 <May09-2019> <17:12:14>     10      0.24315607      0.09108484     91.0
 <May09-2019> <17:12:14>     11      0.06849596      0.02534228     24.6
 <May09-2019> <17:12:14>     12      0.04182331      0.01522333     14.4
 <May09-2019> <17:12:14>     13      0.00218129      0.00080750      0.0
 <May09-2019> <17:12:14>     14      0.00013765      0.00004562      0.0
 <May09-2019> <17:12:14>     15      0.00003681      0.00001193      0.0
 <May09-2019> <17:12:15>     16      0.00000670      0.00000281      0.0
 <May09-2019> <17:12:15>     17      0.00000100      0.00000026      0.0
 <May09-2019> <17:12:15>  SCF converged
 <May09-2019> <17:12:15>     18      0.00000016      0.00000005      0.0
 <May09-2019> <17:12:15>  >>>> TOTEN
 <May09-2019> <17:12:15>  >>>> POPAN
 <May09-2019> <17:12:15>  >>>> DEBYE
 <May09-2019> <17:12:15>  >>>> AMETS
 <May09-2019> <17:12:18>   Bond Energy          -0.09427426 a.u.
 <May09-2019> <17:12:18>   Bond Energy          -2.56533300 eV
 <May09-2019> <17:12:18>   Bond Energy         -59.16       kcal/mol
 <May09-2019> <17:12:18>  >>>> POPUL
 <May09-2019> <17:12:19>  NORMAL TERMINATION
 <May09-2019> <17:12:19>  END
