
Create Cr   file=TZ2P-Cr
XC
  GGA blyp
End
End Input

 *******************************************************************************
 *                                                                             *
 *  -------------------------------------                                      *
 *   Amsterdam Density Functional  (ADF)         2017                          *
 *  -------------------------------------                                      *
 *                                               r58813 2017-04-12             *
 *                                                                             *
 *                                                                             *
 *                              =================                              *
 *                              |               |                              *
 *                              |     A D F     |                              *
 *                              |               |                              *
 *                              =================                              *
 *                                                                             *
 *                                                                             *
 *   Online information and documentation:  https://www.scm.com/support/       *
 *   E-mail:  support@scm.com   info@scm.com                                   *
 *                                                                             *
 *   Scientific publications using ADF results must be properly referenced     *
 *   See the User Manuals (or the web site) for recommended citations          *
 *   The terms and conditions of the End User License Agreement apply to       *
 *   the use of ADF, https://www.scm.com/license-terms/                        *
 *                                                                             *
 **********************  x86_64_linux_intel / intelmpi  ************************
 
 Licensed to: VU/FEW (+ SARA) / ALGEMEEN / Amsterdam / THE NETHERLANDS
 SCM User ID: u7668
  
 ADF 2017  RunTime: May15-2019 14:10:00  Nodes: 1  Procs: 1

 Temporary files are created in /local/datastore0/tcst25/190406/kid_0.n0IkqU

 Chromium (TZ2P)



 ===========================
 A T T A C H E D   F I L E S
 ===========================
  
 CREATE - Data File:    TZ2P-Cr
                        Chromium (TZ2P)



 ===============================
 M O D E L   P A R A M E T E R S
 ===============================
  
 DENSITY FUNCTIONAL POTENTIAL (scf)
    LDA:                               Exchange only                           == Not Default ==
    Gradient Corrections:              Becke88 LYP                             == Not Default ==

 SPIN  (restricted / unrestr.)
    Molecule:                          Restricted                               

 OTHER ASPECTS
    Relativistic Corrections:          ---                                      

    Nuclear Charge Density Model:      Point Charge Nuclei                      
    Core Treatment:                    Frozen Orbital(s)                        

    Hyperfine or Zeeman Interaction:   ---                                      



 =====================================
 S Y M M E T R Y ,   E L E C T R O N S
 =====================================
  
 Symmetry: ATOM

 Irreducible Representations, including subspecies
 -------------------------------------------------
 S
 P:x  P:y  P:z
 D:z2  D:x2-y2  D:xy  D:xz  D:yz
 F:z3  F:z  F:xyz  F:z2x  F:z2y  F:x  F:y


 Configuration of Valence Electrons
 ==================================

          Occupation Numbers
          -------------------------------------------------
 S        3*2 1
 P        2*6
 D        5
 F        0
          -------------------------------------------------

 Total:   24

 Net Charge: 0 (Nuclei minus Electrons)

 Preset values for MO occupations will be applied through SCF cycle no. 1000000
 Thereafter, the program will assign electrons to MOs that are spatially
 similar to the occupied MOs in a "reference" cycle ("KeepOrbitals").
 The reference cycle is always the PREVIOUS cycle: it will evolve with
 the SCF procedure.



 ================================
 (Slater-type)  F U N C T I O N S  ***  (Basis and Fit)  ***
 ================================
  

 Atom Type    1  (Cr)
 ==============

 Valence Basis Sets:  19
 -----------------------
   1 S   27.250000
   1 S   21.700000
   2 S    9.200000
   2 S    6.050000
   2 P   13.200000
   2 P    8.250000
   3 S    5.250000
   3 S    3.300000
   3 P    5.650000
   3 P    3.800000
   3 P    2.550000
   3 D    5.700000
   3 D    2.700000
   3 D    1.240000
   4 S    2.050000
   4 S    1.280000
   4 S    0.840000
   4 P    1.300000
   4 F    2.500000


 BAS: List of all Elementary Cartesian Basis Functions
 =====================================================

 The numbering in the list below (to the right of the function characteristics) is referred
 to in print-outs of MO eigenvectors and Mulliken populations in the BAS representation
 (as contrasted to the SFO representation).

 Notes:
 1. The functions are characterized by a polynomial prefactor (powers of x,y,z and r) and
    an exponential decay factor alpha.
 2. Since the basis sets are specific for an atom TYPE, the individual functions occur on
    all atoms of that type.
 3. The word 'Core' in the left margin signals that it is a Core Function (CF) : not a
    degree of freedom in the valence set, but only used to ensure orthogonalization of
    the other valence basis functions on the frozen Core Orbitals.


 (power of) X  Y  Z  R     Alpha  on Atom
            ==========     =====     ==========

 Cr                                   1
                                  ---------------------------------------------------------------------------
            0  0  0  0    27.250      1
            0  0  0  0    21.700      2
            0  0  0  1     9.200      3
            0  0  0  1     6.050      4
            1  0  0  0    13.200      5
            0  1  0  0    13.200      6
            0  0  1  0    13.200      7
            1  0  0  0     8.250      8
            0  1  0  0     8.250      9
            0  0  1  0     8.250     10
            0  0  0  2     5.250     11
            0  0  0  2     3.300     12
            1  0  0  1     5.650     13
            0  1  0  1     5.650     14
            0  0  1  1     5.650     15
            1  0  0  1     3.800     16
            0  1  0  1     3.800     17
            0  0  1  1     3.800     18
            1  0  0  1     2.550     19
            0  1  0  1     2.550     20
            0  0  1  1     2.550     21
            2  0  0  0     5.700     22
            1  1  0  0     5.700     23
            1  0  1  0     5.700     24
            0  2  0  0     5.700     25
            0  1  1  0     5.700     26
            0  0  2  0     5.700     27
            2  0  0  0     2.700     28
            1  1  0  0     2.700     29
            1  0  1  0     2.700     30
            0  2  0  0     2.700     31
            0  1  1  0     2.700     32
            0  0  2  0     2.700     33
            2  0  0  0     1.240     34
            1  1  0  0     1.240     35
            1  0  1  0     1.240     36
            0  2  0  0     1.240     37
            0  1  1  0     1.240     38
            0  0  2  0     1.240     39
            0  0  0  3     2.050     40
            0  0  0  3     1.280     41
            0  0  0  3     0.840     42
            1  0  0  2     1.300     43
            0  1  0  2     1.300     44
            0  0  1  2     1.300     45
            3  0  0  0     2.500     46
            2  1  0  0     2.500     47
            2  0  1  0     2.500     48
            1  2  0  0     2.500     49
            1  1  1  0     2.500     50
            1  0  2  0     2.500     51
            0  3  0  0     2.500     52
            0  2  1  0     2.500     53
            0  1  2  0     2.500     54
            0  0  3  0     2.500     55

 Total number of charge fitting functions (nprimf)       170
 Total number of Cartesian basis functions (naos)         55
 Total number of Cartesian core functions  (ncos)          0



 BAS: List of all Elementary Cartesian Basis Functions
 =====================================================

 The numbering in the list below (to the right of the function characteristics) is referred
 to in print-outs of MO eigenvectors and Mulliken populations in the BAS representation
 (as contrasted to the SFO representation).

 Notes:
 1. The functions are characterized by a polynomial prefactor (powers of x,y,z and r) and
    an exponential decay factor alpha.
 2. Since the basis sets are specific for an atom TYPE, the individual functions occur on
    all atoms of that type.
 3. The word 'Core' in the left margin signals that it is a Core Function (CF) : not a
    degree of freedom in the valence set, but only used to ensure orthogonalization of
    the other valence basis functions on the frozen Core Orbitals.


 (power of) X  Y  Z  R     Alpha  on Atom
            ==========     =====     ==========

 Cr                                   1
                                  ---------------------------------------------------------------------------
            0  0  0  0    27.250      1
            0  0  0  0    21.700      2
            0  0  0  1     9.200      3
            0  0  0  1     6.050      4
            1  0  0  0    13.200      5
            0  1  0  0    13.200      6
            0  0  1  0    13.200      7
            1  0  0  0     8.250      8
            0  1  0  0     8.250      9
            0  0  1  0     8.250     10
            0  0  0  2     5.250     11
            0  0  0  2     3.300     12
            1  0  0  1     5.650     13
            0  1  0  1     5.650     14
            0  0  1  1     5.650     15
            1  0  0  1     3.800     16
            0  1  0  1     3.800     17
            0  0  1  1     3.800     18
            1  0  0  1     2.550     19
            0  1  0  1     2.550     20
            0  0  1  1     2.550     21
            2  0  0  0     5.700     22
            1  1  0  0     5.700     23
            1  0  1  0     5.700     24
            0  2  0  0     5.700     25
            0  1  1  0     5.700     26
            0  0  2  0     5.700     27
            2  0  0  0     2.700     28
            1  1  0  0     2.700     29
            1  0  1  0     2.700     30
            0  2  0  0     2.700     31
            0  1  1  0     2.700     32
            0  0  2  0     2.700     33
            2  0  0  0     1.240     34
            1  1  0  0     1.240     35
            1  0  1  0     1.240     36
            0  2  0  0     1.240     37
            0  1  1  0     1.240     38
            0  0  2  0     1.240     39
            0  0  0  3     2.050     40
            0  0  0  3     1.280     41
            0  0  0  3     0.840     42
            1  0  0  2     1.300     43
            0  1  0  2     1.300     44
            0  0  1  2     1.300     45
            3  0  0  0     2.500     46
            2  1  0  0     2.500     47
            2  0  1  0     2.500     48
            1  2  0  0     2.500     49
            1  1  1  0     2.500     50
            1  0  2  0     2.500     51
            0  3  0  0     2.500     52
            0  2  1  0     2.500     53
            0  1  2  0     2.500     54
            0  0  3  0     2.500     55
1
 ***************************************************************************************************



                                              ***********************
                                              *  T E C H N I C A L  *
                                              ***********************
  



 =============================================================
 P A R A L L E L I Z A T I O N  and  V E C T O R I Z A T I O N
 =============================================================
  
 Nr of parallel processes:                                1
 Maximum vector length in NumInt loops:                 128

 IO buffersize (Mb):                                     64.000000



 =====================
 S C F   U P D A T E S
 =====================
  
 Max. nr. of cycles:                               300
 Convergence criterion:                              0.0000000100
   secondary criterion:                              0.0000000100

 Mix parameter (when DIIS does not apply):           0.2000000000
 Special mix parameter for the first cycle:          1.0000000000
 Mixed ADIIS+DIIS will be used
    Max number of expansion vectors:                10
    Pure ADIIS when Max([F,P]) is above              0.1000000000
    Pure DIIS when Max([F,P]) is below               0.0010000000
 Automatic ElectronSmearing (in case of problematic SCF convergence) disabled



 =================
 P R E C I S I O N  ***  (General: NumInt, NeglectFunctionTails, ...)  ***
 =================
  

 NumInt:           Target precision:                12.0000000000
 -------           Initial precision:               10.0000000000
                   Min. precision (optimization):   10.0000000000

 Neglect Functions:          Basis functions:        0.1000000000E-13
 ------------------          Fit functions:          0.1000000000E-13



 ===========================
 L I N E A R   S C A L I N G
 ===========================
  

 Cut-off radii density fit:                        0.1000000000E-97
 Overlap cut-off criterion AO matrix elements:     0.1000000000E-97
 Cut-offs for Coulomb potential and fitted density:0.1000000000E-97
 Cut-off criterion for Coulomb multipole terms:    0.1000000000E-97
 Progressive Convergence parameter:                 0.000000000    
1
 ***************************************************************************************************



                                            ***************************
                                            *  C O M P U T A T I O N  *
                                            ***************************
  

 Number of elements of the density matrix on this node (used, total):      1540      1540



 ===========================================
 Numerical Integration : Fuzzy Cells (Becke)
 ===========================================
  
 Becke grid quality: VERYGOOD       
  
 Lebedev angular grid order:             min:  13 max:  41
 Nr. of radial points:                   min: 102 max: 102

 Total nr. of points:        102
 Nr. of blocks:                1
 Block length:               102
 Nr. of dummy points:          0


 Test of Precision of the Numerical Integration Grid
 ===================================================

 Integral of the Total Core Density:                   0.00000000000000



 ========================
 Density Fitting (zlmFit)
 ========================
  
 ZlmFit Fit Quality: VERYGOOD       
  
 Max L-expansion:                        min:   0 max:   0
 Nr. of radial interpolation points:     min: 230 max: 230



 =====
 S C F  ***  ScaSCF  ***
 =====
  

 CYCLE    1
 SCF Error: norm([F,P])=      0.000000000000, max([F,P])=      0.000000000000
 orbitals (Q,E):
 ---------------
 S :1...9            ( 2.00  -287.9915)  ( 2.00   -71.9708)  ( 2.00   -31.9484)  ( 1.00   -17.7450)
                     ( 0.00   -10.8372)  ( 0.00    -7.1766)  ( 0.00    -5.0604)  ( 0.00    -3.2449)
                     ( 0.00   340.9837)
 P :1...6            ( 6.00   -71.9756)  ( 6.00   -31.7695)  ( 0.00   -17.6302)  ( 0.00   -10.8195)
                     ( 0.00    -6.0330)  ( 0.00     9.1435)
 D :1...3            ( 5.00   -29.9759)  ( 0.00   -15.0331)  ( 0.00    -7.2836)
 F :1...1            ( 0.00   -11.8750)

 CYCLE    2
  SDIIS (wt  0.000):  1.0000 -0.0000
 A-DIIS (wt  1.000):  0.0000  1.0000
  DIIS coefficients:  0.0000  1.0000
 SCF Error: norm([F,P])=     64.932961804951, max([F,P])=     16.414165281176
 orbitals (Q,E):
 ---------------
 S :1...5            ( 2.00  -192.1852)  ( 2.00   -11.1021)  ( 2.00    -0.0379)  ( 1.00     0.0843)
                     ( 0.00     0.4613)
 P :1...3            ( 6.00    -6.5706)  ( 6.00     0.1370)  ( 0.00     0.9280)
 D :1...2            ( 5.00     0.4951)  ( 0.00     2.8301)
 F :1...1            ( 0.00     2.7255)

 CYCLE    3
  SDIIS (wt  0.000):  0.1570  0.8430
 A-DIIS (wt  1.000):  0.3405  0.6595
  DIIS coefficients:  0.3405  0.6595
 SCF Error: norm([F,P])=     25.109080471626, max([F,P])=      7.328029536266
 orbitals (Q,E):
 ---------------
 S :1...5            ( 2.00  -217.5707)  ( 2.00   -27.5641)  ( 2.00    -5.7568)  ( 1.00    -1.3553)
                     ( 0.00    -0.1609)
 P :1...3            ( 6.00   -23.9361)  ( 6.00    -4.6970)  ( 0.00    -1.0167)
 D :1...2            ( 5.00    -2.9636)  ( 0.00    -0.4152)
 F :1...1            ( 0.00    -0.0813)

 CYCLE    4
  SDIIS (wt  0.000): -0.0124  0.0530  0.9595
 A-DIIS (wt  1.000):  0.0000  0.0291  0.9709
  DIIS coefficients:  0.0000  0.0291  0.9709
 SCF Error: norm([F,P])=      5.277351823649, max([F,P])=      1.324054231532
 orbitals (Q,E):
 ---------------
 S :1...5            ( 2.00  -211.4603)  ( 2.00   -21.4809)  ( 2.00    -1.3260)  ( 1.00    -0.0212)
                     ( 0.00     0.1331)
 P :1...3            ( 6.00   -17.8001)  ( 6.00    -0.4548)  ( 0.00     0.1642)
 D :1...2            ( 5.00     0.3460)  ( 0.00     1.3110)
 F :1...1            ( 0.00     2.1474)

 CYCLE    5
  SDIIS (wt  0.000): -0.0034 -0.0243  0.6109  0.4168
 A-DIIS (wt  1.000):  0.0000  0.0000  0.6445  0.3555
  DIIS coefficients:  0.0000  0.0000  0.6445  0.3555
 SCF Error: norm([F,P])=      7.481685644753, max([F,P])=      2.336147255568
 orbitals (Q,E):
 ---------------
 S :1...5            ( 2.00  -214.1036)  ( 2.00   -23.8368)  ( 2.00    -2.6035)  ( 1.00    -0.1482)
                     ( 0.00     0.0411)
 P :1...3            ( 6.00   -20.2034)  ( 6.00    -1.6101)  ( 0.00    -0.0025)
 D :1...2            ( 5.00    -0.0926)  ( 0.00     0.4267)
 F :1...1            ( 0.00     1.6126)

 CYCLE    6
  SDIIS (wt  0.000):  0.0012 -0.0024  0.1307 -0.0380  0.9085
 A-DIIS (wt  1.000):  0.0000  0.0000  0.0000  0.0000  1.0000
  DIIS coefficients:  0.0000  0.0000  0.0000  0.0000  1.0000
 SCF Error: norm([F,P])=      1.084731594398, max([F,P])=      0.355355687209
 orbitals (Q,E):
 ---------------
 S :1...5            ( 2.00  -215.0656)  ( 2.00   -24.6630)  ( 2.00    -2.8857)  ( 1.00    -0.1560)
                     ( 0.00     0.0431)
 P :1...3            ( 6.00   -21.0568)  ( 6.00    -1.8699)  ( 0.00    -0.0115)
 D :1...2            ( 5.00    -0.2685)  ( 0.00     0.3520)
 F :1...1            ( 0.00     1.5968)

 CYCLE    7
  SDIIS (wt  0.000): -0.0003  0.0001 -0.0168  0.0037  0.5721  0.4411
 A-DIIS (wt  1.000):  0.0000  0.0000  0.0000  0.0000  0.7317  0.2683
  DIIS coefficients:  0.0000  0.0000  0.0000  0.0000  0.7317  0.2683
 SCF Error: norm([F,P])=      1.651751823165, max([F,P])=      0.499376217207
 orbitals (Q,E):
 ---------------
 S :1...5            ( 2.00  -214.5993)  ( 2.00   -24.2673)  ( 2.00    -2.6745)  ( 1.00    -0.1322)
                     ( 0.00     0.0520)
 P :1...3            ( 6.00   -20.6500)  ( 6.00    -1.6683)  ( 0.00     0.0079)
 D :1...2            ( 5.00    -0.1098)  ( 0.00     0.4098)
 F :1...1            ( 0.00     1.6693)

 CYCLE    8
  SDIIS (wt  0.000): -0.0002  0.0006  0.0129  0.0003  0.0952 -0.2265  1.1175
 A-DIIS (wt  1.000):  0.0000  0.0000  0.0000  0.0000  0.1536  0.0000  0.8464
  DIIS coefficients:  0.0000  0.0000  0.0000  0.0000  0.1536  0.0000  0.8464
 SCF Error: norm([F,P])=      0.380873233079, max([F,P])=      0.122742395523
 orbitals (Q,E):
 ---------------
 S :1...5            ( 2.00  -214.3358)  ( 2.00   -24.0604)  ( 2.00    -2.5825)  ( 1.00    -0.1285)
                     ( 0.00     0.0526)
 P :1...3            ( 6.00   -20.4347)  ( 6.00    -1.5818)  ( 0.00     0.0107)
 D :1...2            ( 5.00    -0.0522)  ( 0.00     0.4378)
 F :1...1            ( 0.00     1.6916)

 CYCLE    9
  SDIIS (wt  0.000): -0.0002  0.0006  0.0052 -0.0012  0.0974 -0.0835  0.7755  0.2062
 A-DIIS (wt  1.000):  0.0000  0.0000  0.0000  0.0000  0.0000  0.0000  0.5643  0.4357
  DIIS coefficients:  0.0000  0.0000  0.0000  0.0000  0.0000  0.0000  0.5643  0.4357
 SCF Error: norm([F,P])=      0.375377879688, max([F,P])=      0.104678179085
 orbitals (Q,E):
 ---------------
 S :1...5            ( 2.00  -214.4312)  ( 2.00   -24.1498)  ( 2.00    -2.6412)  ( 1.00    -0.1377)
                     ( 0.00     0.0484)
 P :1...3            ( 6.00   -20.5252)  ( 6.00    -1.6379)  ( 0.00     0.0025)
 D :1...2            ( 5.00    -0.0932)  ( 0.00     0.4149)
 F :1...1            ( 0.00     1.6652)

 CYCLE   10
  SDIIS (wt  0.864): -0.0000 -0.0000  0.0002 -0.0001  0.0051 -0.0160  0.2242  0.0754  0.7112
 A-DIIS (wt  0.136):  0.0000  0.0000  0.0000  0.0000  0.0000  0.0000  0.0000  0.0000  1.0000
  DIIS coefficients: -0.0000 -0.0000  0.0002 -0.0001  0.0044 -0.0138  0.1936  0.0652  0.7505
 SCF Error: norm([F,P])=      0.040425194524, max([F,P])=      0.014483649358
 orbitals (Q,E):
 ---------------
 S :1...5            ( 2.00  -214.4543)  ( 2.00   -24.1631)  ( 2.00    -2.6425)  ( 1.00    -0.1364)
                     ( 0.00     0.0492)
 P :1...3            ( 6.00   -20.5398)  ( 6.00    -1.6389)  ( 0.00     0.0038)
 D :1...2            ( 5.00    -0.0929)  ( 0.00     0.4154)
 F :1...1            ( 0.00     1.6676)

 CYCLE   11
  SDIIS (wt  0.986):  0.0000  0.0000  0.0000 -0.0000 -0.0004 -0.0007 -0.0003  0.0134  0.0405  0.9475
 A-DIIS (wt  0.014):  0.0000  0.0000  0.0000  0.0000  0.0000  0.0000  0.0000  0.0000  0.0399  0.9601
  DIIS coefficients:  0.0000  0.0000  0.0000 -0.0000 -0.0004 -0.0007 -0.0003  0.0132  0.0405  0.9477
 SCF Error: norm([F,P])=      0.007759540147, max([F,P])=      0.002359298029
 orbitals (Q,E):
 ---------------
 S :1...5            ( 2.00  -214.4513)  ( 2.00   -24.1608)  ( 2.00    -2.6414)  ( 1.00    -0.1362)
                     ( 0.00     0.0493)
 P :1...3            ( 6.00   -20.5374)  ( 6.00    -1.6378)  ( 0.00     0.0039)
 D :1...2            ( 5.00    -0.0922)  ( 0.00     0.4158)
 F :1...1            ( 0.00     1.6679)

 CYCLE   12
  SDIIS (wt  1.000): -0.0000  0.0000 -0.0000  0.0000  0.0000  0.0000 -0.0001  0.0016  0.0252  0.9732
  DIIS coefficients: -0.0000  0.0000 -0.0000  0.0000  0.0000  0.0000 -0.0001  0.0016  0.0252  0.9732
 SCF Error: norm([F,P])=      0.000193771014, max([F,P])=      0.000052667006
 orbitals (Q,E):
 ---------------
 S :1...5            ( 2.00  -214.4514)  ( 2.00   -24.1609)  ( 2.00    -2.6414)  ( 1.00    -0.1362)
                     ( 0.00     0.0493)
 P :1...3            ( 6.00   -20.5374)  ( 6.00    -1.6379)  ( 0.00     0.0039)
 D :1...2            ( 5.00    -0.0922)  ( 0.00     0.4158)
 F :1...1            ( 0.00     1.6679)

 CYCLE   13
  SDIIS (wt  1.000):  0.0000 -0.0000  0.0000  0.0005  0.0121  0.9874
  DIIS coefficients:  0.0000 -0.0000  0.0000  0.0005  0.0121  0.9874
 SCF Error: norm([F,P])=      0.000000708939, max([F,P])=      0.000000191158
 orbitals (Q,E):
 ---------------
 S :1...5            ( 2.00  -214.4514)  ( 2.00   -24.1609)  ( 2.00    -2.6414)  ( 1.00    -0.1362)
                     ( 0.00     0.0493)
 P :1...3            ( 6.00   -20.5374)  ( 6.00    -1.6379)  ( 0.00     0.0039)
 D :1...2            ( 5.00    -0.0922)  ( 0.00     0.4158)
 F :1...1            ( 0.00     1.6679)

 CYCLE   14
  SDIIS (wt  1.000): -0.0000 -0.0002  0.0533  0.9469
  DIIS coefficients: -0.0000 -0.0002  0.0533  0.9469
 SCF Error: norm([F,P])=      0.000000009703, max([F,P])=      0.000000002794
 orbitals (Q,E):
 ---------------
 S :1...5            ( 2.00  -214.4514)  ( 2.00   -24.1609)  ( 2.00    -2.6414)  ( 1.00    -0.1362)
                     ( 0.00     0.0493)
 P :1...3            ( 6.00   -20.5374)  ( 6.00    -1.6379)  ( 0.00     0.0039)
 D :1...2            ( 5.00    -0.0922)  ( 0.00     0.4158)
 F :1...1            ( 0.00     1.6679)

 SCF CONVERGED

 CYCLE   15
1
 ***************************************************************************************************



                                                *******************
                                                *  R E S U L T S  *
                                                *******************
  
 *** Setting up for NEW gradients in Focky
 *** Using FIT density in Focky

 Orbital Energies, per Irrep and Spin:
 ======================================
                        Occup              E (au)              E (eV)       Diff (eV) with prev. cycle
                        -----      --------------------        ------       --------------------------
 S
               1        2.000     -0.21445135247710E+03     -5835.518              -1.40E-09
               2        2.000     -0.24160857664250E+02      -657.450              -1.61E-09
               3        2.000     -0.26413998725566E+01       -71.876              -1.67E-09
               4        1.000     -0.13623201448363E+00        -3.707               1.72E-11
               5        0.000      0.49261233630075E-01         1.340
               6        0.000      0.53189548224412E+00        14.474
               7        0.000      0.34199448564475E+01        93.061
               8        0.000      0.23387200194018E+02       636.398
               9        0.000      0.40597682316695E+03     11047.191
 P
               1        6.000     -0.20537441336690E+02      -558.852              -1.54E-09
               2        6.000     -0.16378592102634E+01       -44.568              -1.60E-09
               3        0.000      0.38659614251202E-02         0.105
               4        0.000      0.10653860806953E+01        28.991
               5        0.000      0.70716437548302E+01       192.429
               6        0.000      0.54284552336581E+02      1477.158
 D
               1        5.000     -0.92183097671034E-01        -2.508              -1.13E-09
               2        0.000      0.41575383921566E+00        11.313
               3        0.000      0.39090550936215E+01       106.371
 F
               1        0.000      0.16679274270831E+01        45.387


 Partially Occupied:
               4 S                -0.13623201448363E+00
               1 D                -0.92183097671034E-01
  
 HOMO :        2 P                -0.16378592102634E+01
 LUMO :        3 P                 0.38659614251202E-02
  


 Orbital Energies, all Irreps
 ========================================

 Irrep        no.  (spin)   Occup              E (au)                E (eV)
 ---------------------------------------------------------------------------
 S             1             2.00       -0.21445135247710E+03     -5835.5182
 S             2             2.00       -0.24160857664250E+02      -657.4504
 P             1             6.00       -0.20537441336690E+02      -558.8522
 S             3             2.00       -0.26413998725566E+01       -71.8761
 P             2             6.00       -0.16378592102634E+01       -44.5684
 S             4             1.00       -0.13623201448363E+00        -3.7071
 D             1             5.00       -0.92183097671034E-01        -2.5084
 P             3             0.00        0.38659614251202E-02         0.1052
 S             5             0.00        0.49261233630075E-01         1.3405
 D             2             0.00        0.41575383921566E+00        11.3132
 S             6             0.00        0.53189548224412E+00        14.4736
 P             4             0.00        0.10653860806953E+01        28.9906
 F             1             0.00        0.16679274270831E+01        45.3866
 S             7             0.00        0.34199448564475E+01        93.0614
 D             3             0.00        0.39090550936215E+01       106.3708
 P             5             0.00        0.70716437548302E+01       192.4292
 S             8             0.00        0.23387200194018E+02       636.3981
 P             6             0.00        0.54284552336581E+02      1477.1578
 S             9             0.00        0.40597682316695E+03     11047.1914


 All Electron Calculation, thus no Orbital Energies of the Core Orbitals are calculated



 =======================================
 M U L L I K E N   P O P U L A T I O N S
 =======================================
  
 The survey below gives for each atom:
 a) the total charge (Z minus electrons)
 b) the net spin polarization (nr of electrons spin-A minus spin-B)
 c) for each spin the atomic electron valence density (integrated) per L-value.

 Atom              Charge    Spin density          S         P         D         F
 ----              ------    ------------       ------    ------    ------    ------
 1 Cr             -0.0000                       7.0000   12.0000    5.0000    0.0000

 Populations of individual BAS functions
 ----------------------------------------
 1 Cr           0.6410  1.2958  1.9508 -0.1249  0.6772  0.6772  0.6772  1.3065  1.3065  1.3065
                1.3152  0.9140  0.4124  0.4124  0.4124  1.1521  1.1521  1.1521  0.4495  0.4495
                0.4495  0.1392  0.2089  0.2089  0.1392  0.2089  0.1392  0.3375  0.5063  0.5063
                0.3375  0.5063  0.3375  0.1899  0.2848  0.2848  0.1899  0.2848  0.1899  0.2578
                0.5323  0.2181  0.0022  0.0022  0.0022  0.0000  0.0000  0.0000  0.0000  0.0000
                0.0000  0.0000  0.0000  0.0000  0.0000

 Gross Charges per Atom (Z minus electrons)
 ==========================================
            -0.0000
 Net Total: -0.00000000



 =======================================================================
 Electrostatic potential at the Nuclei due to electrons and other nuclei
 =======================================================================
  
         Atom                  Potential
         ----                  ---------
     1)   Cr                103.39807911
 
 
 ========================
 No memory problems found
 ========================
 
 Maximum number of active allocate calls:         447
 
 *******************************************************************************

                             A D F   E X I T
 NORMAL TERMINATION



 =================
 Timing Statistics
 =================
  
 Total Used :                     CPU=        1.23      System=        0.05     Elapsed=        1.28

 Calls  Section                     ( Mean, Percentage )
 ---------------------------------------------------------------------------------------------------
     3  ><      ................      0.00    0.00             0.00    2.13             0.00    0.06
     1  INIT    ................      0.01    0.98             0.02   42.55             0.03    2.70
     1  GEOMET  ................      0.01    0.89             0.00    4.25             0.01    1.03
     1  INPUTA  ................      0.00    0.24             0.00    0.00             0.00    0.25
     1  MAINSY  ................      0.00    0.41             0.00    6.38             0.01    0.62
     1  SYMFIT  ................      0.00    0.00             0.00    2.13             0.00    0.09
     1  CORORT  ................      0.00    0.08             0.00    0.00             0.00    0.03
     1  SYMORB  ................      0.00    0.08             0.00    0.00             0.00    0.12
     1  CLSMAT  ................      0.01    0.65             0.00    2.13             0.01    0.72
     1  ORTHON  ................      0.00    0.24             0.00    2.13             0.00    0.25
     1  GENPT   ................      0.03    2.68             0.00    0.00             0.03    2.57
     1  PTBAS   ................      0.01    0.49             0.00    0.00             0.01    0.50
    15  FOCKY   ................      0.07   80.98             0.00   17.02             0.07   78.55
    15  FOCKTR  ................      0.00    1.71             0.00    4.26             0.00    1.69
    15  SDIIS   ................      0.00    3.01             0.00    8.51             0.00    3.25
     1  COREPS  ................      0.05    4.39             0.00    2.13             0.05    4.28
     1  POPAN   ................      0.01    0.81             0.00    0.00             0.01    0.72
     1  DEBYE   ................      0.00    0.08             0.00    0.00             0.00    0.09
     1  EXIT PROCEDURE .........      0.03    2.28             0.00    6.38             0.03    2.45


 Currently Open Files (EXIT00)
 ====================

 Unit    Access Format  Status   Type       Ident (file)
 -------------------------------------------------------
   3      SEQ    FORM   TRANSP  NORMAL      LOGFILE
                                          ( logfile )


 Buffered I/O statistics
 =======================
 Memory available:                     67108864
 Number of records fitting in memory:     16131
 Input :   0.1% of                        30530  *4k bytes
 Output:  12.1% of                         1550  *4k bytes
 Records from serial files evicted:           0
                    others evicted:           0
 Hash table lookups:      79234 with          0 conflicts (  0.00%)

 ***************************************************************************************************
 (LOGFILE)
 <May15-2019> <14:10:00>  ADF 2017  RunTime: May15-2019 14:10:00  Nodes: 1  Procs: 1
 <May15-2019> <14:10:00>  Chromium (TZ2P)
 <May15-2019> <14:10:00>  RunType   : CREATE
 <May15-2019> <14:10:00>  Net Charge: 0 (Nuclei minus Electrons)
 <May15-2019> <14:10:00>  Symmetry  : ATOM
  Coordinates
    Atom         X           Y           Z   (Angstrom)
    1.Cr        0.000000    0.000000    0.000000
 <May15-2019> <14:10:00>  >>>> CORORT
 <May15-2019> <14:10:00>  >>>> CLSMAT
 <May15-2019> <14:10:00>  >>>> ORTHON
 <May15-2019> <14:10:00>  >>>> GENPT
 <May15-2019> <14:10:00>  Block Length= 102
 <May15-2019> <14:10:00>  >>>> PTBAS
 <May15-2019> <14:10:00>  >>>> CYCLE
 <May15-2019> <14:10:00>              |Error|         MaxErr       Wt(A-DIIS)
 <May15-2019> <14:10:00>      1      0.00000000      0.00000000
 <May15-2019> <14:10:00>      2     64.93296180     16.41416528    100.0
 <May15-2019> <14:10:00>      3     25.10908047      7.32802954    100.0
 <May15-2019> <14:10:00>      4      5.27735182      1.32405423    100.0
 <May15-2019> <14:10:00>      5      7.48168564      2.33614726    100.0
 <May15-2019> <14:10:01>      6      1.08473159      0.35535569    100.0
 <May15-2019> <14:10:01>      7      1.65175182      0.49937622    100.0
 <May15-2019> <14:10:01>      8      0.38087323      0.12274240    100.0
 <May15-2019> <14:10:01>      9      0.37537788      0.10467818    100.0
 <May15-2019> <14:10:01>     10      0.04042519      0.01448365     13.6
 <May15-2019> <14:10:01>     11      0.00775954      0.00235930      1.4
 <May15-2019> <14:10:01>     12      0.00019377      0.00005267      0.0
 <May15-2019> <14:10:01>     13      0.00000071      0.00000019      0.0
 <May15-2019> <14:10:01>     14      0.00000001      0.00000000      0.0
 <May15-2019> <14:10:01>  SCF converged
 <May15-2019> <14:10:01>     15      0.00000000      0.00000000      0.0
 <May15-2019> <14:10:01>  >>>> POPAN
 <May15-2019> <14:10:01>  >>>> DEBYE
 <May15-2019> <14:10:01>  NORMAL TERMINATION
 <May15-2019> <14:10:01>  END

Create O   file=TZ2P-O
XC
  GGA blyp
End
End Input

 *******************************************************************************
 *                                                                             *
 *  -------------------------------------                                      *
 *   Amsterdam Density Functional  (ADF)         2017                          *
 *  -------------------------------------                                      *
 *                                               r58813 2017-04-12             *
 *                                                                             *
 *                                                                             *
 *                              =================                              *
 *                              |               |                              *
 *                              |     A D F     |                              *
 *                              |               |                              *
 *                              =================                              *
 *                                                                             *
 *                                                                             *
 *   Online information and documentation:  https://www.scm.com/support/       *
 *   E-mail:  support@scm.com   info@scm.com                                   *
 *                                                                             *
 *   Scientific publications using ADF results must be properly referenced     *
 *   See the User Manuals (or the web site) for recommended citations          *
 *   The terms and conditions of the End User License Agreement apply to       *
 *   the use of ADF, https://www.scm.com/license-terms/                        *
 *                                                                             *
 **********************  x86_64_linux_intel / intelmpi  ************************
 
 Licensed to: VU/FEW (+ SARA) / ALGEMEEN / Amsterdam / THE NETHERLANDS
 SCM User ID: u7668
  
 ADF 2017  RunTime: May15-2019 14:10:01  Nodes: 1  Procs: 1

 Temporary files are created in /local/datastore0/tcst25/190406/kid_0.00asQq

 Oxygen (TZ2P)



 ===========================
 A T T A C H E D   F I L E S
 ===========================
  
 CREATE - Data File:    TZ2P-O
                        Oxygen (TZ2P)



 ===============================
 M O D E L   P A R A M E T E R S
 ===============================
  
 DENSITY FUNCTIONAL POTENTIAL (scf)
    LDA:                               Exchange only                           == Not Default ==
    Gradient Corrections:              Becke88 LYP                             == Not Default ==

 SPIN  (restricted / unrestr.)
    Molecule:                          Restricted                               

 OTHER ASPECTS
    Relativistic Corrections:          ---                                      

    Nuclear Charge Density Model:      Point Charge Nuclei                      
    Core Treatment:                    Frozen Orbital(s)                        

    Hyperfine or Zeeman Interaction:   ---                                      



 =====================================
 S Y M M E T R Y ,   E L E C T R O N S
 =====================================
  
 Symmetry: ATOM

 Irreducible Representations, including subspecies
 -------------------------------------------------
 S
 P:x  P:y  P:z
 D:z2  D:x2-y2  D:xy  D:xz  D:yz
 F:z3  F:z  F:xyz  F:z2x  F:z2y  F:x  F:y


 Configuration of Valence Electrons
 ==================================

          Occupation Numbers
          -------------------------------------------------
 S        2*2
 P        4
 D        0
 F        0
          -------------------------------------------------

 Total:   8

 Net Charge: 0 (Nuclei minus Electrons)

 Preset values for MO occupations will be applied through SCF cycle no. 1000000
 Thereafter, the program will assign electrons to MOs that are spatially
 similar to the occupied MOs in a "reference" cycle ("KeepOrbitals").
 The reference cycle is always the PREVIOUS cycle: it will evolve with
 the SCF procedure.



 ================================
 (Slater-type)  F U N C T I O N S  ***  (Basis and Fit)  ***
 ================================
  

 Atom Type    1  (O)
 ==============

 Valence Basis Sets:  10
 -----------------------
   1 S    9.800000
   1 S    6.800000
   2 S    7.580000
   2 S    2.880000
   2 S    1.720000
   2 P    4.080000
   2 P    2.080000
   2 P    1.120000
   3 D    2.000000
   4 F    3.000000


 BAS: List of all Elementary Cartesian Basis Functions
 =====================================================

 The numbering in the list below (to the right of the function characteristics) is referred
 to in print-outs of MO eigenvectors and Mulliken populations in the BAS representation
 (as contrasted to the SFO representation).

 Notes:
 1. The functions are characterized by a polynomial prefactor (powers of x,y,z and r) and
    an exponential decay factor alpha.
 2. Since the basis sets are specific for an atom TYPE, the individual functions occur on
    all atoms of that type.
 3. The word 'Core' in the left margin signals that it is a Core Function (CF) : not a
    degree of freedom in the valence set, but only used to ensure orthogonalization of
    the other valence basis functions on the frozen Core Orbitals.


 (power of) X  Y  Z  R     Alpha  on Atom
            ==========     =====     ==========

 O                                    1
                                  ---------------------------------------------------------------------------
            0  0  0  0     9.800      1
            0  0  0  0     6.800      2
            0  0  0  1     7.580      3
            0  0  0  1     2.880      4
            0  0  0  1     1.720      5
            1  0  0  0     4.080      6
            0  1  0  0     4.080      7
            0  0  1  0     4.080      8
            1  0  0  0     2.080      9
            0  1  0  0     2.080     10
            0  0  1  0     2.080     11
            1  0  0  0     1.120     12
            0  1  0  0     1.120     13
            0  0  1  0     1.120     14
            2  0  0  0     2.000     15
            1  1  0  0     2.000     16
            1  0  1  0     2.000     17
            0  2  0  0     2.000     18
            0  1  1  0     2.000     19
            0  0  2  0     2.000     20
            3  0  0  0     3.000     21
            2  1  0  0     3.000     22
            2  0  1  0     3.000     23
            1  2  0  0     3.000     24
            1  1  1  0     3.000     25
            1  0  2  0     3.000     26
            0  3  0  0     3.000     27
            0  2  1  0     3.000     28
            0  1  2  0     3.000     29
            0  0  3  0     3.000     30

 Total number of charge fitting functions (nprimf)        84
 Total number of Cartesian basis functions (naos)         30
 Total number of Cartesian core functions  (ncos)          0



 BAS: List of all Elementary Cartesian Basis Functions
 =====================================================

 The numbering in the list below (to the right of the function characteristics) is referred
 to in print-outs of MO eigenvectors and Mulliken populations in the BAS representation
 (as contrasted to the SFO representation).

 Notes:
 1. The functions are characterized by a polynomial prefactor (powers of x,y,z and r) and
    an exponential decay factor alpha.
 2. Since the basis sets are specific for an atom TYPE, the individual functions occur on
    all atoms of that type.
 3. The word 'Core' in the left margin signals that it is a Core Function (CF) : not a
    degree of freedom in the valence set, but only used to ensure orthogonalization of
    the other valence basis functions on the frozen Core Orbitals.


 (power of) X  Y  Z  R     Alpha  on Atom
            ==========     =====     ==========

 O                                    1
                                  ---------------------------------------------------------------------------
            0  0  0  0     9.800      1
            0  0  0  0     6.800      2
            0  0  0  1     7.580      3
            0  0  0  1     2.880      4
            0  0  0  1     1.720      5
            1  0  0  0     4.080      6
            0  1  0  0     4.080      7
            0  0  1  0     4.080      8
            1  0  0  0     2.080      9
            0  1  0  0     2.080     10
            0  0  1  0     2.080     11
            1  0  0  0     1.120     12
            0  1  0  0     1.120     13
            0  0  1  0     1.120     14
            2  0  0  0     2.000     15
            1  1  0  0     2.000     16
            1  0  1  0     2.000     17
            0  2  0  0     2.000     18
            0  1  1  0     2.000     19
            0  0  2  0     2.000     20
            3  0  0  0     3.000     21
            2  1  0  0     3.000     22
            2  0  1  0     3.000     23
            1  2  0  0     3.000     24
            1  1  1  0     3.000     25
            1  0  2  0     3.000     26
            0  3  0  0     3.000     27
            0  2  1  0     3.000     28
            0  1  2  0     3.000     29
            0  0  3  0     3.000     30
1
 ***************************************************************************************************



                                              ***********************
                                              *  T E C H N I C A L  *
                                              ***********************
  



 =============================================================
 P A R A L L E L I Z A T I O N  and  V E C T O R I Z A T I O N
 =============================================================
  
 Nr of parallel processes:                                1
 Maximum vector length in NumInt loops:                 128

 IO buffersize (Mb):                                     64.000000



 =====================
 S C F   U P D A T E S
 =====================
  
 Max. nr. of cycles:                               300
 Convergence criterion:                              0.0000000100
   secondary criterion:                              0.0000000100

 Mix parameter (when DIIS does not apply):           0.2000000000
 Special mix parameter for the first cycle:          1.0000000000
 Mixed ADIIS+DIIS will be used
    Max number of expansion vectors:                10
    Pure ADIIS when Max([F,P]) is above              0.1000000000
    Pure DIIS when Max([F,P]) is below               0.0010000000
 Automatic ElectronSmearing (in case of problematic SCF convergence) disabled



 =================
 P R E C I S I O N  ***  (General: NumInt, NeglectFunctionTails, ...)  ***
 =================
  

 NumInt:           Target precision:                12.0000000000
 -------           Initial precision:               10.0000000000
                   Min. precision (optimization):   10.0000000000

 Neglect Functions:          Basis functions:        0.1000000000E-13
 ------------------          Fit functions:          0.1000000000E-13



 ===========================
 L I N E A R   S C A L I N G
 ===========================
  

 Cut-off radii density fit:                        0.1000000000E-97
 Overlap cut-off criterion AO matrix elements:     0.1000000000E-97
 Cut-offs for Coulomb potential and fitted density:0.1000000000E-97
 Cut-off criterion for Coulomb multipole terms:    0.1000000000E-97
 Progressive Convergence parameter:                 0.000000000    
1
 ***************************************************************************************************



                                            ***************************
                                            *  C O M P U T A T I O N  *
                                            ***************************
  

 Number of elements of the density matrix on this node (used, total):       465       465



 ===========================================
 Numerical Integration : Fuzzy Cells (Becke)
 ===========================================
  
 Becke grid quality: VERYGOOD       
  
 Lebedev angular grid order:             min:  13 max:  41
 Nr. of radial points:                   min:  68 max:  68

 Total nr. of points:         68
 Nr. of blocks:                1
 Block length:                68
 Nr. of dummy points:          0


 Test of Precision of the Numerical Integration Grid
 ===================================================

 Integral of the Total Core Density:                   0.00000000000000



 ========================
 Density Fitting (zlmFit)
 ========================
  
 ZlmFit Fit Quality: VERYGOOD       
  
 Max L-expansion:                        min:   0 max:   0
 Nr. of radial interpolation points:     min: 180 max: 180



 =====
 S C F  ***  ScaSCF  ***
 =====
  

 CYCLE    1
 SCF Error: norm([F,P])=      0.000000000000, max([F,P])=      0.000000000000
 orbitals (Q,E):
 ---------------
 S :1...5            ( 2.00   -31.9999)  ( 2.00    -7.9363)  ( 0.00    -3.4636)  ( 0.00     4.3191)
                     ( 0.00   110.5486)
 P :1...3            ( 4.00    -7.9991)  ( 0.00    -3.4855)  ( 0.00    -1.8903)
 D :1...1            ( 0.00    -3.3333)
 F :1...1            ( 0.00    -1.5000)

 CYCLE    2
  SDIIS (wt  0.000):  1.0000 -0.0000
 A-DIIS (wt  1.000):  0.0000  1.0000
  DIIS coefficients:  0.0000  1.0000
 SCF Error: norm([F,P])=      8.765745414074, max([F,P])=      5.518031311555
 orbitals (Q,E):
 ---------------
 S :1...3            ( 2.00   -14.5579)  ( 2.00    -0.0124)  ( 0.00     1.8192)
 P :1...2            ( 4.00     0.2183)  ( 0.00     1.2385)
 D :1...1            ( 0.00     1.5388)
 F :1...1            ( 0.00     3.9464)

 CYCLE    3
  SDIIS (wt  0.000):  0.2278  0.7722
 A-DIIS (wt  1.000):  0.3148  0.6852
  DIIS coefficients:  0.3148  0.6852
 SCF Error: norm([F,P])=      3.585499450444, max([F,P])=      2.499410108106
 orbitals (Q,E):
 ---------------
 S :1...3            ( 2.00   -19.8063)  ( 2.00    -1.5198)  ( 0.00     0.3996)
 P :1...2            ( 4.00    -0.9763)  ( 0.00     0.1325)
 D :1...1            ( 0.00     0.6540)
 F :1...1            ( 0.00     2.8642)

 CYCLE    4
  SDIIS (wt  0.000): -0.0456  0.1707  0.8749
 A-DIIS (wt  1.000):  0.0000  0.0000  1.0000
  DIIS coefficients:  0.0000  0.0000  1.0000
 SCF Error: norm([F,P])=      1.147919112368, max([F,P])=      0.583019620058
 orbitals (Q,E):
 ---------------
 S :1...3            ( 2.00   -18.0523)  ( 2.00    -0.5465)  ( 0.00     1.0349)
 P :1...2            ( 4.00    -0.0477)  ( 0.00     0.5307)
 D :1...1            ( 0.00     1.2443)
 F :1...1            ( 0.00     3.5731)

 CYCLE    5
  SDIIS (wt  0.000): -0.0195 -0.0760  0.5845  0.5110
 A-DIIS (wt  1.000):  0.0000  0.0000  0.6414  0.3586
  DIIS coefficients:  0.0000  0.0000  0.6414  0.3586
 SCF Error: norm([F,P])=      1.519585468023, max([F,P])=      0.840542006159
 orbitals (Q,E):
 ---------------
 S :1...3            ( 2.00   -18.8182)  ( 2.00    -0.8502)  ( 0.00     0.8091)
 P :1...2            ( 4.00    -0.3077)  ( 0.00     0.3582)
 D :1...1            ( 0.00     1.0753)
 F :1...1            ( 0.00     3.3669)

 CYCLE    6
  SDIIS (wt  0.000):  0.0038 -0.0006  0.0668 -0.0496  0.9795
 A-DIIS (wt  1.000):  0.0000  0.0000  0.0000  0.0000  1.0000
  DIIS coefficients:  0.0000  0.0000  0.0000  0.0000  1.0000
 SCF Error: norm([F,P])=      0.178828926625, max([F,P])=      0.104242033505
 orbitals (Q,E):
 ---------------
 S :1...3            ( 2.00   -19.0541)  ( 2.00    -0.9245)  ( 0.00     0.7610)
 P :1...2            ( 4.00    -0.3806)  ( 0.00     0.3267)
 D :1...1            ( 0.00     1.0451)
 F :1...1            ( 0.00     3.3284)

 CYCLE    7
  SDIIS (wt  0.000): -0.0003  0.0004 -0.0182  0.0130  0.4190  0.5861
 A-DIIS (wt  1.000):  0.0000  0.0000  0.0000  0.0000  0.5807  0.4193
  DIIS coefficients:  0.0000  0.0000  0.0000  0.0000  0.5807  0.4193
 SCF Error: norm([F,P])=      0.200125290981, max([F,P])=      0.113649127569
 orbitals (Q,E):
 ---------------
 S :1...3            ( 2.00   -18.9379)  ( 2.00    -0.8781)  ( 0.00     0.7909)
 P :1...2            ( 4.00    -0.3354)  ( 0.00     0.3452)
 D :1...1            ( 0.00     1.0687)
 F :1...1            ( 0.00     3.3572)

 CYCLE    8
  SDIIS (wt  0.910): -0.0000  0.0002  0.0044 -0.0011 -0.0192 -0.1454  1.1612
 A-DIIS (wt  0.090):  0.0000  0.0000  0.0000  0.0000  0.0000  0.0000  1.0000
  DIIS coefficients: -0.0000  0.0002  0.0040 -0.0010 -0.0175 -0.1323  1.1466
 SCF Error: norm([F,P])=      0.016951777154, max([F,P])=      0.009947196225
 orbitals (Q,E):
 ---------------
 S :1...3            ( 2.00   -18.9255)  ( 2.00    -0.8739)  ( 0.00     0.7936)
 P :1...2            ( 4.00    -0.3314)  ( 0.00     0.3469)
 D :1...1            ( 0.00     1.0707)
 F :1...1            ( 0.00     3.3597)

 CYCLE    9
  SDIIS (wt  1.000): -0.0000  0.0000  0.0000 -0.0001  0.0003  0.0067  0.0145  0.9786
  DIIS coefficients: -0.0000  0.0000  0.0000 -0.0001  0.0003  0.0067  0.0145  0.9786
 SCF Error: norm([F,P])=      0.001748429775, max([F,P])=      0.000984374869
 orbitals (Q,E):
 ---------------
 S :1...3            ( 2.00   -18.9266)  ( 2.00    -0.8743)  ( 0.00     0.7933)
 P :1...2            ( 4.00    -0.3318)  ( 0.00     0.3467)
 D :1...1            ( 0.00     1.0705)
 F :1...1            ( 0.00     3.3595)

 CYCLE   10
  SDIIS (wt  1.000): -0.0000 -0.0000 -0.0000 -0.0000  0.0000  0.0001 -0.0011 -0.0034  1.0043
  DIIS coefficients: -0.0000 -0.0000 -0.0000 -0.0000  0.0000  0.0001 -0.0011 -0.0034  1.0043
 SCF Error: norm([F,P])=      0.000001425696, max([F,P])=      0.000000713883
 orbitals (Q,E):
 ---------------
 S :1...3            ( 2.00   -18.9266)  ( 2.00    -0.8743)  ( 0.00     0.7933)
 P :1...2            ( 4.00    -0.3318)  ( 0.00     0.3467)
 D :1...1            ( 0.00     1.0705)
 F :1...1            ( 0.00     3.3595)

 CYCLE   11
  SDIIS (wt  1.000):  0.0000 -0.0000 -0.0000 -0.0001 -0.0046  1.0047
  DIIS coefficients:  0.0000 -0.0000 -0.0000 -0.0001 -0.0046  1.0047
 SCF Error: norm([F,P])=      0.000000048706, max([F,P])=      0.000000022971
 orbitals (Q,E):
 ---------------
 S :1...3            ( 2.00   -18.9266)  ( 2.00    -0.8743)  ( 0.00     0.7933)
 P :1...2            ( 4.00    -0.3318)  ( 0.00     0.3467)
 D :1...1            ( 0.00     1.0705)
 F :1...1            ( 0.00     3.3595)

 CYCLE   12
  SDIIS (wt  1.000):  0.0000  0.0003  0.0049  0.9947
  DIIS coefficients:  0.0000  0.0003  0.0049  0.9947
 SCF Error: norm([F,P])=      0.000000002392, max([F,P])=      0.000000001168
 orbitals (Q,E):
 ---------------
 S :1...3            ( 2.00   -18.9266)  ( 2.00    -0.8743)  ( 0.00     0.7933)
 P :1...2            ( 4.00    -0.3318)  ( 0.00     0.3467)
 D :1...1            ( 0.00     1.0705)
 F :1...1            ( 0.00     3.3595)

 SCF CONVERGED

 CYCLE   13
1
 ***************************************************************************************************



                                                *******************
                                                *  R E S U L T S  *
                                                *******************
  
 *** Setting up for NEW gradients in Focky
 *** Using FIT density in Focky

 Orbital Energies, per Irrep and Spin:
 ======================================
                        Occup              E (au)              E (eV)       Diff (eV) with prev. cycle
                        -----      --------------------        ------       --------------------------
 S
               1        2.000     -0.18926622910087E+02      -515.020               5.76E-10
               2        2.000     -0.87432318445324E+00       -23.792               3.90E-10
               3        0.000      0.79334608634537E+00        21.588
               4        0.000      0.13459763470969E+02       366.259
               5        0.000      0.12310776301329E+03      3349.933
 P
               1        4.000     -0.33177161342558E+00        -9.028               3.71E-10
               2        0.000      0.34673871865826E+00         9.435
               3        0.000      0.38246989192600E+01       104.075
 D
               1        0.000      0.10704889823391E+01        29.129
 F
               1        0.000      0.33594552407685E+01        91.415


 Partially Occupied:
               1 P                -0.33177161342558E+00
  
 HOMO :        2 S                -0.87432318445324E+00
 LUMO :        2 P                 0.34673871865826E+00
  


 Orbital Energies, all Irreps
 ========================================

 Irrep        no.  (spin)   Occup              E (au)                E (eV)
 ---------------------------------------------------------------------------
 S             1             2.00       -0.18926622910087E+02      -515.0196
 S             2             2.00       -0.87432318445324E+00       -23.7915
 P             1             4.00       -0.33177161342558E+00        -9.0280
 P             2             0.00        0.34673871865826E+00         9.4352
 S             3             0.00        0.79334608634537E+00        21.5880
 D             1             0.00        0.10704889823391E+01        29.1295
 F             1             0.00        0.33594552407685E+01        91.4154
 P             3             0.00        0.38246989192600E+01       104.0754
 S             4             0.00        0.13459763470969E+02       366.2588
 S             5             0.00        0.12310776301329E+03      3349.9327


 All Electron Calculation, thus no Orbital Energies of the Core Orbitals are calculated



 =======================================
 M U L L I K E N   P O P U L A T I O N S
 =======================================
  
 The survey below gives for each atom:
 a) the total charge (Z minus electrons)
 b) the net spin polarization (nr of electrons spin-A minus spin-B)
 c) for each spin the atomic electron valence density (integrated) per L-value.

 Atom              Charge    Spin density          S         P         D         F
 ----              ------    ------------       ------    ------    ------    ------
 1 O              -0.0000                       4.0000    4.0000    0.0000    0.0000

 Populations of individual BAS functions
 ----------------------------------------
 1 O            0.6447  1.3214  0.0008  1.1425  0.8905  0.2537  0.2537  0.2537  0.7364  0.7364
                0.7364  0.3432  0.3432  0.3432  0.0000  0.0000  0.0000  0.0000  0.0000  0.0000
                0.0000  0.0000  0.0000  0.0000  0.0000  0.0000  0.0000  0.0000  0.0000  0.0000

 Gross Charges per Atom (Z minus electrons)
 ==========================================
            -0.0000
 Net Total: -0.00000000



 =======================================================================
 Electrostatic potential at the Nuclei due to electrons and other nuclei
 =======================================================================
  
         Atom                  Potential
         ----                  ---------
     1)   O                  22.23872615
 
 
 ========================
 No memory problems found
 ========================
 
 Maximum number of active allocate calls:         447
 
 *******************************************************************************

                             A D F   E X I T
 NORMAL TERMINATION



 =================
 Timing Statistics
 =================
  
 Total Used :                     CPU=        0.78      System=        0.04     Elapsed=        0.83

 Calls  Section                     ( Mean, Percentage )
 ---------------------------------------------------------------------------------------------------
     3  ><      ................      0.00    0.00             0.00    2.33             0.00    0.09
     1  INIT    ................      0.02    2.04             0.02   39.53             0.03    4.20
     1  GEOMET  ................      0.01    0.77             0.01   16.28             0.01    1.57
     1  INPUTA  ................      0.00    0.38             0.00    0.00             0.00    0.37
     1  MAINSY  ................      0.01    0.89             0.00    2.33             0.01    0.96
     1  SYMFIT  ................      0.00    0.13             0.00    0.00             0.00    0.15
     1  CORORT  ................      0.00    0.00             0.00    0.00             0.00    0.05
     1  SYMORB  ................      0.00    0.13             0.00    2.33             0.00    0.19
     1  CLSMAT  ................      0.01    1.15             0.00    0.00             0.01    1.10
     1  ORTHON  ................      0.00    0.26             0.00    2.33             0.00    0.35
     1  GENPT   ................      0.02    2.68             0.00    0.00             0.02    2.54
     1  PTBAS   ................      0.01    0.77             0.00    0.00             0.01    0.75
    13  FOCKY   ................      0.05   75.38             0.00   16.28             0.05   72.16
    13  FOCKTR  ................      0.00    2.30             0.00    2.33             0.00    2.20
    13  SDIIS   ................      0.00    4.21             0.00    4.65             0.00    4.25
     1  COREPS  ................      0.04    4.59             0.00    0.00             0.04    4.37
     1  POPAN   ................      0.01    1.15             0.00    0.00             0.01    1.10
     1  DEBYE   ................      0.00    0.13             0.00    0.00             0.00    0.11
     1  EXIT PROCEDURE .........      0.02    3.06             0.00   11.63             0.03    3.49


 Currently Open Files (EXIT00)
 ====================

 Unit    Access Format  Status   Type       Ident (file)
 -------------------------------------------------------
   3      SEQ    FORM   TRANSP  NORMAL      LOGFILE
                                          ( logfile )


 Buffered I/O statistics
 =======================
 Memory available:                     67108864
 Number of records fitting in memory:     16131
 Input :   0.1% of                        27833  *4k bytes
 Output:  13.5% of                         1390  *4k bytes
 Records from serial files evicted:           0
                    others evicted:           0
 Hash table lookups:      71898 with          0 conflicts (  0.00%)

 ***************************************************************************************************
 (LOGFILE)
 <May15-2019> <14:10:00>  ADF 2017  RunTime: May15-2019 14:10:00  Nodes: 1  Procs: 1
 <May15-2019> <14:10:00>  Chromium (TZ2P)
 <May15-2019> <14:10:00>  RunType   : CREATE
 <May15-2019> <14:10:00>  Net Charge: 0 (Nuclei minus Electrons)
 <May15-2019> <14:10:00>  Symmetry  : ATOM
  Coordinates
    Atom         X           Y           Z   (Angstrom)
    1.Cr        0.000000    0.000000    0.000000
 <May15-2019> <14:10:00>  >>>> CORORT
 <May15-2019> <14:10:00>  >>>> CLSMAT
 <May15-2019> <14:10:00>  >>>> ORTHON
 <May15-2019> <14:10:00>  >>>> GENPT
 <May15-2019> <14:10:00>  Block Length= 102
 <May15-2019> <14:10:00>  >>>> PTBAS
 <May15-2019> <14:10:00>  >>>> CYCLE
 <May15-2019> <14:10:00>              |Error|         MaxErr       Wt(A-DIIS)
 <May15-2019> <14:10:00>      1      0.00000000      0.00000000
 <May15-2019> <14:10:00>      2     64.93296180     16.41416528    100.0
 <May15-2019> <14:10:00>      3     25.10908047      7.32802954    100.0
 <May15-2019> <14:10:00>      4      5.27735182      1.32405423    100.0
 <May15-2019> <14:10:00>      5      7.48168564      2.33614726    100.0
 <May15-2019> <14:10:01>      6      1.08473159      0.35535569    100.0
 <May15-2019> <14:10:01>      7      1.65175182      0.49937622    100.0
 <May15-2019> <14:10:01>      8      0.38087323      0.12274240    100.0
 <May15-2019> <14:10:01>      9      0.37537788      0.10467818    100.0
 <May15-2019> <14:10:01>     10      0.04042519      0.01448365     13.6
 <May15-2019> <14:10:01>     11      0.00775954      0.00235930      1.4
 <May15-2019> <14:10:01>     12      0.00019377      0.00005267      0.0
 <May15-2019> <14:10:01>     13      0.00000071      0.00000019      0.0
 <May15-2019> <14:10:01>     14      0.00000001      0.00000000      0.0
 <May15-2019> <14:10:01>  SCF converged
 <May15-2019> <14:10:01>     15      0.00000000      0.00000000      0.0
 <May15-2019> <14:10:01>  >>>> POPAN
 <May15-2019> <14:10:01>  >>>> DEBYE
 <May15-2019> <14:10:01>  NORMAL TERMINATION
 <May15-2019> <14:10:01>  END
 <May15-2019> <14:10:01>  ADF 2017  RunTime: May15-2019 14:10:01  Nodes: 1  Procs: 1
 <May15-2019> <14:10:01>  Oxygen (TZ2P)
 <May15-2019> <14:10:01>  RunType   : CREATE
 <May15-2019> <14:10:01>  Net Charge: 0 (Nuclei minus Electrons)
 <May15-2019> <14:10:01>  Symmetry  : ATOM
  Coordinates
    Atom         X           Y           Z   (Angstrom)
    1.O         0.000000    0.000000    0.000000
 <May15-2019> <14:10:01>  >>>> CORORT
 <May15-2019> <14:10:01>  >>>> CLSMAT
 <May15-2019> <14:10:01>  >>>> ORTHON
 <May15-2019> <14:10:01>  >>>> GENPT
 <May15-2019> <14:10:01>  Block Length=  68
 <May15-2019> <14:10:01>  >>>> PTBAS
 <May15-2019> <14:10:01>  >>>> CYCLE
 <May15-2019> <14:10:02>              |Error|         MaxErr       Wt(A-DIIS)
 <May15-2019> <14:10:02>      1      0.00000000      0.00000000
 <May15-2019> <14:10:02>      2      8.76574541      5.51803131    100.0
 <May15-2019> <14:10:02>      3      3.58549945      2.49941011    100.0
 <May15-2019> <14:10:02>      4      1.14791911      0.58301962    100.0
 <May15-2019> <14:10:02>      5      1.51958547      0.84054201    100.0
 <May15-2019> <14:10:02>      6      0.17882893      0.10424203    100.0
 <May15-2019> <14:10:02>      7      0.20012529      0.11364913    100.0
 <May15-2019> <14:10:02>      8      0.01695178      0.00994720      9.0
 <May15-2019> <14:10:02>      9      0.00174843      0.00098437      0.0
 <May15-2019> <14:10:02>     10      0.00000143      0.00000071      0.0
 <May15-2019> <14:10:02>     11      0.00000005      0.00000002      0.0
 <May15-2019> <14:10:02>     12      0.00000000      0.00000000      0.0
 <May15-2019> <14:10:02>  SCF converged
 <May15-2019> <14:10:02>     13      0.00000000      0.00000000      0.0
 <May15-2019> <14:10:02>  >>>> POPAN
 <May15-2019> <14:10:02>  >>>> DEBYE
 <May15-2019> <14:10:02>  NORMAL TERMINATION
 <May15-2019> <14:10:02>  END

Create C   file=TZ2P-C
XC
  GGA blyp
End
End Input

 *******************************************************************************
 *                                                                             *
 *  -------------------------------------                                      *
 *   Amsterdam Density Functional  (ADF)         2017                          *
 *  -------------------------------------                                      *
 *                                               r58813 2017-04-12             *
 *                                                                             *
 *                                                                             *
 *                              =================                              *
 *                              |               |                              *
 *                              |     A D F     |                              *
 *                              |               |                              *
 *                              =================                              *
 *                                                                             *
 *                                                                             *
 *   Online information and documentation:  https://www.scm.com/support/       *
 *   E-mail:  support@scm.com   info@scm.com                                   *
 *                                                                             *
 *   Scientific publications using ADF results must be properly referenced     *
 *   See the User Manuals (or the web site) for recommended citations          *
 *   The terms and conditions of the End User License Agreement apply to       *
 *   the use of ADF, https://www.scm.com/license-terms/                        *
 *                                                                             *
 **********************  x86_64_linux_intel / intelmpi  ************************
 
 Licensed to: VU/FEW (+ SARA) / ALGEMEEN / Amsterdam / THE NETHERLANDS
 SCM User ID: u7668
  
 ADF 2017  RunTime: May15-2019 14:10:02  Nodes: 1  Procs: 1

 Temporary files are created in /local/datastore0/tcst25/190406/kid_0.jvwDDk

 Carbon (TZ2P)



 ===========================
 A T T A C H E D   F I L E S
 ===========================
  
 CREATE - Data File:    TZ2P-C
                        Carbon (TZ2P)



 ===============================
 M O D E L   P A R A M E T E R S
 ===============================
  
 DENSITY FUNCTIONAL POTENTIAL (scf)
    LDA:                               Exchange only                           == Not Default ==
    Gradient Corrections:              Becke88 LYP                             == Not Default ==

 SPIN  (restricted / unrestr.)
    Molecule:                          Restricted                               

 OTHER ASPECTS
    Relativistic Corrections:          ---                                      

    Nuclear Charge Density Model:      Point Charge Nuclei                      
    Core Treatment:                    Frozen Orbital(s)                        

    Hyperfine or Zeeman Interaction:   ---                                      



 =====================================
 S Y M M E T R Y ,   E L E C T R O N S
 =====================================
  
 Symmetry: ATOM

 Irreducible Representations, including subspecies
 -------------------------------------------------
 S
 P:x  P:y  P:z
 D:z2  D:x2-y2  D:xy  D:xz  D:yz
 F:z3  F:z  F:xyz  F:z2x  F:z2y  F:x  F:y


 Configuration of Valence Electrons
 ==================================

          Occupation Numbers
          -------------------------------------------------
 S        2*2
 P        2
 D        0
 F        0
          -------------------------------------------------

 Total:   6

 Net Charge: 0 (Nuclei minus Electrons)

 Preset values for MO occupations will be applied through SCF cycle no. 1000000
 Thereafter, the program will assign electrons to MOs that are spatially
 similar to the occupied MOs in a "reference" cycle ("KeepOrbitals").
 The reference cycle is always the PREVIOUS cycle: it will evolve with
 the SCF procedure.



 ================================
 (Slater-type)  F U N C T I O N S  ***  (Basis and Fit)  ***
 ================================
  

 Atom Type    1  (C)
 ==============

 Valence Basis Sets:  10
 -----------------------
   1 S    7.680000
   1 S    5.000000
   2 S    1.280000
   2 S    2.100000
   2 S    4.600000
   2 P    0.820000
   2 P    1.480000
   2 P    2.940000
   3 D    2.200000
   4 F    3.300000


 BAS: List of all Elementary Cartesian Basis Functions
 =====================================================

 The numbering in the list below (to the right of the function characteristics) is referred
 to in print-outs of MO eigenvectors and Mulliken populations in the BAS representation
 (as contrasted to the SFO representation).

 Notes:
 1. The functions are characterized by a polynomial prefactor (powers of x,y,z and r) and
    an exponential decay factor alpha.
 2. Since the basis sets are specific for an atom TYPE, the individual functions occur on
    all atoms of that type.
 3. The word 'Core' in the left margin signals that it is a Core Function (CF) : not a
    degree of freedom in the valence set, but only used to ensure orthogonalization of
    the other valence basis functions on the frozen Core Orbitals.


 (power of) X  Y  Z  R     Alpha  on Atom
            ==========     =====     ==========

 C                                    1
                                  ---------------------------------------------------------------------------
            0  0  0  0     7.680      1
            0  0  0  0     5.000      2
            0  0  0  1     1.280      3
            0  0  0  1     2.100      4
            0  0  0  1     4.600      5
            1  0  0  0     0.820      6
            0  1  0  0     0.820      7
            0  0  1  0     0.820      8
            1  0  0  0     1.480      9
            0  1  0  0     1.480     10
            0  0  1  0     1.480     11
            1  0  0  0     2.940     12
            0  1  0  0     2.940     13
            0  0  1  0     2.940     14
            2  0  0  0     2.200     15
            1  1  0  0     2.200     16
            1  0  1  0     2.200     17
            0  2  0  0     2.200     18
            0  1  1  0     2.200     19
            0  0  2  0     2.200     20
            3  0  0  0     3.300     21
            2  1  0  0     3.300     22
            2  0  1  0     3.300     23
            1  2  0  0     3.300     24
            1  1  1  0     3.300     25
            1  0  2  0     3.300     26
            0  3  0  0     3.300     27
            0  2  1  0     3.300     28
            0  1  2  0     3.300     29
            0  0  3  0     3.300     30

 Total number of charge fitting functions (nprimf)        84
 Total number of Cartesian basis functions (naos)         30
 Total number of Cartesian core functions  (ncos)          0



 BAS: List of all Elementary Cartesian Basis Functions
 =====================================================

 The numbering in the list below (to the right of the function characteristics) is referred
 to in print-outs of MO eigenvectors and Mulliken populations in the BAS representation
 (as contrasted to the SFO representation).

 Notes:
 1. The functions are characterized by a polynomial prefactor (powers of x,y,z and r) and
    an exponential decay factor alpha.
 2. Since the basis sets are specific for an atom TYPE, the individual functions occur on
    all atoms of that type.
 3. The word 'Core' in the left margin signals that it is a Core Function (CF) : not a
    degree of freedom in the valence set, but only used to ensure orthogonalization of
    the other valence basis functions on the frozen Core Orbitals.


 (power of) X  Y  Z  R     Alpha  on Atom
            ==========     =====     ==========

 C                                    1
                                  ---------------------------------------------------------------------------
            0  0  0  0     7.680      1
            0  0  0  0     5.000      2
            0  0  0  1     1.280      3
            0  0  0  1     2.100      4
            0  0  0  1     4.600      5
            1  0  0  0     0.820      6
            0  1  0  0     0.820      7
            0  0  1  0     0.820      8
            1  0  0  0     1.480      9
            0  1  0  0     1.480     10
            0  0  1  0     1.480     11
            1  0  0  0     2.940     12
            0  1  0  0     2.940     13
            0  0  1  0     2.940     14
            2  0  0  0     2.200     15
            1  1  0  0     2.200     16
            1  0  1  0     2.200     17
            0  2  0  0     2.200     18
            0  1  1  0     2.200     19
            0  0  2  0     2.200     20
            3  0  0  0     3.300     21
            2  1  0  0     3.300     22
            2  0  1  0     3.300     23
            1  2  0  0     3.300     24
            1  1  1  0     3.300     25
            1  0  2  0     3.300     26
            0  3  0  0     3.300     27
            0  2  1  0     3.300     28
            0  1  2  0     3.300     29
            0  0  3  0     3.300     30
1
 ***************************************************************************************************



                                              ***********************
                                              *  T E C H N I C A L  *
                                              ***********************
  



 =============================================================
 P A R A L L E L I Z A T I O N  and  V E C T O R I Z A T I O N
 =============================================================
  
 Nr of parallel processes:                                1
 Maximum vector length in NumInt loops:                 128

 IO buffersize (Mb):                                     64.000000



 =====================
 S C F   U P D A T E S
 =====================
  
 Max. nr. of cycles:                               300
 Convergence criterion:                              0.0000000100
   secondary criterion:                              0.0000000100

 Mix parameter (when DIIS does not apply):           0.2000000000
 Special mix parameter for the first cycle:          1.0000000000
 Mixed ADIIS+DIIS will be used
    Max number of expansion vectors:                10
    Pure ADIIS when Max([F,P]) is above              0.1000000000
    Pure DIIS when Max([F,P]) is below               0.0010000000
 Automatic ElectronSmearing (in case of problematic SCF convergence) disabled



 =================
 P R E C I S I O N  ***  (General: NumInt, NeglectFunctionTails, ...)  ***
 =================
  

 NumInt:           Target precision:                12.0000000000
 -------           Initial precision:               10.0000000000
                   Min. precision (optimization):   10.0000000000

 Neglect Functions:          Basis functions:        0.1000000000E-13
 ------------------          Fit functions:          0.1000000000E-13



 ===========================
 L I N E A R   S C A L I N G
 ===========================
  

 Cut-off radii density fit:                        0.1000000000E-97
 Overlap cut-off criterion AO matrix elements:     0.1000000000E-97
 Cut-offs for Coulomb potential and fitted density:0.1000000000E-97
 Cut-off criterion for Coulomb multipole terms:    0.1000000000E-97
 Progressive Convergence parameter:                 0.000000000    
1
 ***************************************************************************************************



                                            ***************************
                                            *  C O M P U T A T I O N  *
                                            ***************************
  

 Number of elements of the density matrix on this node (used, total):       465       465



 ===========================================
 Numerical Integration : Fuzzy Cells (Becke)
 ===========================================
  
 Becke grid quality: VERYGOOD       
  
 Lebedev angular grid order:             min:  13 max:  41
 Nr. of radial points:                   min:  72 max:  72

 Total nr. of points:         72
 Nr. of blocks:                1
 Block length:                72
 Nr. of dummy points:          0


 Test of Precision of the Numerical Integration Grid
 ===================================================

 Integral of the Total Core Density:                   0.00000000000000



 ========================
 Density Fitting (zlmFit)
 ========================
  
 ZlmFit Fit Quality: VERYGOOD       
  
 Max L-expansion:                        min:   0 max:   0
 Nr. of radial interpolation points:     min: 160 max: 160



 =====
 S C F  ***  ScaSCF  ***
 =====
  

 CYCLE    1
 SCF Error: norm([F,P])=      0.000000000000, max([F,P])=      0.000000000000
 orbitals (Q,E):
 ---------------
 S :1...5            ( 2.00   -17.9995)  ( 2.00    -4.4761)  ( 0.00    -1.9482)  ( 0.00     0.6812)
                     ( 0.00    42.8100)
 P :1...3            ( 2.00    -4.4994)  ( 0.00    -1.9807)  ( 0.00    -1.0849)
 D :1...1            ( 0.00    -1.9800)
 F :1...1            ( 0.00     0.4950)

 CYCLE    2
  SDIIS (wt  0.000):  1.0000 -0.0000
 A-DIIS (wt  1.000):  0.0000  1.0000
  DIIS coefficients:  0.0000  1.0000
 SCF Error: norm([F,P])=      4.480319744476, max([F,P])=      3.328841325837
 orbitals (Q,E):
 ---------------
 S :1...3            ( 2.00    -7.7917)  ( 2.00    -0.0500)  ( 0.00     0.8490)
 P :1...2            ( 2.00     0.1033)  ( 0.00     0.5895)
 D :1...1            ( 0.00     1.7552)
 F :1...1            ( 0.00     4.6366)

 CYCLE    3
  SDIIS (wt  0.000):  0.2185  0.7815
 A-DIIS (wt  1.000):  0.1233  0.8767
  DIIS coefficients:  0.1233  0.8767
 SCF Error: norm([F,P])=      1.636788894664, max([F,P])=      1.315295345514
 orbitals (Q,E):
 ---------------
 S :1...3            ( 2.00   -10.9862)  ( 2.00    -0.9428)  ( 0.00     0.1231)
 P :1...2            ( 2.00    -0.6386)  ( 0.00     0.0246)
 D :1...1            ( 0.00     0.8395)
 F :1...1            ( 0.00     3.5625)

 CYCLE    4
  SDIIS (wt  0.000): -0.0629  0.2184  0.8445
[...]
     ----                                                       ------     -----    ------     -----

     298.15   Entropy (cal/mole-K):                             42.066    25.179    47.877   115.121
              Internal Energy (Kcal/mole):                       0.889     0.889    37.577    39.354
              Constant Volume Heat Capacity (cal/mole-K):        2.981     2.981    41.089    47.051

              Summary of energy terms
                                                   hartree              eV         kcal/mol           kJ/mol
                                      --------------------     -----------       ----------      -----------
              Bond Energy:              -3.667495383724344        -99.7976         -2301.39         -9629.01
              Internal Energy:           0.062714645395711          1.7066            39.35           164.66
              pV/n = RT:                 0.000944186013486          0.0257             0.59             2.48
              Enthalpy H:               -3.603836552315147        -98.0654         -2261.44         -9461.87
              -T*S:                     -0.054697919261864         -1.4884           -34.32          -143.61
              Gibbs free energy:        -3.658534471577011        -99.5538         -2295.77         -9605.48
 

 ***************************************************************************************************
 


====================================================================
*** DONE CALCULATING ANALYTICAL SECOND DERIVATIVES OF THE ENERGY ***
====================================================================

 
 
 ========================
 No memory problems found
 ========================
 
 Maximum number of active allocate calls:        3014
 
 *******************************************************************************

                             A D F   E X I T
 NORMAL TERMINATION



 =================
 Timing Statistics
 =================
  
 Total Used :                     CPU=      216.75      System=        0.78     Elapsed=      217.83

 Calls  Section                     ( Mean, Percentage )
 ---------------------------------------------------------------------------------------------------
     3  ><      ................      0.00    0.00             0.00    0.00             0.00    0.00
     1  INIT    ................      0.46    0.21             0.03    3.58             0.49    0.23
     1  GEOMET  ................      0.09    0.04             0.00    0.64             0.10    0.04
     1  FRAGM   ................      0.05    0.02             0.01    1.92             0.07    0.03
     1  INPUTA  ................      0.00    0.00             0.00    0.00             0.00    0.00
     1  ATDEN   ................      0.02    0.01             0.00    0.13             0.02    0.01
     3  MAINSY  ................      0.04    0.06             0.02    7.54             0.07    0.09
     3  SYMFIT  ................      0.01    0.01             0.00    0.00             0.01    0.01
     3  CORORT  ................      0.00    0.00             0.00    0.00             0.00    0.00
     3  SYMORB  ................      0.01    0.02             0.00    0.00             0.01    0.02
     3  CLSMAT  ................      0.03    0.04             0.00    0.38             0.03    0.04
     3  ORTHON  ................      0.02    0.03             0.00    0.00             0.02    0.03
     3  GENPT   ................      0.33    0.46             0.01    4.09             0.34    0.47
     3  PTBAS   ................      1.23    1.70             0.00    1.02             1.23    1.70
    26  FOCKY   ................      1.42   17.02             0.00   10.49             1.42   16.99
    26  FOCKTR  ................      0.01    0.06             0.00    0.26             0.01    0.07
    26  SDIIS   ................      0.00    0.05             0.00    0.77             0.00    0.05
     3  TOTEN   ................      3.13    4.33             0.01    5.24             3.14    4.33
     3  POPAN   ................      0.01    0.01             0.00    0.38             0.01    0.02
     3  DEBYE   ................      0.02    0.03             0.00    0.00             0.02    0.03
     3  INPUTE  ................      0.00    0.00             0.00    0.00             0.00    0.00
     3  SYMORE  ................      0.01    0.01             0.00    0.00             0.01    0.01
     5  ELNRGY  ................      2.44    5.63             0.00    2.43             2.45    5.62
     2  ENGRAD  ................      0.00    0.00             0.00    0.13             0.00    0.00
     1  COREPS  ................      0.84    0.39             0.00    0.13             0.85    0.39
     1  METS    ................      0.00    0.00             0.00    0.00             0.00    0.00
     1  CETS    ................      0.01    0.01             0.00    0.00             0.01    0.01
     1  POPUL   ................      0.03    0.01             0.00    0.64             0.07    0.03
     1  ENHESS  ................    151.38   69.84             0.47   59.85           151.96   69.76
     1  EXIT PROCEDURE .........      0.05    0.02             0.00    0.38             0.05    0.02


 Currently Open Files (EXIT00)
 ====================

 Unit    Access Format  Status   Type       Ident (file)
 -------------------------------------------------------
   3      SEQ    FORM   TRANSP  NORMAL      LOGFILE
                                          ( logfile )


 Buffered I/O statistics
 =======================
 Memory available:                     67108864
 Number of records fitting in memory:     16131
 Input :   0.1% of                       884178  *4k bytes
 Output:   6.2% of                        52497  *4k bytes
 Records from serial files evicted:           0
                    others evicted:           0
 Hash table lookups:    2423215 with        804 conflicts (  0.03%)

 ***************************************************************************************************
 (LOGFILE)
 <May15-2019> <14:10:00>  ADF 2017  RunTime: May15-2019 14:10:00  Nodes: 1  Procs: 1
 <May15-2019> <14:10:00>  Chromium (TZ2P)
 <May15-2019> <14:10:00>  RunType   : CREATE
 <May15-2019> <14:10:00>  Net Charge: 0 (Nuclei minus Electrons)
 <May15-2019> <14:10:00>  Symmetry  : ATOM
  Coordinates
    Atom         X           Y           Z   (Angstrom)
    1.Cr        0.000000    0.000000    0.000000
 <May15-2019> <14:10:00>  >>>> CORORT
 <May15-2019> <14:10:00>  >>>> CLSMAT
 <May15-2019> <14:10:00>  >>>> ORTHON
 <May15-2019> <14:10:00>  >>>> GENPT
 <May15-2019> <14:10:00>  Block Length= 102
 <May15-2019> <14:10:00>  >>>> PTBAS
 <May15-2019> <14:10:00>  >>>> CYCLE
 <May15-2019> <14:10:00>              |Error|         MaxErr       Wt(A-DIIS)
 <May15-2019> <14:10:00>      1      0.00000000      0.00000000
 <May15-2019> <14:10:00>      2     64.93296180     16.41416528    100.0
 <May15-2019> <14:10:00>      3     25.10908047      7.32802954    100.0
 <May15-2019> <14:10:00>      4      5.27735182      1.32405423    100.0
 <May15-2019> <14:10:00>      5      7.48168564      2.33614726    100.0
 <May15-2019> <14:10:01>      6      1.08473159      0.35535569    100.0
 <May15-2019> <14:10:01>      7      1.65175182      0.49937622    100.0
 <May15-2019> <14:10:01>      8      0.38087323      0.12274240    100.0
 <May15-2019> <14:10:01>      9      0.37537788      0.10467818    100.0
 <May15-2019> <14:10:01>     10      0.04042519      0.01448365     13.6
 <May15-2019> <14:10:01>     11      0.00775954      0.00235930      1.4
 <May15-2019> <14:10:01>     12      0.00019377      0.00005267      0.0
 <May15-2019> <14:10:01>     13      0.00000071      0.00000019      0.0
 <May15-2019> <14:10:01>     14      0.00000001      0.00000000      0.0
 <May15-2019> <14:10:01>  SCF converged
 <May15-2019> <14:10:01>     15      0.00000000      0.00000000      0.0
 <May15-2019> <14:10:01>  >>>> POPAN
 <May15-2019> <14:10:01>  >>>> DEBYE
 <May15-2019> <14:10:01>  NORMAL TERMINATION
 <May15-2019> <14:10:01>  END
 <May15-2019> <14:10:01>  ADF 2017  RunTime: May15-2019 14:10:01  Nodes: 1  Procs: 1
 <May15-2019> <14:10:01>  Oxygen (TZ2P)
 <May15-2019> <14:10:01>  RunType   : CREATE
 <May15-2019> <14:10:01>  Net Charge: 0 (Nuclei minus Electrons)
 <May15-2019> <14:10:01>  Symmetry  : ATOM
  Coordinates
    Atom         X           Y           Z   (Angstrom)
    1.O         0.000000    0.000000    0.000000
 <May15-2019> <14:10:01>  >>>> CORORT
 <May15-2019> <14:10:01>  >>>> CLSMAT
 <May15-2019> <14:10:01>  >>>> ORTHON
 <May15-2019> <14:10:01>  >>>> GENPT
 <May15-2019> <14:10:01>  Block Length=  68
 <May15-2019> <14:10:01>  >>>> PTBAS
 <May15-2019> <14:10:01>  >>>> CYCLE
 <May15-2019> <14:10:02>              |Error|         MaxErr       Wt(A-DIIS)
 <May15-2019> <14:10:02>      1      0.00000000      0.00000000
 <May15-2019> <14:10:02>      2      8.76574541      5.51803131    100.0
 <May15-2019> <14:10:02>      3      3.58549945      2.49941011    100.0
 <May15-2019> <14:10:02>      4      1.14791911      0.58301962    100.0
 <May15-2019> <14:10:02>      5      1.51958547      0.84054201    100.0
 <May15-2019> <14:10:02>      6      0.17882893      0.10424203    100.0
 <May15-2019> <14:10:02>      7      0.20012529      0.11364913    100.0
 <May15-2019> <14:10:02>      8      0.01695178      0.00994720      9.0
 <May15-2019> <14:10:02>      9      0.00174843      0.00098437      0.0
 <May15-2019> <14:10:02>     10      0.00000143      0.00000071      0.0
 <May15-2019> <14:10:02>     11      0.00000005      0.00000002      0.0
 <May15-2019> <14:10:02>     12      0.00000000      0.00000000      0.0
 <May15-2019> <14:10:02>  SCF converged
 <May15-2019> <14:10:02>     13      0.00000000      0.00000000      0.0
 <May15-2019> <14:10:02>  >>>> POPAN
 <May15-2019> <14:10:02>  >>>> DEBYE
 <May15-2019> <14:10:02>  NORMAL TERMINATION
 <May15-2019> <14:10:02>  END
 <May15-2019> <14:10:02>  ADF 2017  RunTime: May15-2019 14:10:02  Nodes: 1  Procs: 1
 <May15-2019> <14:10:02>  Carbon (TZ2P)
 <May15-2019> <14:10:02>  RunType   : CREATE
 <May15-2019> <14:10:02>  Net Charge: 0 (Nuclei minus Electrons)
 <May15-2019> <14:10:02>  Symmetry  : ATOM
  Coordinates
    Atom         X           Y           Z   (Angstrom)
    1.C         0.000000    0.000000    0.000000
 <May15-2019> <14:10:02>  >>>> CORORT
 <May15-2019> <14:10:02>  >>>> CLSMAT
 <May15-2019> <14:10:02>  >>>> ORTHON
 <May15-2019> <14:10:02>  >>>> GENPT
 <May15-2019> <14:10:02>  Block Length=  72
 <May15-2019> <14:10:02>  >>>> PTBAS
 <May15-2019> <14:10:02>  >>>> CYCLE
 <May15-2019> <14:10:02>              |Error|         MaxErr       Wt(A-DIIS)
 <May15-2019> <14:10:02>      1      0.00000000      0.00000000
 <May15-2019> <14:10:02>      2      4.48031974      3.32884133    100.0
 <May15-2019> <14:10:03>      3      1.63678889      1.31529535    100.0
 <May15-2019> <14:10:03>      4      0.72226765      0.58081551    100.0
 <May15-2019> <14:10:03>      5      0.41279476      0.32864204    100.0
 <May15-2019> <14:10:03>      6      0.12664316      0.09684749     96.8
 <May15-2019> <14:10:03>      7      0.11556823      0.09012376     90.0
 <May15-2019> <14:10:03>      8      0.00662928      0.00514089      4.2
 <May15-2019> <14:10:03>      9      0.00021574      0.00016342      0.0
 <May15-2019> <14:10:03>     10      0.00000195      0.00000132      0.0
 <May15-2019> <14:10:03>     11      0.00000002      0.00000002      0.0
 <May15-2019> <14:10:03>     12      0.00000000      0.00000000      0.0
 <May15-2019> <14:10:03>  SCF converged
 <May15-2019> <14:10:03>     13      0.00000000      0.00000000      0.0
 <May15-2019> <14:10:03>  >>>> POPAN
 <May15-2019> <14:10:03>  >>>> DEBYE
 <May15-2019> <14:10:03>  NORMAL TERMINATION
 <May15-2019> <14:10:03>  END
 <May15-2019> <14:10:03>  ADF 2017  RunTime: May15-2019 14:10:03  Nodes: 1  Procs: 12
 <May15-2019> <14:10:04>  *** (NO TITLE) ***
 <May15-2019> <14:10:04>  RunType   : GEOMETRY OPTIMIZATION
 <May15-2019> <14:10:04>  Net Charge: 0 (Nuclei minus Electrons)
 <May15-2019> <14:10:04>  Symmetry  : O(H)
 <May15-2019> <14:10:04>  >>>> FRAGM
  Coordinates in Geometry Cycle 1
    Atom         X           Y           Z   (Angstrom)
    1.Cr        0.000000    0.000000    0.000000
    2.C         0.000000    1.938830    0.000000
    3.O         0.000000    3.092790    0.000000
    4.C         0.000000    0.000000    1.938830
    5.O         0.000000    0.000000    3.092790
    6.C         0.000000   -1.938830    0.000000
    7.O         0.000000   -3.092790    0.000000
    8.C         0.000000    0.000000   -1.938830
    9.O         0.000000    0.000000   -3.092790
   10.C         1.938830    0.000000    0.000000
   11.O         3.092790    0.000000    0.000000
   12.C        -1.938830    0.000000    0.000000
   13.O        -3.092790    0.000000    0.000000
 <May15-2019> <14:10:04>  >>>> CORORT
 <May15-2019> <14:10:04>  >>>> CLSMAT
 <May15-2019> <14:10:04>  >>>> ORTHON
 <May15-2019> <14:10:04>  >>>> GENPT
 <May15-2019> <14:10:04>  Block Length= 127
 <May15-2019> <14:10:04>  >>>> PTBAS
 <May15-2019> <14:10:06>  >>>> CYCLE
 <May15-2019> <14:10:07>              |Error|         MaxErr       Wt(A-DIIS)
 <May15-2019> <14:10:07>      1      8.47722623      1.74291913
 <May15-2019> <14:10:09>      2      2.54601648      0.44748373    100.0
 <May15-2019> <14:10:10>      3      2.64333622      0.61505150    100.0
 <May15-2019> <14:10:12>      4      1.54390881      0.26060834    100.0
 <May15-2019> <14:10:13>      5      0.73011819      0.10513911    100.0
 <May15-2019> <14:10:14>      6      0.78431271      0.12069698    100.0
 <May15-2019> <14:10:16>      7      1.44813596      0.29293958    100.0
 <May15-2019> <14:10:17>      8      0.15761137      0.03427643     33.6
 <May15-2019> <14:10:19>      9      0.48157520      0.10662124    100.0
 <May15-2019> <14:10:20>     10      0.15265959      0.03356831     32.9
 <May15-2019> <14:10:21>     11      0.00239155      0.00037127      0.0
 <May15-2019> <14:10:23>     12      0.00085473      0.00017920      0.0
 <May15-2019> <14:10:24>     13      0.00002475      0.00000537      0.0
 <May15-2019> <14:10:26>     14      0.00001068      0.00000235      0.0
 <May15-2019> <14:10:27>     15      0.00000102      0.00000022      0.0
 <May15-2019> <14:10:27>  SCF converged
 <May15-2019> <14:10:28>     16      0.00000009      0.00000002      0.0
 <May15-2019> <14:10:29>  >>>> TOTEN
 <May15-2019> <14:10:31>  >>>> POPAN
 <May15-2019> <14:10:31>  >>>> DEBYE
 <May15-2019> <14:10:31>  >>>> ENGRAD
 <May15-2019> <14:10:37>  current energy                               -3.66749470 Hartree
 <May15-2019> <14:10:37>  energy change                      -3.66749470     0.00010000    F
 <May15-2019> <14:10:37>  constrained gradient max            0.00007106     0.00010000    T
 <May15-2019> <14:10:37>  constrained gradient rms            0.00002794     0.00006667    T
 <May15-2019> <14:10:37>  gradient max                        0.00007106
 <May15-2019> <14:10:37>  gradient rms                        0.00002794
 <May15-2019> <14:10:37>  cart. step max                      0.00004225     0.01000000    T
 <May15-2019> <14:10:37>  cart. step rms                      0.00002321     0.00666667    T
  Coordinates in Geometry Cycle 2
    Atom         X           Y           Z   (Angstrom)
    1.Cr        0.000000    0.000000    0.000000
    2.C         0.000000    1.938789    0.000000
    3.O         0.000000    3.092748    0.000000
    4.C         0.000000    0.000000    1.938789
    5.O         0.000000    0.000000    3.092748
    6.C         0.000000   -1.938789    0.000000
    7.O         0.000000   -3.092748    0.000000
    8.C         0.000000    0.000000   -1.938789
    9.O         0.000000    0.000000   -3.092748
   10.C         1.938789    0.000000    0.000000
   11.O         3.092748    0.000000    0.000000
   12.C        -1.938789    0.000000    0.000000
   13.O        -3.092748    0.000000    0.000000
 <May15-2019> <14:10:37>  >>>> CORORT
 <May15-2019> <14:10:37>  >>>> CLSMAT
 <May15-2019> <14:10:37>  >>>> ORTHON
 <May15-2019> <14:10:37>  >>>> GENPT
 <May15-2019> <14:10:38>  Block Length= 127
 <May15-2019> <14:10:38>  >>>> PTBAS
 <May15-2019> <14:10:39>  >>>> CYCLE
 <May15-2019> <14:10:41>              |Error|         MaxErr       Wt(A-DIIS)
 <May15-2019> <14:10:41>      1      0.00032678      0.00016432
 <May15-2019> <14:10:42>      2      0.00028461      0.00005233    100.0
 <May15-2019> <14:10:43>      3      0.00037668      0.00008136    100.0
 <May15-2019> <14:10:45>      4      0.00025218      0.00003943      0.0
 <May15-2019> <14:10:46>      5      0.00006743      0.00001476      0.0
 <May15-2019> <14:10:48>      6      0.00000167      0.00000027      0.0
 <May15-2019> <14:10:48>  SCF converged
 <May15-2019> <14:10:49>      7      0.00000160      0.00000035      0.0
 <May15-2019> <14:10:49>  >>>> TOTEN
 <May15-2019> <14:10:52>  >>>> POPAN
 <May15-2019> <14:10:52>  >>>> DEBYE
 <May15-2019> <14:10:52>  >>>> ENGRAD
 <May15-2019> <14:10:58>  current energy                               -3.66749538 Hartree
 <May15-2019> <14:10:58>  energy change                      -0.00000068     0.00010000    T
 <May15-2019> <14:10:58>  constrained gradient max            0.00005415     0.00010000    T
 <May15-2019> <14:10:58>  constrained gradient rms            0.00002124     0.00006667    T
 <May15-2019> <14:10:58>  gradient max                        0.00005415
 <May15-2019> <14:10:58>  gradient rms                        0.00002124
 <May15-2019> <14:10:58>  cart. step max                      0.00009807     0.01000000    T
 <May15-2019> <14:10:58>  cart. step rms                      0.00005411     0.00666667    T
 <May15-2019> <14:10:58>  GEOMETRY CONVERGED
 <May15-2019> <14:10:58>  Calculating Energy Terms for Final Geometry
  Coordinates in Geometry Cycle 2
    Atom         X           Y           Z   (Angstrom)
    1.Cr        0.000000    0.000000    0.000000
    2.C         0.000000    1.938789    0.000000
    3.O         0.000000    3.092748    0.000000
    4.C         0.000000    0.000000    1.938789
    5.O         0.000000    0.000000    3.092748
    6.C         0.000000   -1.938789    0.000000
    7.O         0.000000   -3.092748    0.000000
    8.C         0.000000    0.000000   -1.938789
    9.O         0.000000    0.000000   -3.092748
   10.C         1.938789    0.000000    0.000000
   11.O         3.092748    0.000000    0.000000
   12.C        -1.938789    0.000000    0.000000
   13.O        -3.092748    0.000000    0.000000
 <May15-2019> <14:10:58>  >>>> CORORT
 <May15-2019> <14:10:58>  >>>> CLSMAT
 <May15-2019> <14:10:58>  >>>> ORTHON
 <May15-2019> <14:10:58>  >>>> GENPT
 <May15-2019> <14:10:58>  Block Length= 127
 <May15-2019> <14:10:58>  >>>> PTBAS
 <May15-2019> <14:10:59>  >>>> CYCLE
 <May15-2019> <14:11:01>              |Error|         MaxErr       Wt(A-DIIS)
 <May15-2019> <14:11:01>      1      0.00000008      0.00000002
 <May15-2019> <14:11:03>      2      0.00000040      0.00000008    100.0
 <May15-2019> <14:11:03>  SCF converged
 <May15-2019> <14:11:04>      3      0.00000348      0.00000089    100.0
 <May15-2019> <14:11:05>  >>>> TOTEN
 <May15-2019> <14:11:09>  >>>> POPAN
 <May15-2019> <14:11:09>  >>>> DEBYE
 <May15-2019> <14:11:09>  >>>> AMETS
 <May15-2019> <14:11:09>  >>>> POPUL
 <May15-2019> <14:11:09>   Bond Energy          -3.66749538 a.u.
 <May15-2019> <14:11:09>   Bond Energy         -99.79762713 eV
 <May15-2019> <14:11:09>   Bond Energy       -2301.39       kcal/mol
 <May15-2019> <14:11:09>  >>>> ENHESS
 <May15-2019> <14:11:10>  === NUCLEUS:     1
 <May15-2019> <14:11:55>  === NUCLEUS:     2
 <May15-2019> <14:12:40>  === NUCLEUS:     8
 <May15-2019> <14:13:25>  >>>> CALC_HESS_PMAT
 <May15-2019> <14:13:36>  >>>> CALC_HESS_WMAT
 <May15-2019> <14:13:41>  NORMAL TERMINATION
 <May15-2019> <14:13:41>  END
