

 Parallel Execution: Process Information
 ==============================================================================
 Rank   Node Name                              NodeID   MyNodeRank  NodeMaster
    0   BAZIS-cn017                               0          0          0
    1   BAZIS-cn017                               0          1         -1
    2   BAZIS-cn017                               0          2         -1
    3   BAZIS-cn017                               0          3         -1
    4   BAZIS-cn017                               0          4         -1
    5   BAZIS-cn017                               0          5         -1
    6   BAZIS-cn017                               0          6         -1
    7   BAZIS-cn017                               0          7         -1
    8   BAZIS-cn017                               0          8         -1
    9   BAZIS-cn017                               0          9         -1
   10   BAZIS-cn017                               0         10         -1
   11   BAZIS-cn017                               0         11         -1
 ==============================================================================


May use up to 30771MB of RAM as shared memory on node 0


XC
    GGA BP86
END

SCF
    iterations 250
END

EPRINT
    SFO Eig Ovl
END

ZLMFIT
    Quality normal
END

BECKEGRID
    Quality good
End

SYMMETRY nosym
CHARGE -1

ATOMS
1.Br       -4.925107    3.099603   -0.045730 f=BrCl
2.Cl       -3.740832    0.901853    0.206108 f=BrCl
3.Cl       -6.109442    5.297463   -0.297580 f=Cl
END

Fragments
BrCl /home/tcst25/advanced_comp_chemistry/exercise2/halogen/ClBrCl/frag1_BrCl.t21
Cl /home/tcst25/advanced_comp_chemistry/exercise2/halogen/ClBrCl/frag2_Cl.t21
End
end input

 *******************************************************************************
 *                                                                             *
 *  -------------------------------------                                      *
 *   Amsterdam Density Functional  (ADF)         2017                          *
 *  -------------------------------------                                      *
 *                                               r58813 2017-04-12             *
 *                                                                             *
 *                                                                             *
 *                              =================                              *
 *                              |               |                              *
 *                              |     A D F     |                              *
 *                              |               |                              *
 *                              =================                              *
 *                                                                             *
 *                                                                             *
 *   Online information and documentation:  https://www.scm.com/support/       *
 *   E-mail:  support@scm.com   info@scm.com                                   *
 *                                                                             *
 *   Scientific publications using ADF results must be properly referenced     *
 *   See the User Manuals (or the web site) for recommended citations          *
 *   The terms and conditions of the End User License Agreement apply to       *
 *   the use of ADF, https://www.scm.com/license-terms/                        *
 *                                                                             *
 **********************  x86_64_linux_intel / intelmpi  ************************
 
 Licensed to: VU/FEW (+ SARA) / ALGEMEEN / Amsterdam / THE NETHERLANDS
 SCM User ID: u7668
  
 ADF 2017  RunTime: May09-2019 17:12:04  Nodes: 1  Procs: 12

 Temporary files are created in /local/datastore0/tcst25/189775/kid_0.aiSnNh


Communication costs MPI_COMM_WORLD:      3.849 usec per message,   0.0176 usec per 8-byte item
Communication costs for intra-node:      3.867 usec per message,   0.0173 usec per 8-byte item

 *** (NO TITLE) ***



 ===========================
 A T T A C H E D   F I L E S
 ===========================
  



 ===============================
 M O D E L   P A R A M E T E R S
 ===============================
  
 DENSITY FUNCTIONAL POTENTIAL (scf)
    LDA:                               VWN                                      
    Gradient Corrections:              Becke88 Perdew86                        == Not Default ==

 SPIN  (restricted / unrestr.)
    Molecule:                          Restricted                               
    Fragments:                         Restricted                               

 OTHER ASPECTS
    Relativistic Corrections:          ---                                      

    Nuclear Charge Density Model:      Point Charge Nuclei                      
    Core Treatment:                    Frozen Orbital(s)                        

    Hyperfine or Zeeman Interaction:   ---                                      


 Fragment File(s)
 ----------------
 BrCl:
         file : /home/tcst25/advanced_comp_chemistry/exercise2/halogen/ClBrCl/frag1_BrCl.t21
         jobid: ADF 2017  RunTime: May09-2019 16:32:23  Nodes: 1  Procs: 12
         title: *** (NO TITLE) ***
 Cl:
         file : /home/tcst25/advanced_comp_chemistry/exercise2/halogen/ClBrCl/frag2_Cl.t21
         jobid: ADF 2017  RunTime: May09-2019 16:32:21  Nodes: 1  Procs: 12
         title: *** (NO TITLE) ***



                                        ************************************
                                        *  R U N   T Y P E : SINGLE POINT  *
                                        ************************************
  



 ===============
 G E O M E T R Y  ***  Linear Molecule  ***
 ===============
  

 ATOMS
 =====                            X Y Z                    CHARGE
                                (Angstrom)             Nucl     +Core       At.Mass
                       --------------------------    ----------------       -------
    1  Br             -4.9251    3.0996   -0.0457     35.00     35.00       78.9183
    2  Cl             -3.7408    0.9019    0.2061     17.00     17.00       34.9689
    3  Cl             -6.1094    5.2975   -0.2976     17.00     17.00       34.9689


 FRAGMENTS
 =========                                     Atoms in this Fragment     Cart. coord.s (Angstrom)
                                               -------------------------------------------------------
    1  BrCl                                              1  Br          -4.9251    3.0996   -0.0457
                                                         2  Cl          -3.7408    0.9019    0.2061
    2  Cl                                                3  Cl          -6.1094    5.2975   -0.2976


 Interatomic Distance Matrix (Angstrom)
 --------------------------------------

   1)     0.000
   2)     2.509   0.000
   3)     2.509   5.019   0.000

 Min. Distance =    2.5092
 Max. Distance =    5.0185



 =====================================
 S Y M M E T R Y ,   E L E C T R O N S
 =====================================
  
 Symmetry: NOSYM

 Irreducible Representations, including subspecies
 -------------------------------------------------
 A


 Configuration of Valence Electrons
 ==================================
 ( determined in the SCF procedure )

 Total:   70

 Net Charge: -1 (Nuclei minus Electrons)

 Aufbau principle for MO occupations will be applied through SCF cycle no.     125
 Thereafter, the program will assign electrons to MOs that are spatially
 similar to the occupied MOs in a "reference" cycle ("KeepOrbitals").
 The reference cycle is always the PREVIOUS cycle: it will evolve with
 the SCF procedure.
1
 ***************************************************************************************************



                                      ****************************************
                                      *  B U I L D : (Fragments, Functions)  *
                                      ****************************************
  

 The individual fragments are copies of the corresponding 'Master' fragments defined on the fragment files.
 However, they may have been rotated (and translated) with respect to the Master. The local coordinate axes
 of each fragment (which define for instance the spatial orientation in the current molecule of a fragment
 P:x orbital) are not necessarily those of the molecule.
 The local frame (if different from the molecular one) is printed to enable an interpretation of the expan-
 sion of an MO in Fragment Orbitals.



                                             **************************
                                             *  Fragment Type : BrCl  *
                                             **************************
  

 Fragment no.    1   (in the list of all fragments)
 -----------------
 The local coordinate frame is identical to the molecular frame.

 Check Atomic Coordinates:

                  Master (on file)          After Computed Tranformation               As specified on Input
           ----------------------------     ----------------------------     ---------------------------------
     1)    -4.92511   3.09960  -0.04573     -4.92511   3.09960  -0.04573       1  -4.92511   3.09960  -0.04573
     2)    -3.74083   0.90185   0.20611     -3.74083   0.90185   0.20611       2  -3.74083   0.90185   0.20611



                                              ************************
                                              *  Fragment Type : Cl  *
                                              ************************
  

 Fragment no.    2   (in the list of all fragments)
 -----------------
 The local coordinate frame is identical to the molecular frame.

 Check Atomic Coordinates:

                  Master (on file)          After Computed Tranformation               As specified on Input
           ----------------------------     ----------------------------     ---------------------------------
     1)    -6.10944   5.29746  -0.29758     -6.10944   5.29746  -0.29758       3  -6.10944   5.29746  -0.29758



 =======
 S F O s  ***  (Symmetrized Fragment Orbitals)  ***
 =======
  
 SFOs are linear combinations of (valence) Fragment Orbitals (FOs), such that the SFOs transform as the
 irreducible representations of the (molecular) symmetry group. Each SFO is therefore characterized by
 an irrep of the molecule and by a few (or only one) generating FOs.
 The SFOs constitute a symmetry-adapted basis for the Fock matrix. The MO eigenvector coefficients in
 this basis provide a direct interpretation of the MOs in terms of Frontier Orbital Theory.

 The SFOs are combined with auxiliary Core Functions (CFs) to ensure orthogonalization on the (frozen)
 Core Orbitals (COs). The Core-orthogonalized SFOs (CSFOs) constitute the true Fock basis.

 The FOs, and hence also the (C)SFOs are combinations of the elementary basis functions (BAS). The basis
 functions that participate in the description of the SFOs depend on the irrep. The indices of the
 involved functions are printed below for each irrep.
 (The complete list of primitive basis functions is printed in another section)

 Total nr. of (C)SFOs (summation over all irreps) :   124

 NOTE: a (C)SFO that is defined as a combination of more than one FO is usually NOT normalized.



                                       === A ===
 Nr. of SFOs :  124
 Cartesian basis functions that participate in this irrep (total number =   139) :
      1     2     3    10    11    36    37    38     4     7
     12    15    39    42    45     5     8    13    16    40
     43    46     6     9    14    17    41    44    47    18
     24    30    48    19    25    31    49    20    26    32
     50    21    27    33    51    22    28    34    52    23
     29    35    53    54    55    56    57    58    59    60
     61    62    63    64    65    66    67    74    75    76
     68    71    77    80    83    69    72    78    81    84
     70    73    79    82    85    86    87    88    89    90
     91    92    93    94    95    96    97    98    99   100
    101   102   103   104   105   112   113   114   106   109
    115   118   121   107   110   116   119   122   108   111
    117   120   123   124   125   126   127   128   129   130
    131   132   133   134   135   136   137   138   139

    SFO  (index         Fragment          Generating    Expansion in Fragment Orbitals
  indx  incl.CFs)   Occup   Orb.Energy   FragmentType  Coeff.   Orbital     on Fragment
 --------------------------------------------------------------------------------------
     1       1      2.000    -481.052 au  BrCl          1.00      1 A               1
                        (  -13090.079 eV)
     2       2      2.000    -100.765 au  BrCl          1.00      2 A               1
                        (   -2741.961 eV)
     3       3      2.000     -61.807 au  BrCl          1.00      3 A               1
                        (   -1681.842 eV)
     4       4      2.000     -55.741 au  BrCl          1.00      4 A               1
                        (   -1516.798 eV)
     5       5      2.000     -55.734 au  BrCl          1.00      5 A               1
                        (   -1516.599 eV)
     6       6      2.000     -55.734 au  BrCl          1.00      6 A               1
                        (   -1516.599 eV)
     7       7      2.000      -9.216 au  BrCl          1.00      7 A               1
                        (    -250.770 eV)
     8       8      2.000      -8.426 au  BrCl          1.00      8 A               1
                        (    -229.292 eV)
     9       9      2.000      -7.049 au  BrCl          1.00      9 A               1
                        (    -191.803 eV)
    10      10      2.000      -7.032 au  BrCl          1.00     10 A               1
                        (    -191.360 eV)
    11      11      2.000      -7.032 au  BrCl          1.00     11 A               1
                        (    -191.360 eV)
    12      12      2.000      -6.340 au  BrCl          1.00     12 A               1
                        (    -172.517 eV)
    13      13      2.000      -6.319 au  BrCl          1.00     13 A               1
                        (    -171.947 eV)
    14      14      2.000      -6.319 au  BrCl          1.00     14 A               1
                        (    -171.947 eV)
    15      15      2.000      -2.544 au  BrCl          1.00     15 A               1
                        (     -69.217 eV)
    16      16      2.000      -2.539 au  BrCl          1.00     16 A               1
                        (     -69.079 eV)
    17      17      2.000      -2.539 au  BrCl          1.00     17 A               1
                        (     -69.079 eV)
    18      18      2.000      -2.523 au  BrCl          1.00     18 A               1
                        (     -68.665 eV)
    19      19      2.000      -2.523 au  BrCl          1.00     19 A               1
                        (     -68.664 eV)
    20      20      2.000      -0.770 au  BrCl          1.00     20 A               1
                        (     -20.959 eV)
    21      21      2.000      -0.708 au  BrCl          1.00     21 A               1
                        (     -19.267 eV)
    22      22      2.000      -0.386 au  BrCl          1.00     22 A               1
                        (     -10.511 eV)
    23      23      2.000      -0.318 au  BrCl          1.00     23 A               1
                        (      -8.653 eV)
    24      24      2.000      -0.318 au  BrCl          1.00     24 A               1
                        (      -8.653 eV)
    25      25      2.000      -0.274 au  BrCl          1.00     25 A               1
                        (      -7.464 eV)
    26      26      2.000      -0.274 au  BrCl          1.00     26 A               1
                        (      -7.464 eV)
    27      27       --        -0.233 au  BrCl          1.00     27 A               1
                        (      -6.328 eV)
    28      28       --         0.108 au  BrCl          1.00     28 A               1
                        (       2.943 eV)
    29      29       --         0.137 au  BrCl          1.00     29 A               1
                        (       3.716 eV)
    30      30       --         0.137 au  BrCl          1.00     30 A               1
                        (       3.716 eV)
    31      31       --         0.177 au  BrCl          1.00     31 A               1
                        (       4.823 eV)
    32      32       --         0.197 au  BrCl          1.00     32 A               1
                        (       5.349 eV)
    33      33       --         0.207 au  BrCl          1.00     33 A               1
                        (       5.638 eV)
    34      34       --         0.207 au  BrCl          1.00     34 A               1
                        (       5.638 eV)
    35      35       --         0.257 au  BrCl          1.00     35 A               1
                        (       6.988 eV)
    36      36       --         0.257 au  BrCl          1.00     36 A               1
                        (       6.988 eV)
    37      37       --         0.266 au  BrCl          1.00     37 A               1
                        (       7.234 eV)
    38      38       --         0.266 au  BrCl          1.00     38 A               1
                        (       7.234 eV)
    39      39       --         0.330 au  BrCl          1.00     39 A               1
                        (       8.979 eV)
    40      40       --         0.371 au  BrCl          1.00     40 A               1
                        (      10.102 eV)
    41      41       --         0.403 au  BrCl          1.00     41 A               1
                        (      10.954 eV)
    42      42       --         0.403 au  BrCl          1.00     42 A               1
                        (      10.954 eV)
    43      43       --         0.460 au  BrCl          1.00     43 A               1
                        (      12.510 eV)
    44      44       --         0.460 au  BrCl          1.00     44 A               1
                        (      12.510 eV)
    45      45       --         0.715 au  BrCl          1.00     45 A               1
                        (      19.449 eV)
    46      46       --         0.822 au  BrCl          1.00     46 A               1
                        (      22.375 eV)
    47      47       --         0.822 au  BrCl          1.00     47 A               1
                        (      22.375 eV)
    48      48       --         0.849 au  BrCl          1.00     48 A               1
                        (      23.114 eV)
    49      49       --         0.849 au  BrCl          1.00     49 A               1
                        (      23.114 eV)
    50      50       --         0.888 au  BrCl          1.00     50 A               1
                        (      24.155 eV)
    51      51       --         0.888 au  BrCl          1.00     51 A               1
                        (      24.156 eV)
    52      52       --         0.940 au  BrCl          1.00     52 A               1
                        (      25.588 eV)
    53      53       --         1.184 au  BrCl          1.00     53 A               1
                        (      32.214 eV)
    54      54       --         1.184 au  BrCl          1.00     54 A               1
                        (      32.214 eV)
    55      55       --         1.209 au  BrCl          1.00     55 A               1
                        (      32.906 eV)
    56      56       --         1.209 au  BrCl          1.00     56 A               1
                        (      32.907 eV)
    57      57       --         1.263 au  BrCl          1.00     57 A               1
                        (      34.361 eV)
    58      58       --         1.266 au  BrCl          1.00     58 A               1
                        (      34.460 eV)
    59      59       --         1.266 au  BrCl          1.00     59 A               1
                        (      34.460 eV)
    60      60       --         1.380 au  BrCl          1.00     60 A               1
                        (      37.562 eV)
    61      61       --         1.404 au  BrCl          1.00     61 A               1
                        (      38.207 eV)
    62      62       --         1.404 au  BrCl          1.00     62 A               1
                        (      38.207 eV)
    63      63       --         2.100 au  BrCl          1.00     63 A               1
                        (      57.144 eV)
    64      64       --         2.162 au  BrCl          1.00     64 A               1
                        (      58.832 eV)
    65      65       --         2.162 au  BrCl          1.00     65 A               1
                        (      58.833 eV)
    66      66       --         2.270 au  BrCl          1.00     66 A               1
                        (      61.781 eV)
    67      67       --         2.682 au  BrCl          1.00     67 A               1
                        (      72.979 eV)
    68      68       --         2.682 au  BrCl          1.00     68 A               1
                        (      72.979 eV)
    69      69       --         2.724 au  BrCl          1.00     69 A               1
                        (      74.121 eV)
    70      70       --         2.756 au  BrCl          1.00     70 A               1
                        (      74.986 eV)
    71      71       --         2.756 au  BrCl          1.00     71 A               1
                        (      74.986 eV)
    72      72       --         3.160 au  BrCl          1.00     72 A               1
                        (      85.987 eV)
    73      73       --         8.853 au  BrCl          1.00     73 A               1
                        (     240.905 eV)
    74      74       --         8.853 au  BrCl          1.00     74 A               1
                        (     240.907 eV)
    75      75       --         8.979 au  BrCl          1.00     75 A               1
                        (     244.330 eV)
    76      76       --        13.039 au  BrCl          1.00     76 A               1
                        (     354.804 eV)
    77      77       --        14.713 au  BrCl          1.00     77 A               1
                        (     400.355 eV)
    78      78       --        18.927 au  BrCl          1.00     78 A               1
                        (     515.037 eV)
    79      79       --        18.927 au  BrCl          1.00     79 A               1
                        (     515.038 eV)
    80      80       --        19.263 au  BrCl          1.00     80 A               1
                        (     524.162 eV)
    81      81       --        20.600 au  BrCl          1.00     81 A               1
                        (     560.565 eV)
    82      82       --        20.600 au  BrCl          1.00     82 A               1
                        (     560.565 eV)
    83      83       --        20.701 au  BrCl          1.00     83 A               1
                        (     563.292 eV)
    84      84       --        20.701 au  BrCl          1.00     84 A               1
                        (     563.292 eV)
    85      85       --        21.123 au  BrCl          1.00     85 A               1
                        (     574.785 eV)
    86      86       --       100.920 au  BrCl          1.00     86 A               1
                        (    2746.176 eV)
    87      87       --       100.920 au  BrCl          1.00     87 A               1
                        (    2746.176 eV)
    88      88       --       101.239 au  BrCl          1.00     88 A               1
                        (    2754.866 eV)
    89      89       --       216.087 au  BrCl          1.00     89 A               1
                        (    5880.036 eV)
    90      90       --       748.133 au  BrCl          1.00     90 A               1
                        (   20357.735 eV)
    91      91      2.000    -100.372 au  Cl            1.00      1 A               2
                        (   -2731.270 eV)
    92      92      2.000      -8.827 au  Cl            1.00      2 A               2
                        (    -240.193 eV)
    93      93      2.000      -6.649 au  Cl            1.00      3 A               2
                        (    -180.916 eV)
    94      94      2.000      -6.649 au  Cl            1.00      4 A               2
                        (    -180.916 eV)
    95      95      2.000      -6.649 au  Cl            1.00      5 A               2
                        (    -180.916 eV)
    96      96      2.000      -0.385 au  Cl            1.00      6 A               2
                        (     -10.473 eV)
    97      97      2.000       0.033 au  Cl            1.00      7 A               2
                        (       0.909 eV)
    98      98      2.000       0.033 au  Cl            1.00      8 A               2
                        (       0.909 eV)
    99      99      2.000       0.033 au  Cl            1.00      9 A               2
                        (       0.909 eV)
   100     100       --         0.475 au  Cl            1.00     10 A               2
                        (      12.914 eV)
   101     101       --         0.489 au  Cl            1.00     11 A               2
                        (      13.299 eV)
   102     102       --         0.489 au  Cl            1.00     12 A               2
                        (      13.299 eV)
   103     103       --         0.489 au  Cl            1.00     13 A               2
                        (      13.299 eV)
   104     104       --         0.741 au  Cl            1.00     14 A               2
                        (      20.162 eV)
   105     105       --         0.741 au  Cl            1.00     15 A               2
                        (      20.162 eV)
   106     106       --         0.741 au  Cl            1.00     16 A               2
                        (      20.162 eV)
   107     107       --         0.741 au  Cl            1.00     17 A               2
                        (      20.162 eV)
   108     108       --         0.741 au  Cl            1.00     18 A               2
                        (      20.162 eV)
   109     109       --         1.518 au  Cl            1.00     19 A               2
                        (      41.294 eV)
   110     110       --         1.518 au  Cl            1.00     20 A               2
                        (      41.294 eV)
   111     111       --         1.518 au  Cl            1.00     21 A               2
                        (      41.294 eV)
   112     112       --         1.518 au  Cl            1.00     22 A               2
                        (      41.294 eV)
   113     113       --         1.518 au  Cl            1.00     23 A               2
                        (      41.294 eV)
   114     114       --         1.518 au  Cl            1.00     24 A               2
                        (      41.294 eV)
   115     115       --         1.518 au  Cl            1.00     25 A               2
                        (      41.294 eV)
   116     116       --         2.351 au  Cl            1.00     26 A               2
                        (      63.962 eV)
   117     117       --         2.448 au  Cl            1.00     27 A               2
                        (      66.612 eV)
   118     118       --         2.448 au  Cl            1.00     28 A               2
                        (      66.612 eV)
   119     119       --         2.448 au  Cl            1.00     29 A               2
                        (      66.612 eV)
   120     120       --        13.113 au  Cl            1.00     30 A               2
                        (     356.814 eV)
   121     121       --        19.210 au  Cl            1.00     31 A               2
                        (     522.735 eV)
   122     122       --        19.210 au  Cl            1.00     32 A               2
                        (     522.735 eV)
   123     123       --        19.210 au  Cl            1.00     33 A               2
                        (     522.735 eV)
   124     124       --       215.062 au  Cl            1.00     34 A               2
                        (    5852.138 eV)



 ================================
 (Slater-type)  F U N C T I O N S  ***  (Basis and Fit)  ***
 ================================
  

 Atom Type    1  (Br)
 ==============

 Valence Basis Sets:  20
 -----------------------
   1 S   41.300000
   1 S   32.800000
   2 S   13.900000
   2 P   19.450000
   2 P   13.100000
   3 S    7.200000
   3 S    4.950000
   3 P    7.900000
   3 P    5.050000
   3 D   10.900000
   3 D    6.050000
   3 D    3.500000
   4 S    4.500000
   4 S    2.800000
   4 S    1.800000
   4 P    3.250000
   4 P    1.950000
   4 P    1.200000
   4 D    1.800000
   4 F    1.800000

 Atom Type    2  (Cl)
 ==============

 Valence Basis Sets:  14
 -----------------------
   1 S   20.300000
   1 S   15.250000
   2 S    6.250000
   2 S    4.450000
   2 P    8.850000
   2 P    5.050000
   3 S    3.450000
   3 S    2.300000
   3 S    1.600000
   3 P    3.350000
   3 P    2.050000
   3 P    1.200000
   3 D    2.000000
   4 F    2.000000

 Atom Type    3  (Cl)
 ==============

 Valence Basis Sets:  14
 -----------------------
   1 S   20.300000
   1 S   15.250000
   2 S    6.250000
   2 S    4.450000
   2 P    8.850000
   2 P    5.050000
   3 S    3.450000
   3 S    2.300000
   3 S    1.600000
   3 P    3.350000
   3 P    2.050000
   3 P    1.200000
   3 D    2.000000
   4 F    2.000000


 BAS: List of all Elementary Cartesian Basis Functions
 =====================================================

 The numbering in the list below (to the right of the function characteristics) is referred
 to in print-outs of MO eigenvectors and Mulliken populations in the BAS representation
 (as contrasted to the SFO representation).

 Notes:
 1. The functions are characterized by a polynomial prefactor (powers of x,y,z and r) and
    an exponential decay factor alpha.
 2. Since the basis sets are specific for an atom TYPE, the individual functions occur on
    all atoms of that type.
 3. The word 'Core' in the left margin signals that it is a Core Function (CF) : not a
    degree of freedom in the valence set, but only used to ensure orthogonalization of
    the other valence basis functions on the frozen Core Orbitals.


 (power of) X  Y  Z  R     Alpha  on Atom
            ==========     =====     ==========

 Br                                   1
                                  ---------------------------------------------------------------------------
            0  0  0  0    41.300      1
            0  0  0  0    32.800      2
            0  0  0  1    13.900      3
            1  0  0  0    19.450      4
            0  1  0  0    19.450      5
            0  0  1  0    19.450      6
            1  0  0  0    13.100      7
            0  1  0  0    13.100      8
            0  0  1  0    13.100      9
            0  0  0  2     7.200     10
            0  0  0  2     4.950     11
            1  0  0  1     7.900     12
            0  1  0  1     7.900     13
            0  0  1  1     7.900     14
            1  0  0  1     5.050     15
            0  1  0  1     5.050     16
            0  0  1  1     5.050     17
            2  0  0  0    10.900     18
            1  1  0  0    10.900     19
            1  0  1  0    10.900     20
            0  2  0  0    10.900     21
            0  1  1  0    10.900     22
            0  0  2  0    10.900     23
            2  0  0  0     6.050     24
            1  1  0  0     6.050     25
            1  0  1  0     6.050     26
            0  2  0  0     6.050     27
            0  1  1  0     6.050     28
            0  0  2  0     6.050     29
            2  0  0  0     3.500     30
            1  1  0  0     3.500     31
            1  0  1  0     3.500     32
            0  2  0  0     3.500     33
            0  1  1  0     3.500     34
            0  0  2  0     3.500     35
            0  0  0  3     4.500     36
            0  0  0  3     2.800     37
            0  0  0  3     1.800     38
            1  0  0  2     3.250     39
            0  1  0  2     3.250     40
            0  0  1  2     3.250     41
            1  0  0  2     1.950     42
            0  1  0  2     1.950     43
            0  0  1  2     1.950     44
            1  0  0  2     1.200     45
            0  1  0  2     1.200     46
            0  0  1  2     1.200     47
            2  0  0  1     1.800     48
            1  1  0  1     1.800     49
            1  0  1  1     1.800     50
            0  2  0  1     1.800     51
            0  1  1  1     1.800     52
            0  0  2  1     1.800     53
            3  0  0  0     1.800     54
            2  1  0  0     1.800     55
            2  0  1  0     1.800     56
            1  2  0  0     1.800     57
            1  1  1  0     1.800     58
            1  0  2  0     1.800     59
            0  3  0  0     1.800     60
            0  2  1  0     1.800     61
            0  1  2  0     1.800     62
            0  0  3  0     1.800     63

 Cl                                   2
                                  ---------------------------------------------------------------------------
            0  0  0  0    20.300     64
            0  0  0  0    15.250     65
            0  0  0  1     6.250     66
            0  0  0  1     4.450     67
            1  0  0  0     8.850     68
            0  1  0  0     8.850     69
            0  0  1  0     8.850     70
            1  0  0  0     5.050     71
            0  1  0  0     5.050     72
            0  0  1  0     5.050     73
            0  0  0  2     3.450     74
            0  0  0  2     2.300     75
            0  0  0  2     1.600     76
            1  0  0  1     3.350     77
            0  1  0  1     3.350     78
            0  0  1  1     3.350     79
            1  0  0  1     2.050     80
            0  1  0  1     2.050     81
            0  0  1  1     2.050     82
            1  0  0  1     1.200     83
            0  1  0  1     1.200     84
            0  0  1  1     1.200     85
            2  0  0  0     2.000     86
            1  1  0  0     2.000     87
            1  0  1  0     2.000     88
            0  2  0  0     2.000     89
            0  1  1  0     2.000     90
            0  0  2  0     2.000     91
            3  0  0  0     2.000     92
            2  1  0  0     2.000     93
            2  0  1  0     2.000     94
            1  2  0  0     2.000     95
            1  1  1  0     2.000     96
            1  0  2  0     2.000     97
            0  3  0  0     2.000     98
            0  2  1  0     2.000     99
            0  1  2  0     2.000    100
            0  0  3  0     2.000    101

 Cl                                   3
                                  ---------------------------------------------------------------------------
            0  0  0  0    20.300    102
            0  0  0  0    15.250    103
            0  0  0  1     6.250    104
            0  0  0  1     4.450    105
            1  0  0  0     8.850    106
            0  1  0  0     8.850    107
            0  0  1  0     8.850    108
            1  0  0  0     5.050    109
            0  1  0  0     5.050    110
            0  0  1  0     5.050    111
            0  0  0  2     3.450    112
            0  0  0  2     2.300    113
            0  0  0  2     1.600    114
            1  0  0  1     3.350    115
            0  1  0  1     3.350    116
            0  0  1  1     3.350    117
            1  0  0  1     2.050    118
            0  1  0  1     2.050    119
            0  0  1  1     2.050    120
            1  0  0  1     1.200    121
            0  1  0  1     1.200    122
            0  0  1  1     1.200    123
            2  0  0  0     2.000    124
            1  1  0  0     2.000    125
            1  0  1  0     2.000    126
            0  2  0  0     2.000    127
            0  1  1  0     2.000    128
            0  0  2  0     2.000    129
            3  0  0  0     2.000    130
            2  1  0  0     2.000    131
            2  0  1  0     2.000    132
            1  2  0  0     2.000    133
            1  1  1  0     2.000    134
            1  0  2  0     2.000    135
            0  3  0  0     2.000    136
            0  2  1  0     2.000    137
            0  1  2  0     2.000    138
            0  0  3  0     2.000    139

 Total number of charge fitting functions (nprimf)       382
 Total number of Cartesian basis functions (naos)        139
 Total number of Cartesian core functions  (ncos)          0

1
 ***************************************************************************************************



                                              ***********************
                                              *  T E C H N I C A L  *
                                              ***********************
  



 =============================================================
 P A R A L L E L I Z A T I O N  and  V E C T O R I Z A T I O N
 =============================================================
  
 Nr of parallel processes:                               12
 Maximum vector length in NumInt loops:                 128

 IO buffersize (Mb):                                     64.000000



 =====================
 S C F   U P D A T E S
 =====================
  
 Max. nr. of cycles:                               250
 Convergence criterion:                              0.0000010000
   secondary criterion:                              0.0010000000

 Mix parameter (when DIIS does not apply):           0.2000000000
 Mixed ADIIS+DIIS will be used
    Max number of expansion vectors:                10
    Pure ADIIS when Max([F,P]) is above              0.1000000000
    Pure DIIS when Max([F,P]) is below               0.0010000000
 Automatic ElectronSmearing (in case of problematic SCF convergence) disabled



 =================
 P R E C I S I O N  ***  (General: NumInt, NeglectFunctionTails, ...)  ***
 =================
  

 NumInt:           Target precision:                 6.0000000000
 -------           Initial precision:                6.0000000000
                   Min. precision (optimization):    6.0000000000

 Neglect Functions:          Basis functions:        0.1000000000E-07
 ------------------          Fit functions:          0.1000000000E-07



 ===========================
 L I N E A R   S C A L I N G
 ===========================
  

 Cut-off radii density fit:                        0.1000000000E-09
 Overlap cut-off criterion AO matrix elements:     0.1000000000E-07
 Cut-offs for Coulomb potential and fitted density:0.1000000000E-09
 Cut-off criterion for Coulomb multipole terms:    0.1000000000E-09
 Progressive Convergence parameter:                 0.000000000    
1
 ***************************************************************************************************



                                            ***************************
                                            *  C O M P U T A T I O N  *
                                            ***************************
  

 Number of elements of the density matrix on this node (used, total):      2016      9730



 ===========================================
 Numerical Integration : Fuzzy Cells (Becke)
 ===========================================
  
 Becke grid quality: GOOD           
  
 Lebedev angular grid order:             min:  11 max:  31
 Nr. of radial points:                   min:  80 max:  90

 Total nr. of points:      53898
 Nr. of blocks:              422
 Block length:               128
 Nr. of dummy points:        118


 Test of Precision of the Numerical Integration Grid
 ===================================================

 Integral of the Total Core Density:                   0.00000000000000



 ========================
 Density Fitting (zlmFit)
 ========================
  
 ZlmFit Fit Quality: NORMAL         
  
 Max L-expansion:                        min:   7 max:   7
 Nr. of radial interpolation points:     min:  60 max:  72



 =====
 S C F  ***  ScaSCF  ***
 =====
  
 Initial density matrix is calculated as sum of fragments

 CYCLE    1
 SCF Error: norm([F,P])=      1.614424436174, max([F,P])=      0.958302205982
 orbitals (Q,E):
 ---------------
 A :26...45          ( 2.00    -0.5431)  ( 2.00    -0.4301)  ( 2.00    -0.2592)  ( 2.00    -0.2136)
                     ( 2.00    -0.2136)  ( 2.00    -0.1104)  ( 2.00    -0.1104)  ( 2.00    -0.1016)
                     ( 2.00    -0.0011)  ( 2.00    -0.0011)  ( 0.00     0.0514)  ( 0.00     0.2494)
                     ( 0.00     0.2934)  ( 0.00     0.2934)  ( 0.00     0.2968)  ( 0.00     0.3623)
                     ( 0.00     0.3623)  ( 0.00     0.3720)  ( 0.00     0.3720)  ( 0.00     0.3854)

 CYCLE    2
  SDIIS (wt  0.000):  0.2662  0.7338
 A-DIIS (wt  1.000):  0.9150  0.0850
  DIIS coefficients:  0.9150  0.0850
 SCF Error: norm([F,P])=      0.947894528492, max([F,P])=      0.446723267537
 orbitals (Q,E):
 ---------------
 A :26...36          ( 2.00    -0.5346)  ( 2.00    -0.4638)  ( 2.00    -0.2337)  ( 2.00    -0.1813)
                     ( 2.00    -0.1813)  ( 2.00    -0.1036)  ( 2.00    -0.1030)  ( 2.00    -0.1030)
                     ( 2.00    -0.0328)  ( 2.00    -0.0328)  ( 0.00     0.0342)

 CYCLE    3
  SDIIS (wt  0.000):  0.0467 -1.4230  2.3762
 A-DIIS (wt  1.000):  0.8708  0.0000  0.1292
  DIIS coefficients:  0.8708  0.0000  0.1292
 SCF Error: norm([F,P])=      0.627626277268, max([F,P])=      0.313737608426
 orbitals (Q,E):
 ---------------
 A :26...36          ( 2.00    -0.5369)  ( 2.00    -0.4676)  ( 2.00    -0.2302)  ( 2.00    -0.1752)
                     ( 2.00    -0.1752)  ( 2.00    -0.1049)  ( 2.00    -0.1049)  ( 2.00    -0.1043)
                     ( 2.00    -0.0365)  ( 2.00    -0.0365)  ( 0.00     0.0314)

 CYCLE    4
  SDIIS (wt  0.000): -1.2723 -0.7277  3.0000
 A-DIIS (wt  1.000):  0.0000  0.0000  1.0000
  DIIS coefficients:  0.0000  0.0000  1.0000
 SCF Error: norm([F,P])=      0.593264157733, max([F,P])=      0.303166213546
 orbitals (Q,E):
 ---------------
 A :26...36          ( 2.00    -0.5144)  ( 2.00    -0.3417)  ( 2.00    -0.3076)  ( 2.00    -0.3041)
                     ( 2.00    -0.3041)  ( 2.00    -0.0780)  ( 2.00    -0.0780)  ( 2.00    -0.0624)
                     ( 2.00     0.0865)  ( 2.00     0.0865)  ( 0.00     0.1286)

 CYCLE    5
  SDIIS (wt  0.000): -0.7962 -1.3208  3.0000  0.1169
 A-DIIS (wt  1.000):  0.0000  0.0000  0.7868  0.2132
  DIIS coefficients:  0.0000  0.0000  0.7868  0.2132
 SCF Error: norm([F,P])=      1.596914701135, max([F,P])=      0.551883142003
 orbitals (Q,E):
 ---------------
 A :26...36          ( 2.00    -0.5097)  ( 2.00    -0.4589)  ( 2.00    -0.2122)  ( 2.00    -0.1668)
                     ( 2.00    -0.1668)  ( 2.00    -0.0973)  ( 2.00    -0.0783)  ( 2.00    -0.0783)
                     ( 2.00    -0.0367)  ( 2.00    -0.0367)  ( 0.00     0.0488)

 CYCLE    6
  SDIIS (wt  0.000): -0.1732 -2.0000  2.7462  0.0019  0.4251
 A-DIIS (wt  1.000):  0.0000  0.0000  0.4272  0.0000  0.5728
  DIIS coefficients:  0.0000  0.0000  0.4272  0.0000  0.5728
 SCF Error: norm([F,P])=      0.521558174549, max([F,P])=      0.170453731130
 orbitals (Q,E):
 ---------------
 A :26...36          ( 2.00    -0.5295)  ( 2.00    -0.4960)  ( 2.00    -0.2121)  ( 2.00    -0.1452)
                     ( 2.00    -0.1452)  ( 2.00    -0.0955)  ( 2.00    -0.0918)  ( 2.00    -0.0918)
                     ( 2.00    -0.0693)  ( 2.00    -0.0693)  ( 0.00     0.0154)

 CYCLE    7
  SDIIS (wt  0.000): -0.2973  0.7274 -0.1647 -0.0503  0.3133  0.4715
 A-DIIS (wt  1.000):  0.0000  0.0000  0.0703  0.0000  0.1148  0.8149
  DIIS coefficients: -0.0001  0.0002  0.0703 -0.0000  0.1148  0.8148
 SCF Error: norm([F,P])=      0.273645025266, max([F,P])=      0.099973958732
 orbitals (Q,E):
 ---------------
 A :26...36          ( 2.00    -0.5441)  ( 2.00    -0.4708)  ( 2.00    -0.1988)  ( 2.00    -0.1361)
                     ( 2.00    -0.1361)  ( 2.00    -0.1132)  ( 2.00    -0.1051)  ( 2.00    -0.1051)
                     ( 2.00    -0.0500)  ( 2.00    -0.0500)  ( 0.00     0.0368)

 CYCLE    8
  SDIIS (wt  0.000): -0.0827 -0.4524  0.6521 -0.0112  0.1297  0.5122  0.2523
 A-DIIS (wt  1.000):  0.0000  0.0000  0.0000  0.0000  0.0000  0.6780  0.3220
  DIIS coefficients:  0.0000  0.0000  0.0000  0.0000  0.0000  0.6780  0.3220
 SCF Error: norm([F,P])=      0.442011879656, max([F,P])=      0.150296858846
 orbitals (Q,E):
 ---------------
 A :26...36          ( 2.00    -0.5434)  ( 2.00    -0.4914)  ( 2.00    -0.2028)  ( 2.00    -0.1285)
                     ( 2.00    -0.1285)  ( 2.00    -0.1063)  ( 2.00    -0.1038)  ( 2.00    -0.1038)
                     ( 2.00    -0.0669)  ( 2.00    -0.0669)  ( 0.00     0.0237)

 CYCLE    9
  SDIIS (wt  0.675):  0.0054 -0.4727  0.5244 -0.0040  0.0005  0.3013  0.0766  0.5685
 A-DIIS (wt  0.325):  0.0000  0.0000  0.0000  0.0000  0.0000  0.1757  0.0000  0.8243
  DIIS coefficients:  0.0036 -0.3191  0.3540 -0.0027  0.0004  0.2605  0.0517  0.6516
 SCF Error: norm([F,P])=      0.113539593552, max([F,P])=      0.033178047937
 orbitals (Q,E):
 ---------------
 A :26...36          ( 2.00    -0.5379)  ( 2.00    -0.4951)  ( 2.00    -0.2058)  ( 2.00    -0.1328)
                     ( 2.00    -0.1328)  ( 2.00    -0.1020)  ( 2.00    -0.0990)  ( 2.00    -0.0990)
                     ( 2.00    -0.0695)  ( 2.00    -0.0695)  ( 0.00     0.0201)

 CYCLE   10
  SDIIS (wt  0.768): -0.0053  0.1801 -0.1928 -0.0002  0.0009  0.0583 -0.0210  0.3681  0.6119
 A-DIIS (wt  0.232):  0.0000  0.0000  0.0000  0.0000  0.0000  0.0000  0.0000  0.2703  0.7297
  DIIS coefficients: -0.0041  0.1384 -0.1482 -0.0001  0.0007  0.0448 -0.0161  0.3454  0.6392
 SCF Error: norm([F,P])=      0.053360937521, max([F,P])=      0.023926021752
 orbitals (Q,E):
 ---------------
 A :26...36          ( 2.00    -0.5392)  ( 2.00    -0.4946)  ( 2.00    -0.2050)  ( 2.00    -0.1316)
                     ( 2.00    -0.1316)  ( 2.00    -0.1030)  ( 2.00    -0.1000)  ( 2.00    -0.1000)
                     ( 2.00    -0.0693)  ( 2.00    -0.0693)  ( 0.00     0.0208)

 CYCLE   11
  SDIIS (wt  0.935): -0.0011  0.0145 -0.0159 -0.0002 -0.0005 -0.0103  0.0050  0.0636  0.3273  0.6176
 A-DIIS (wt  0.065):  0.0000  0.0000  0.0000  0.0000  0.0000  0.0000  0.0000  0.0000  0.1965  0.8035
  DIIS coefficients: -0.0011  0.0136 -0.0148 -0.0002 -0.0005 -0.0097  0.0047  0.0595  0.3188  0.6296
 SCF Error: norm([F,P])=      0.019566680976, max([F,P])=      0.007398488423
 orbitals (Q,E):
 ---------------
 A :26...36          ( 2.00    -0.5392)  ( 2.00    -0.4945)  ( 2.00    -0.2049)  ( 2.00    -0.1313)
                     ( 2.00    -0.1313)  ( 2.00    -0.1031)  ( 2.00    -0.1001)  ( 2.00    -0.1001)
                     ( 2.00    -0.0692)  ( 2.00    -0.0692)  ( 0.00     0.0209)

 CYCLE   12
  SDIIS (wt  1.000):  0.0119 -0.0138  0.0000 -0.0008 -0.0023 -0.0003  0.0335  0.1316  0.2626  0.5775
 A-DIIS (wt  0.000):  0.0000  0.0000  0.0000  0.0000  0.0000  0.0000  0.0000  0.0000  0.0000  1.0000
  DIIS coefficients:  0.0119 -0.0138  0.0000 -0.0008 -0.0023 -0.0003  0.0335  0.1316  0.2626  0.5775
 SCF Error: norm([F,P])=      0.002317810402, max([F,P])=      0.001001860285
 orbitals (Q,E):
 ---------------
 A :26...36          ( 2.00    -0.5392)  ( 2.00    -0.4945)  ( 2.00    -0.2049)  ( 2.00    -0.1314)
                     ( 2.00    -0.1314)  ( 2.00    -0.1030)  ( 2.00    -0.1000)  ( 2.00    -0.1000)
                     ( 2.00    -0.0692)  ( 2.00    -0.0692)  ( 0.00     0.0209)

 CYCLE   13
  SDIIS (wt  1.000): -0.0002  0.0000 -0.0003 -0.0006  0.0003  0.0082  0.0383  0.0978  0.2793  0.5772
  DIIS coefficients: -0.0002  0.0000 -0.0003 -0.0006  0.0003  0.0082  0.0383  0.0978  0.2793  0.5772
 SCF Error: norm([F,P])=      0.000153667373, max([F,P])=      0.000046333974
 orbitals (Q,E):
 ---------------
 A :26...36          ( 2.00    -0.5392)  ( 2.00    -0.4945)  ( 2.00    -0.2049)  ( 2.00    -0.1314)
                     ( 2.00    -0.1314)  ( 2.00    -0.1030)  ( 2.00    -0.1000)  ( 2.00    -0.1000)
                     ( 2.00    -0.0692)  ( 2.00    -0.0692)  ( 0.00     0.0209)

 CYCLE   14
  SDIIS (wt  1.000):  0.0000 -0.0001 -0.0003  0.0000  0.0015  0.0079  0.0262  0.0923  0.2436  0.6289
  DIIS coefficients:  0.0000 -0.0001 -0.0003  0.0000  0.0015  0.0079  0.0262  0.0923  0.2436  0.6289
 SCF Error: norm([F,P])=      0.000054219343, max([F,P])=      0.000021276696
 orbitals (Q,E):
 ---------------
 A :26...36          ( 2.00    -0.5392)  ( 2.00    -0.4945)  ( 2.00    -0.2049)  ( 2.00    -0.1314)
                     ( 2.00    -0.1314)  ( 2.00    -0.1030)  ( 2.00    -0.1000)  ( 2.00    -0.1000)
                     ( 2.00    -0.0692)  ( 2.00    -0.0692)  ( 0.00     0.0209)

 CYCLE   15
  SDIIS (wt  1.000): -0.0000 -0.0001  0.0000  0.0005  0.0024  0.0080  0.0291  0.0800  0.2178  0.6621
  DIIS coefficients: -0.0000 -0.0001  0.0000  0.0005  0.0024  0.0080  0.0291  0.0800  0.2178  0.6621
 SCF Error: norm([F,P])=      0.000006698536, max([F,P])=      0.000001488854
 orbitals (Q,E):
 ---------------
 A :26...36          ( 2.00    -0.5392)  ( 2.00    -0.4945)  ( 2.00    -0.2049)  ( 2.00    -0.1314)
                     ( 2.00    -0.1314)  ( 2.00    -0.1030)  ( 2.00    -0.1000)  ( 2.00    -0.1000)
                     ( 2.00    -0.0692)  ( 2.00    -0.0692)  ( 0.00     0.0209)

 CYCLE   16
  SDIIS (wt  1.000):  0.0000 -0.0000  0.0000  0.0000  0.0000  0.0008  0.0017  0.0030  0.1753  0.8191
  DIIS coefficients:  0.0000 -0.0000  0.0000  0.0000  0.0000  0.0008  0.0017  0.0030  0.1753  0.8191
 SCF Error: norm([F,P])=      0.000001917811, max([F,P])=      0.000000584454
 orbitals (Q,E):
 ---------------
 A :26...36          ( 2.00    -0.5392)  ( 2.00    -0.4945)  ( 2.00    -0.2049)  ( 2.00    -0.1314)
                     ( 2.00    -0.1314)  ( 2.00    -0.1030)  ( 2.00    -0.1000)  ( 2.00    -0.1000)
                     ( 2.00    -0.0692)  ( 2.00    -0.0692)  ( 0.00     0.0209)

 SCF CONVERGED

 CYCLE   17
1
 ***************************************************************************************************



                                                *******************
                                                *  R E S U L T S  *
                                                *******************
  
 *** Setting up for NEW gradients in Focky
 *** Using FIT density in Focky

 Orbital Energies, per Irrep and Spin:
 ======================================
                        Occup              E (au)              E (eV)       Diff (eV) with prev. cycle
                        -----      --------------------        ------       --------------------------
 A
              26        2.000     -0.53918390513480E+00       -14.672               2.00E-06
              27        2.000     -0.49453055747070E+00       -13.457               1.94E-06
              28        2.000     -0.20491211554775E+00        -5.576               1.76E-06
              29        2.000     -0.13139156948779E+00        -3.575               1.64E-06
              30        2.000     -0.13139062852992E+00        -3.575               1.64E-06
              31        2.000     -0.10303689142338E+00        -2.804               1.76E-06
              32        2.000     -0.10004458169543E+00        -2.722               1.60E-06
              33        2.000     -0.10004392487439E+00        -2.722               1.60E-06
              34        2.000     -0.69206336544196E-01        -1.883               1.65E-06
              35        2.000     -0.69205015819287E-01        -1.883               1.65E-06
              36        0.000      0.20885338004826E-01         0.568
              37        0.000      0.28898113210678E+00         7.864
              38        0.000      0.30690450262186E+00         8.351
              39        0.000      0.30691120077465E+00         8.351
              40        0.000      0.33534401452740E+00         9.125
              41        0.000      0.36642032342133E+00         9.971
              42        0.000      0.37488146647553E+00        10.201
              43        0.000      0.37488431003187E+00        10.201
              44        0.000      0.40678541707135E+00        11.069
              45        0.000      0.43238952879295E+00        11.766
  
 HOMO :       35 A                -0.69205015819287E-01
 LUMO :       36 A                 0.20885338004826E-01
  


 All Electron Calculation, thus no Orbital Energies of the Core Orbitals are calculated


 Fit test: (difference of exact and fit density, squared integrated, result summed over spins)
         Sum-of-Fragments:                             0.00091938787685
         Orthogonalized Fragments:                     0.00092074740072
         SCF:                                          0.00092344846043



 ==========================
 Electron Density at Nuclei
 ==========================
  
 The electron density is calculated at points on a small sphere around the center of a nucleus.
 The printed electron density is the average electron density on these points.
 The radius of the sphere is the printed approximate finite nuclear radius.

         Atom        Nuclear Radius (Angstrom)             Electron Density (a.u.)
         ----        -------------------------             -----------------------
     1)   Br                0.0000536685                            29315.43198
     2)   Cl                0.0000426624                             3210.59391
     3)   Cl                0.0000426624                             3210.59387



 =======================================
 M U L L I K E N   P O P U L A T I O N S
 =======================================
  
 The survey below gives for each atom:
 a) the total charge (Z minus electrons)
 b) the net spin polarization (nr of electrons spin-A minus spin-B)
 c) for each spin the atomic electron valence density (integrated) per L-value.

 Atom              Charge    Spin density          S         P         D         F
 ----              ------    ------------       ------    ------    ------    ------
 1 Br             -0.1166                       8.0048   16.9661   10.1265    0.0192
 2 Cl             -0.4417                       5.9765   11.4420    0.0192    0.0040
 3 Cl             -0.4418                       5.9765   11.4421    0.0191    0.0040

 Populations of individual BAS functions
 ----------------------------------------
 1 Br           0.3611  1.5681  2.0733  0.7131  0.7124  0.7134  1.2649  1.2661  1.2644  1.4391
                0.5866  1.1373  1.1241  1.1424  0.8917  0.9035  0.8871  0.2678  0.4017  0.4018
                0.2676  0.4016  0.2680  0.7774  1.1652  1.1662  0.7757  1.1653  0.7781  0.2878
                0.4343  0.4321  0.2930  0.4335  0.2859  0.2970  1.2498  0.4298  0.5783  0.3924
                0.6509  0.9606  0.7240  1.0530  0.2209  0.0960  0.2697  0.0034  0.0469  0.0057
                0.0537  0.0189 -0.0049 -0.0049 -0.0023  0.0004  0.0168  0.0024 -0.0058  0.0206
                0.0143 -0.0108 -0.0116
 2 Cl           0.5055  1.4530  1.7120  0.2559  0.7272  0.7233  0.7286  1.2710  1.2761  1.2690
                0.6022  1.0381  0.4099  0.2871  0.2388  0.3060  1.0400  0.9359  1.0806  0.5452
                0.4184  0.5948 -0.0007  0.0063  0.0012  0.0146  0.0039 -0.0061 -0.0024 -0.0024
                0.0002  0.0069  0.0005 -0.0031  0.0096  0.0067 -0.0057 -0.0063
 3 Cl           0.5055  1.4530  1.7120  0.2559  0.7272  0.7233  0.7286  1.2710  1.2761  1.2690
                0.6022  1.0381  0.4100  0.2871  0.2388  0.3060  1.0399  0.9359  1.0806  0.5453
                0.4185  0.5948 -0.0007  0.0063  0.0012  0.0146  0.0039 -0.0061 -0.0024 -0.0024
                0.0002  0.0069  0.0005 -0.0031  0.0096  0.0067 -0.0057 -0.0063

 Gross Charges per Atom (Z minus electrons)
 ==========================================
            -0.1166   -0.4417   -0.4418
 Net Total: -1.00000000


 Atom-Atom Population Matrix (off-diagonal elements not doubled)
 ===============================================================

     1 :    35.0585
     2 :     0.0290   17.4033
     3 :     0.0290    0.0094   17.4034


 Frag-Frag Population Matrix (off-diagonal elements not doubled)
 ===============================================================

     1 :    52.5198
     2 :     0.0384   17.4034



 =================================================
 H I R S H F E L D   C H A R G E   A N A L Y S I S
 =================================================
  
 For each fragment: the (numerical) integral of rho(scf) * rho(fragment)/rho(sum-of-fragments)
 (nuclear charges are included, electrons are counted negative)

 The fragments and their ordering are defined in the early G E O M E T R Y output section.
 If you use single-atom fragments, this usually implies that all atoms of the same
 chemical type are grouped together. This may not be the order in which you listed them
 in the input file!

    1  BrCl                     -0.4060
    2  Cl                       -0.5940

 Sum of these charges (accuracy NumInt/Tails) =          -1.00000703



 =============================
 V O R O N O I   C H A R G E S
 =============================
  
 For each atom: the (numerical) integral of the total electronic charge density in its Voronoi cell,
 i.e. the region of space that is closer to that atom than to any other atom.
 (cf. Wigner-Seitz cells in crystals)

 Within the Voronoi cell the subintegrals over the atomic sphere and the remaining part are evaluated
 separately to give the numbers of electrons (negative charge) in these regions.
 The net total charge in the cell (including the nuclear charge) is also given.

 Values are provided for
    a) the Initial (sum-of-fragments) density
    b) the Orthogonalized-Fragments density
    c) the SCF density
    d) the Voronoi Deformation Density (VDD): the difference SCF-Initial for the complete atomic cell
 ---------------------------------------------------------------------------------------------------
 Total NetCharge:              -1.000                     -1.000                     -1.000   -0.000
 (accuracy NumInt/Tails)

 Remark: the 'NetTotal' Voronoi charges often do not match the Mulliken and/or Hirshfeld charges very
 well. This is caused by the fact that chemically different atoms are not treated in accordance with
 their relative sizes. (Voronoi cells are defined by boundary planes halfway between the atoms.)
 However, the CHANGES in charge, comparing 'Initial' to 'SCF' for instance, do give a fair indication
 of the flow of charge caused by the relaxation from sum-of-fragments to self-consistency.

 Warning: the absolute accuracy of the VDD charges obtained using the Fuzzy Cells (Becke) integration
 scheme is much poorer than the one obtained with an 'equivalent' Voronoi integration grid. 



 =================================================================
 M U L T I P O L E   D E R I V E D   C H A R G E   A N A L Y S I S
 =================================================================

 This charge analysis uses the atomic multipoles (obtained from the fitted density) up to some level X,
 and reconstructs these multipoles exactly (up to level X) by distributing charges over all atoms.
 This is achieved by using Lagrange multipliers and a weight function to keep the multipoles local.

 Dummy atoms can be included (by setting INCDUM in MDC-block to 1) to obtain a fractional charge.
 This is generally useful and necessary only for small symmetrical molecules, when there are not
 enough degrees of freedom to reconstruct the multipoles.

 Since the atomic multipoles are reconstructed up to level X,
 the molecular multipoles are represented also up to level X.
 The recommended level is to reconstruct up to quadrupole : -> MDC-q charges.

 See: M. Swart, P.Th. van Duijnen, J.G. Snijders, J.Comput.Chem., (2001), p. 79-88.

 ------------------------------------------------------------- 
 Atomic electronic multipole moments from SCF equations (a.u.)
 ------------------------------------------------------------- 

   atom        charge        dip-x     dip-y     dip-z      quad-xx   quad-xy   quad-xz   quad-yy   quad-yz   quad-zz
 --------------------------------------------------------------------------------------------------------------------
    1 Br     0.032793     0.000022 -0.000041  0.000005    -0.466286 -1.162214  0.133287  1.829430 -0.247344 -1.363144
    2 Cl    -0.516372    -0.015861  0.029465 -0.003452    -0.172544 -0.429899  0.049373  0.676802 -0.091643 -0.504259
    3 Cl    -0.516421     0.015859 -0.029460  0.003451    -0.172533 -0.429871  0.049370  0.676758 -0.091637 -0.504226

 --------------------------------------- 
 Multipole derived atomic charges (a.u.)
 --------------------------------------- 

 The MDC-m charges are just the Monopole terms in the multipole expansion, while for the MDC-d charges
 also the Dipoles are reconstructed. The usually preferred charges are the MDC-q charges.
 These reconstruct the Monopoles, Dipoles and Quadrupoles (both atomic AND molecular).

        Atom    Level:     MDC-m        MDC-d        MDC-q
 ---------------------------------------------------------
     1     Br           0.032793     0.037340    -0.054349
     2     Cl          -0.516372    -0.518641    -0.472795
     3     Cl          -0.516421    -0.518699    -0.472855

 ------------------------------------------------ 
 Average absolute deviations in atomic multipoles
 ------------------------------------------------ 

 Stated here are the average differences between the atomic multipoles
 and the reconstructed atomic multipoles (from the distributed charges).
 If these values are not zero, this means there are not enough degrees of freedom,
 to be able to reconstruct the atomic multipoles. (This usually happens only
 for small and/or highly symmetric molecules). If this is the case, one could add
 dummy atoms as extra point charges (and setting INCDUM in MDC-block to 1).

 Level:                                 MDC-d        MDC-q
 ---------------------------------------------------------
 Charge   (a.u.)                       0.0000       0.0000
 Dipole   (Debye)                      0.0001       0.0001
 Quad.    (a.u.)                       0.3650       0.2100

 --------------------------------------- 
 Represented molecular multipole moments
 --------------------------------------- 

 Given here are the Molecular multipole moments from the atomic charges, and from the Fit Density.
 Note that the atomic charges represent the latter, NOT the ones from the Exact density.

            Q (a.u.)             Dipole moment (Debye)                                          Quadrupole moment (a.u.)
                                 x         y         z              xx        xy        xz        yy        yz        zz
------------------------------------------------------------------------------------------------------------------------
MDC-m        -1.0000       23.6567  -14.8888    0.2197        -65.6136   96.1787   -2.8570   -6.1081    3.8217   71.7217
MDC-d        -1.0000       23.6568  -14.8889    0.2198        -65.5968   96.2428   -2.8643   -6.1749    3.8353   71.7717
MDC-q        -1.0000       23.6568  -14.8889    0.2198        -65.9387   94.9644   -2.7178   -4.8333    3.5634   70.7720
 
Fit.Dens.    -1.0000       23.6568  -14.8889    0.2198        -66.3191   94.5528   -2.6708   -3.3405    3.4762   69.6596



 =============
 Dipole Moment  ***  (Debye)  ***
 =============
  
 Vector   :        23.65677349    -14.88891128      0.21975095
 Magnitude:        27.95301239

 This molecular dipole moment is calculated with analytic integration
 ************************************************************************************
 Since the molecule is NOT NEUTRAL, the dipole moment depends on the choice of origin
 ************************************************************************************



 =========================================
 Quadrupole Moment (Buckingham convention)  ***  (a.u.)  ***
 =========================================
  
      quad-xx        quad-xy        quad-xz        quad-yy        quad-yz        quad-zz
    -66.32167752    93.53239903    -2.55381310    -3.33058924     3.25899706    69.65226676

 This molecular quadrupole moment is calculated with analytic integration
1



                                             *************************
                                             *  SFO MO coefficients  *
                                             *************************
  


                                       === A ===
 MOs expanded in CFs+SFOs
 ========================

 The SFOs have been characterized in an earlier part of output.
 To deduce the bonding / antibonding nature of SFO combinations in an MO, consider the products
 of the coefficients AND THE OVERLAP between the SFOs (may be NEGATIVE). The SFO overlap matrix
 is printed later, in the SFO Populations section.

 (The CF coefficients are not printed)

 MOs :      1        2        3        4        5        6        7        8        9       10
 occup:   2.00     2.00     2.00     2.00     2.00     2.00     2.00     2.00     2.00     2.00
 CF+SFO
     1   1.0000   0.0000   0.0000  -0.0000  -0.0000   0.0000  -0.0000   0.0000  -0.0000   0.0000
     2  -0.0000   1.0000  -0.0060   0.0000   0.0000   0.0000   0.0000  -0.0001  -0.0000   0.0000
     3   0.0000  -0.0000  -0.0000   1.0000   0.0007  -0.0000   0.0000  -0.0001   0.0001  -0.0000
     4   0.0000   0.0000   0.0000  -0.0007   1.0000   0.0000  -0.0000   0.0000  -0.0000   0.0000
     5  -0.0000   0.0000   0.0000   0.0000  -0.0000   0.9993   0.0382   0.0000  -0.0000  -0.0000
     6   0.0000  -0.0000  -0.0000  -0.0000   0.0000  -0.0382   0.9993  -0.0000   0.0000   0.0000
     7  -0.0000  -0.0001   0.0000   0.0000   0.0000  -0.0000   0.0000  -0.9449  -0.3274   0.0000
     8   0.0000   0.0000   0.0000   0.0001   0.0000  -0.0000   0.0000   0.0002  -0.0002  -0.9996
     9  -0.0000  -0.0000   0.0000   0.0000   0.0000   0.0000  -0.0000   0.0015   0.0005   0.0000
    10  -0.0000   0.0000  -0.0000   0.0000  -0.0000   0.0000  -0.0000  -0.0000  -0.0000   0.0000
    11   0.0000  -0.0000   0.0000  -0.0000  -0.0000  -0.0000  -0.0000   0.0000   0.0000  -0.0000
    12   0.0000  -0.0000  -0.0000   0.0000  -0.0000   0.0000  -0.0000  -0.0001   0.0001   0.0035
    13  -0.0000   0.0000   0.0000  -0.0000   0.0000  -0.0000   0.0000   0.0000  -0.0000   0.0000
    14  -0.0000  -0.0000  -0.0000  -0.0000   0.0000   0.0000   0.0000  -0.0000   0.0000  -0.0000
    15  -0.0000   0.0000   0.0000   0.0000   0.0000  -0.0000  -0.0000   0.0000  -0.0000   0.0002
    16  -0.0000   0.0000   0.0000   0.0000  -0.0000   0.0000  -0.0000   0.0000  -0.0000   0.0000
    17  -0.0000   0.0000   0.0000   0.0000  -0.0000  -0.0000  -0.0000   0.0000  -0.0000   0.0000
    18  -0.0000   0.0000   0.0000   0.0000  -0.0000  -0.0000  -0.0000   0.0000  -0.0000   0.0000
    19  -0.0000   0.0000   0.0000   0.0000  -0.0000   0.0000   0.0000   0.0000  -0.0000   0.0000
    20  -0.0000   0.0000   0.0000  -0.0000  -0.0000   0.0000  -0.0000   0.0010  -0.0004   0.0012
    21  -0.0000   0.0000   0.0000  -0.0000   0.0000   0.0000  -0.0000   0.0008  -0.0010   0.0021
    22   0.0000  -0.0000  -0.0000  -0.0000  -0.0000  -0.0000   0.0000  -0.0010   0.0007  -0.0017
    23   0.0000  -0.0000  -0.0000   0.0000  -0.0000   0.0000   0.0000  -0.0000   0.0000  -0.0000
    24  -0.0000   0.0000   0.0000   0.0000  -0.0000   0.0000  -0.0000   0.0000  -0.0000   0.0000
    25  -0.0000  -0.0000  -0.0000  -0.0000   0.0000  -0.0000   0.0000  -0.0000   0.0000   0.0000
    26   0.0000  -0.0000  -0.0000  -0.0000   0.0000   0.0000   0.0000  -0.0000   0.0000  -0.0000
    27  -0.0000   0.0000   0.0000   0.0000   0.0000  -0.0000   0.0000   0.0011  -0.0007   0.0019
    28   0.0000  -0.0001  -0.0001  -0.0000  -0.0000   0.0000  -0.0000  -0.0022   0.0014  -0.0031
    29   0.0000  -0.0000  -0.0000  -0.0000   0.0000   0.0000   0.0000  -0.0000   0.0000  -0.0000
    30  -0.0000   0.0000   0.0000  -0.0000   0.0000   0.0000  -0.0000   0.0000  -0.0000   0.0000
    31  -0.0000   0.0000   0.0000   0.0000   0.0000  -0.0000  -0.0000   0.0002  -0.0003   0.0002
    32  -0.0000   0.0000   0.0000   0.0000   0.0000  -0.0000   0.0000   0.0008  -0.0007   0.0015
    33   0.0000  -0.0000  -0.0000  -0.0000  -0.0000   0.0000   0.0000  -0.0000   0.0000  -0.0000
    34  -0.0000   0.0000   0.0000   0.0000  -0.0000   0.0000  -0.0000   0.0000  -0.0000   0.0000
    35  -0.0000   0.0000   0.0000   0.0000  -0.0000   0.0000   0.0000   0.0000  -0.0000   0.0000
    36   0.0000  -0.0000  -0.0000  -0.0000   0.0000  -0.0000  -0.0000  -0.0000   0.0000  -0.0000
    37   0.0000  -0.0000   0.0000   0.0000   0.0000   0.0000   0.0000   0.0000  -0.0000  -0.0000
    38   0.0000  -0.0000  -0.0000   0.0000  -0.0000   0.0000  -0.0000  -0.0000   0.0000  -0.0000
    39   0.0000   0.0000   0.0000   0.0000   0.0000   0.0000  -0.0000   0.0000  -0.0001  -0.0005
    40   0.0000  -0.0000  -0.0000   0.0000  -0.0000  -0.0000   0.0000   0.0001   0.0001   0.0001
    41   0.0000  -0.0000  -0.0000   0.0000  -0.0000  -0.0000   0.0000   0.0000   0.0000  -0.0000
    42  -0.0000   0.0000   0.0000   0.0000  -0.0000   0.0000   0.0000   0.0000  -0.0000   0.0000
    43  -0.0000   0.0000  -0.0000   0.0000  -0.0000   0.0000  -0.0000  -0.0000   0.0000   0.0000
    44   0.0000  -0.0000  -0.0000  -0.0000   0.0000   0.0000   0.0000  -0.0000  -0.0000  -0.0000
    45  -0.0000   0.0000  -0.0000   0.0000  -0.0000  -0.0000   0.0000   0.0000   0.0001   0.0005
    46  -0.0000   0.0000  -0.0000  -0.0000   0.0000  -0.0000   0.0000   0.0000  -0.0000   0.0000
    47  -0.0000   0.0000  -0.0000  -0.0000   0.0000   0.0000   0.0000   0.0000   0.0000   0.0000
    48   0.0000  -0.0000   0.0000   0.0000  -0.0000   0.0000   0.0000  -0.0000  -0.0000  -0.0000
    49   0.0000  -0.0000  -0.0000   0.0000  -0.0000  -0.0000  -0.0000  -0.0000  -0.0000  -0.0000
    50  -0.0000   0.0000  -0.0000  -0.0000   0.0000  -0.0000  -0.0000   0.0000   0.0000   0.0000
    51   0.0000  -0.0000   0.0000  -0.0000   0.0000  -0.0000   0.0000  -0.0000  -0.0000  -0.0000
    52   0.0000  -0.0000   0.0000   0.0000  -0.0000  -0.0000   0.0000  -0.0003  -0.0001  -0.0003
    53  -0.0000   0.0000  -0.0000   0.0000  -0.0000  -0.0000  -0.0000   0.0000   0.0000  -0.0000
    54  -0.0000   0.0000   0.0000   0.0000  -0.0000   0.0000  -0.0000   0.0000  -0.0000  -0.0000
    55  -0.0000   0.0000   0.0000   0.0000  -0.0000  -0.0000  -0.0000  -0.0000  -0.0000   0.0000
    56   0.0000   0.0000  -0.0000   0.0000  -0.0000  -0.0000   0.0000  -0.0000   0.0000  -0.0000
    57  -0.0000   0.0000   0.0000  -0.0000   0.0000  -0.0000   0.0000   0.0001   0.0000   0.0004
    58  -0.0000   0.0000   0.0000  -0.0000   0.0000  -0.0000  -0.0000   0.0000   0.0000   0.0000
    59   0.0000  -0.0000  -0.0000   0.0000  -0.0000   0.0000   0.0000  -0.0000  -0.0000  -0.0000
    60   0.0000  -0.0000   0.0000   0.0000  -0.0000   0.0000   0.0000  -0.0002  -0.0001  -0.0003
    61   0.0000  -0.0000   0.0000   0.0000  -0.0000   0.0000  -0.0000  -0.0000  -0.0000  -0.0000
    62  -0.0000   0.0000  -0.0000  -0.0000   0.0000   0.0000   0.0000   0.0000   0.0000   0.0000
    63  -0.0000   0.0000   0.0000  -0.0000   0.0000   0.0000  -0.0000   0.0007   0.0001   0.0002
    64   0.0000  -0.0000  -0.0000   0.0000  -0.0000   0.0000  -0.0000  -0.0000  -0.0000  -0.0000
    65  -0.0000   0.0000   0.0000   0.0000   0.0000  -0.0000  -0.0000   0.0000   0.0000   0.0000
    66   0.0000  -0.0000  -0.0000   0.0000   0.0000  -0.0000  -0.0000  -0.0002   0.0000  -0.0001
    67   0.0000   0.0000   0.0000   0.0000   0.0000  -0.0000  -0.0000   0.0000   0.0000  -0.0000
    68  -0.0000  -0.0000  -0.0000  -0.0000  -0.0000   0.0000   0.0000  -0.0000  -0.0000   0.0000
    69  -0.0000  -0.0000  -0.0000  -0.0000  -0.0000   0.0000   0.0000  -0.0003  -0.0000   0.0004
    70  -0.0000  -0.0000  -0.0000   0.0000  -0.0000   0.0000  -0.0000  -0.0000  -0.0000  -0.0000
    71  -0.0000  -0.0000  -0.0000  -0.0000  -0.0000  -0.0000  -0.0000  -0.0000  -0.0000   0.0000
    72   0.0000  -0.0000  -0.0000   0.0000  -0.0000  -0.0000   0.0000  -0.0001  -0.0000  -0.0003
    73  -0.0000   0.0000   0.0000  -0.0000  -0.0000  -0.0000  -0.0000   0.0000  -0.0000   0.0000
    74   0.0000  -0.0000  -0.0000   0.0000  -0.0000  -0.0000   0.0000  -0.0000   0.0000  -0.0000
    75   0.0000  -0.0000  -0.0000   0.0000   0.0000   0.0000  -0.0000  -0.0000   0.0001  -0.0000
    76   0.0000  -0.0001   0.0000   0.0000   0.0000  -0.0000   0.0000  -0.0002  -0.0001   0.0001
    77  -0.0000  -0.0000  -0.0000  -0.0001  -0.0000   0.0000  -0.0000  -0.0000  -0.0000  -0.0001
    78  -0.0000  -0.0000   0.0000  -0.0000   0.0000   0.0000  -0.0000  -0.0000  -0.0000   0.0000
    79   0.0000  -0.0000   0.0000   0.0000   0.0000   0.0000   0.0000  -0.0000  -0.0000  -0.0000
    80  -0.0000  -0.0000   0.0000  -0.0000   0.0000   0.0000  -0.0000  -0.0000  -0.0000  -0.0000
    81  -0.0000  -0.0000  -0.0000  -0.0000   0.0000  -0.0000   0.0000  -0.0000  -0.0000   0.0000
    82  -0.0000  -0.0000   0.0000  -0.0000   0.0000   0.0000   0.0000   0.0000  -0.0000   0.0000
    83   0.0000   0.0000  -0.0000  -0.0000   0.0000  -0.0000   0.0000  -0.0000   0.0000  -0.0000
    84   0.0000  -0.0000  -0.0000   0.0000  -0.0000  -0.0000  -0.0000   0.0000  -0.0000  -0.0000
    85  -0.0000   0.0000   0.0000  -0.0000   0.0000   0.0000  -0.0000   0.0000  -0.0000  -0.0001
    86   0.0000  -0.0000   0.0000   0.0000  -0.0000  -0.0000  -0.0001   0.0000   0.0000  -0.0000
    87   0.0000  -0.0000   0.0000   0.0000  -0.0000   0.0001  -0.0000   0.0000  -0.0000   0.0000
    88   0.0000  -0.0000   0.0000   0.0000  -0.0001  -0.0000   0.0000   0.0000  -0.0000  -0.0000
    89   0.0000  -0.0001  -0.0000   0.0000   0.0000   0.0000  -0.0000   0.0000   0.0000  -0.0000
    90   0.0001   0.0000  -0.0000   0.0000   0.0000   0.0000   0.0000  -0.0000   0.0000   0.0000
    91   0.0000  -0.0060  -1.0000  -0.0000  -0.0000   0.0000  -0.0000  -0.0000  -0.0000  -0.0001
    92   0.0000  -0.0000   0.0000  -0.0000  -0.0000   0.0000  -0.0000   0.3270  -0.9447  -0.0005
    93   0.0000  -0.0000  -0.0000  -0.0000  -0.0000  -0.0000  -0.0000   0.0001  -0.0004  -0.0000
    94  -0.0000   0.0000   0.0000   0.0000   0.0000  -0.0000  -0.0000  -0.0005   0.0015   0.0001
    95   0.0000  -0.0000  -0.0000  -0.0000  -0.0000  -0.0000   0.0000   0.0005  -0.0016  -0.0002
    96   0.0000  -0.0001  -0.0001  -0.0000  -0.0000   0.0000  -0.0000  -0.0020   0.0017  -0.0027
    97   0.0000  -0.0000  -0.0000  -0.0000  -0.0000   0.0000   0.0000  -0.0011   0.0007  -0.0028
    98  -0.0000   0.0000   0.0000   0.0000   0.0000   0.0000  -0.0000   0.0003  -0.0002   0.0008
    99   0.0000  -0.0000  -0.0000  -0.0000  -0.0000  -0.0000  -0.0000  -0.0001   0.0001  -0.0003
   100  -0.0000   0.0001   0.0001   0.0000   0.0000  -0.0000   0.0000   0.0017  -0.0008   0.0025
   101   0.0000  -0.0000  -0.0000  -0.0000  -0.0000  -0.0000   0.0000  -0.0010   0.0008  -0.0019
   102   0.0000  -0.0000  -0.0000  -0.0000  -0.0000  -0.0000  -0.0000  -0.0001   0.0001  -0.0002
   103  -0.0000   0.0000   0.0000   0.0000   0.0000  -0.0000   0.0000   0.0002  -0.0002   0.0004
   104  -0.0000   0.0000   0.0000  -0.0000  -0.0000   0.0000  -0.0000   0.0000   0.0001   0.0005
   105   0.0000  -0.0000  -0.0000   0.0000   0.0000   0.0000   0.0000  -0.0000  -0.0000  -0.0001
   106  -0.0000   0.0000   0.0000  -0.0000  -0.0000  -0.0000  -0.0000   0.0000   0.0001   0.0005
   107   0.0000  -0.0000  -0.0000   0.0000   0.0000   0.0000  -0.0000  -0.0000  -0.0000  -0.0000
   108   0.0000  -0.0000  -0.0000   0.0000   0.0000   0.0000  -0.0000  -0.0000  -0.0000  -0.0001
   109   0.0000  -0.0000  -0.0000  -0.0000  -0.0000  -0.0000  -0.0000  -0.0001   0.0000  -0.0002
   110   0.0000  -0.0000  -0.0000  -0.0000  -0.0000   0.0000   0.0000  -0.0000   0.0000  -0.0001
   111   0.0000  -0.0000  -0.0000  -0.0000  -0.0000   0.0000  -0.0000  -0.0000   0.0000  -0.0000
   112   0.0000  -0.0000  -0.0000  -0.0000  -0.0000  -0.0000   0.0000  -0.0000   0.0000  -0.0000
   113   0.0000  -0.0000  -0.0000  -0.0000  -0.0000   0.0000   0.0000  -0.0000   0.0000  -0.0001
   114  -0.0000   0.0000   0.0000   0.0000   0.0000  -0.0000   0.0000   0.0000  -0.0000   0.0000
   115  -0.0000   0.0000   0.0000   0.0000   0.0000   0.0000   0.0000   0.0000  -0.0000   0.0001
   116  -0.0000   0.0000   0.0000   0.0000  -0.0000   0.0000  -0.0000   0.0004  -0.0009   0.0000
   117   0.0000  -0.0000  -0.0000   0.0000   0.0000  -0.0000   0.0000  -0.0000  -0.0000  -0.0002
   118   0.0000  -0.0000  -0.0000   0.0000   0.0000   0.0000   0.0000  -0.0000  -0.0000  -0.0001
   119   0.0000  -0.0000  -0.0000   0.0000   0.0000   0.0000  -0.0000  -0.0000  -0.0000  -0.0001
   120   0.0000  -0.0000   0.0001  -0.0000  -0.0000  -0.0000   0.0000   0.0000  -0.0003  -0.0001
   121  -0.0000   0.0000   0.0000   0.0000   0.0000   0.0000  -0.0000   0.0000  -0.0000   0.0000
   122  -0.0000   0.0000   0.0000   0.0000   0.0000  -0.0000   0.0000   0.0000  -0.0001   0.0000
   123   0.0000  -0.0000  -0.0000  -0.0000  -0.0000  -0.0000  -0.0000  -0.0000   0.0000  -0.0000
   124  -0.0000   0.0000   0.0001   0.0000   0.0000   0.0000  -0.0000  -0.0000   0.0000   0.0000

 MOs :     11       12       13       14       15       16       17       18       19       20
 occup:   2.00     2.00     2.00     2.00     2.00     2.00     2.00     2.00     2.00     2.00
 CF+SFO
     1  -0.0000  -0.0000   0.0000   0.0000  -0.0000  -0.0000   0.0000  -0.0000  -0.0000   0.0000
     2  -0.0000  -0.0000  -0.0000   0.0000  -0.0000  -0.0000   0.0000   0.0000  -0.0000   0.0000
     3   0.0000   0.0000  -0.0000  -0.0000   0.0000   0.0000   0.0000  -0.0000   0.0000  -0.0000
     4  -0.0000   0.0000   0.0000   0.0000  -0.0000   0.0000  -0.0000   0.0000  -0.0000   0.0000
     5  -0.0000   0.0000  -0.0000   0.0000   0.0000  -0.0000   0.0000  -0.0000  -0.0000  -0.0000
     6  -0.0000  -0.0000   0.0000   0.0000  -0.0000  -0.0000  -0.0000   0.0000  -0.0000  -0.0000
     7  -0.0016  -0.0000  -0.0000   0.0000  -0.0000   0.0000   0.0000   0.0000   0.0000  -0.0000
     8  -0.0000  -0.0000   0.0000   0.0000  -0.0000  -0.0000  -0.0037  -0.0000  -0.0000  -0.0001
     9  -1.0000  -0.0024   0.0000  -0.0000   0.0000  -0.0000  -0.0000  -0.0000   0.0000   0.0000
    10   0.0000   0.0000   1.0000  -0.0032   0.0089  -0.0000   0.0000  -0.0000  -0.0000   0.0000
    11  -0.0000  -0.0000   0.0032   1.0000   0.0000   0.0089   0.0000  -0.0000   0.0000   0.0000
    12   0.0000  -0.0000  -0.0000  -0.0000   0.0000  -0.0000  -1.0000   0.0000   0.0000  -0.0016
    13   0.0000   0.0000   0.0000   0.0000  -0.0000  -0.0000  -0.0000  -0.9999  -0.0130   0.0000
    14   0.0000  -0.0000  -0.0000   0.0000   0.0000  -0.0000   0.0000  -0.0130   0.9999  -0.0000
    15  -0.0000   0.0000   0.0000   0.0000  -0.0000   0.0000   0.0016  -0.0000  -0.0000  -1.0000
    16  -0.0000   0.0000  -0.0000   0.0000  -0.0000   0.0000   0.0000   0.0016   0.0001   0.0002
    17  -0.0000   0.0000  -0.0000  -0.0000  -0.0000  -0.0000  -0.0000   0.0001  -0.0016   0.0000
    18  -0.0000   0.0000   0.0000  -0.0000  -0.0000   0.0000  -0.0000  -0.0000  -0.0000   0.0000
    19  -0.0000   0.0000   0.0000   0.0000   0.0000  -0.0000  -0.0000   0.0000   0.0000   0.0001
    20  -0.0000   0.0001   0.0000  -0.0000  -0.0000   0.0000   0.0002  -0.0000   0.0000   0.0005
    21   0.0000   0.0002   0.0000   0.0000  -0.0000   0.0000   0.0002  -0.0000   0.0000   0.0007
[...]

 column         109                   110                   111                   112
 row
  109    1.00000000000000E+00
  110    2.67051250591135E-16  1.00000000000000E+00
  111   -4.74746458953911E-16  5.01318820532093E-16  9.99999999999999E-01
  112    3.63618307151491E-17  6.67404953975752E-16 -6.86649144663495E-17  9.99999999999997E-01
  113    6.10152811721016E-16  7.41032415277202E-17  2.02851379316369E-16  4.60425954321527E-15
  114    1.90287175827985E-16 -1.01351047361250E-16 -2.95347822593299E-16 -6.59838962868940E-16
  115   -3.12435884709952E-16 -4.37037673799060E-16 -8.02991163104986E-17 -1.71582605511828E-16
  116   -1.25469762279006E-15  6.79486124518255E-16 -6.67002367653164E-16  4.90808212028380E-17
  117   -4.41874684561114E-15 -7.07691792266232E-17  4.60127090492053E-16  2.42487480409218E-16
  118   -4.35663455486369E-16  5.17630304396575E-16  1.84675241754013E-16  7.51732608614229E-17
  119    2.04889646644290E-16 -7.54262696027678E-16  2.19687120326920E-16 -7.04567848729974E-16
  120    2.54486919716937E-16  3.88260633021821E-16  9.76617275306735E-17  1.22419885156541E-16
  121   -2.25055118838251E-16 -3.51741363366324E-16  2.45137330340474E-16  2.06925477098126E-16
  122    4.78492882370895E-16  5.14205856069945E-16 -1.13810801099326E-16 -2.51971125984473E-18
  123    5.30866570625963E-16 -5.37767751711383E-16 -1.20856823991545E-16  5.26501138178104E-17
  124    3.68249267884702E-16  2.65195851389954E-16 -1.87248491451825E-16 -3.33663218582414E-17

 column         113                   114                   115                   116
 row
  113    9.99999999999999E-01
  114   -5.10007629911107E-16  9.99999999999998E-01
  115    8.39485178936383E-16  9.36779625867373E-16  9.99999999999998E-01
  116   -2.56879152518220E-17  7.52845159920668E-16  5.23182711244946E-16  1.00000000000000E+00
  117    1.67108271427604E-16 -9.61770759739947E-16 -1.80120920958917E-16 -5.42760077875716E-16
  118    4.74237825595252E-16 -7.50421745719014E-16  1.32980376952530E-15  1.02798459577624E-16
  119    2.28085551260620E-16 -8.89528414855759E-16 -3.54990449403093E-16  4.22633441779638E-16
  120   -1.79521592209175E-16  1.04233827051662E-15 -4.44045587653279E-16 -1.15558883873068E-14
  121    2.23143061073832E-16  3.25971630025753E-17  3.54376006409199E-16 -1.09620886451283E-16
  122   -7.74485634113154E-17  1.00783797999152E-15 -7.21853706688291E-16 -9.05541324569418E-16
  123   -7.02738591744872E-16  1.11293842696560E-19 -2.35431404791014E-16  1.83790585323777E-16
  124    2.62471793431585E-16 -2.25405631659736E-16 -6.95488588595139E-16  7.12060618801580E-15

 column         117                   118                   119                   120
 row
  117    1.00000000000000E+00
  118    3.47793422208510E-16  1.00000000000000E+00
  119    3.00403199359053E-16  1.01848363896512E-15  9.99999999999999E-01
  120   -5.86125623676294E-16 -1.10641984669198E-16 -2.60182475133393E-16  1.00000000000003E+00
  121    7.71740188572866E-16  1.58424860229267E-15  7.23828828702610E-16  1.72996315081324E-16
  122    1.13517153305358E-15 -4.08664174413520E-16  1.68957979626171E-16  1.80880497754367E-16
  123   -2.72864040661448E-16 -2.30566391649120E-16  9.55559043621258E-18  1.74225465766908E-16
  124    6.76542155630955E-17  1.01806583996389E-16  2.46222313371458E-16 -2.81194338647150E-14

 column         121                   122                   123                   124
 row
  121    1.00000000000000E+00
  122   -5.24465013247970E-16  1.00000000000000E+00
  123   -1.70559348352514E-16  1.46994574122544E-16  1.00000000000000E+00
  124    2.43403387722996E-16  2.84060969191202E-17 -1.02348685082632E-16  1.00000000000004E+00


 SFO contributions (%) per orbital
 (multiplication by the orbital occupation yields the SFO Gross Populations)

 Orb.:       26     27     28     29     30     31     32     33     34     35     36     37     38     39
 occup:     2.00   2.00   2.00   2.00   2.00   2.00   2.00   2.00   2.00   2.00   0.00   0.00   0.00   0.00
 CF+SFO     ----   ----   ----   ----   ----   ----   ----   ----   ----   ----   ----   ----   ----   ----
 ------
     20:   35.25   0.19   0.10  -0.00  -0.00   0.05   0.00   0.00   0.00   0.00   0.10   0.13   0.00   0.00
     21:   15.25  72.72   0.48  -0.00   0.00   0.57   0.00   0.00   0.00   0.00   0.17  -0.15  -0.00  -0.00
     22:    0.49   0.14  69.54  -0.00   0.00  27.80   0.00   0.00   0.00   0.00   1.76   0.22   0.00   0.00
     23:    0.00   0.00   0.00  62.17   6.48   0.00  22.75   8.49  -0.00  -0.00  -0.00   0.00   0.04   0.01
     24:    0.00   0.00   0.00   6.48  62.17   0.00   8.49  22.75  -0.00  -0.00  -0.00   0.00   0.01   0.04
     25:    0.00   0.00   0.00   9.66   0.00   0.00  17.71   1.20  71.23   0.07  -0.00   0.00   0.00   0.00
     26:    0.00   0.00   0.00   0.00   9.66   0.00   1.20  17.71   0.07  71.23  -0.00  -0.00   0.00   0.00
     27:    0.57   0.10   2.76   0.00   0.00  23.80   0.00   0.00  -0.00  -0.00  73.88  -0.50  -0.00  -0.00
     28:    0.10  -0.15   0.04  -0.00  -0.00  -0.19  -0.00  -0.00  -0.00   0.00  -1.32  89.89   0.00   0.00
     29:    0.00   0.00   0.00   0.16   0.02   0.00  -0.13  -0.06  -0.10  -0.02  -0.00   0.00  74.44  21.02
     30:    0.00   0.00   0.00   0.02   0.16   0.00  -0.06  -0.13  -0.02  -0.10  -0.00   0.00  21.02  74.44
     31:    0.01   0.01   0.15   0.00   0.00   0.06   0.00   0.00  -0.00  -0.00   0.34   1.24   0.00   0.00
     32:   -0.10   0.04   0.01  -0.00  -0.00  -0.17   0.00   0.00  -0.00  -0.00   0.09   5.44   0.00   0.00
     96:   48.29  26.24   1.18   0.00  -0.00  -0.00   0.00   0.00  -0.00   0.00   0.65  -1.02  -0.00  -0.00
     97:    0.07   0.63  23.52   1.67   0.20  42.50   3.03   1.23   2.16   0.28  22.63  -1.09  -0.04  -0.01
     98:    0.01   0.05   1.90  19.84   0.11   3.44  44.47   1.17  26.05   0.10   1.83  -0.09  -0.47  -0.00
     99:    0.00   0.01   0.32   0.04  21.24   0.58   1.79  46.88   0.03  27.86   0.31  -0.01  -0.00  -0.50
    100:   -0.01   0.07  -0.15  -0.00  -0.00   0.10   0.00   0.00  -0.00  -0.00  -0.84  -6.29  -0.00  -0.00
    101:   -0.00  -0.18  -0.28  -0.01  -0.00   0.68   0.01   0.00   0.01   0.00  -0.72   9.65   0.18   0.03
    102:   -0.00  -0.00  -0.00  -0.00  -0.33   0.01   0.01   0.11   0.00   0.33  -0.01   0.15   0.10   4.03
    103:   -0.00  -0.01  -0.01  -0.32  -0.00   0.03   0.11   0.01   0.33   0.00  -0.03   0.38   3.90   0.12


 Summation over all MOs, multiplied by occupation: Total SFO Gross Populations in this Irrep
 ===========================================================================================

     2.00    2.00    2.00    2.00    2.00    2.00    2.00    2.00    2.00    2.00    2.00    2.00
     2.00    2.00    2.00    2.00    2.00    2.00    2.00    2.00    2.00    1.97    2.00    2.00
     2.00    2.00    0.55   -0.00   -0.00   -0.00    0.00   -0.00    0.01    0.01    0.00    0.00
     0.00    0.00    0.02    0.00    0.00    0.00    0.00    0.00    0.00    0.00    0.00    0.00
     0.00    0.00    0.00    0.00    0.00    0.00    0.00    0.00   -0.00    0.00    0.00   -0.00
     0.00    0.00    0.00    0.00    0.00   -0.00    0.00    0.00    0.00   -0.00   -0.00   -0.00
    -0.00   -0.00   -0.00    0.00    0.00    0.00    0.00   -0.00    0.00    0.00   -0.00   -0.00
    -0.00    0.00    0.00    0.00    0.00   -0.00    2.00    2.00    2.00    2.00    2.00    1.98
     1.52    1.94    1.98   -0.00   -0.00    0.00    0.00    0.01    0.00    0.01    0.00    0.00
     0.00    0.00    0.00    0.00    0.00    0.00    0.00    0.00    0.00    0.00    0.00    0.00
    -0.00   -0.00   -0.00    0.00



 List of all MOs, ordered by energy, with the most significant SFO gross populations
 ===================================================================================

 Each percentage contribution in the table below corresponds to the indicated SFO.
 In general, a SFO may be a linear combination of several Fragment Orbitals on the same,
 or on symmetry-related Fragments. Only the first 'member' of such a combination is
 specified here. A full definition of all SFOs is given in an earlier part of the output.
 The numbering of the SFOs in this table does NOT include the Core Orbitals, and starts
 from one for each symmetry representation, as in the SFO definition list earlier.

       E(eV)  Occ       MO           %     SFO (first member)   E(eV)  Occ   Fragment
 -------------------------------------------------------------------------------------

     -15.582  2.00    25 A         64.43%    20 A             -20.959  2.00     1 BrCl
                                   23.29%     6 A             -10.473  2.00     2 Cl
                                   11.12%    21 A             -19.267  2.00     1 BrCl
     -14.672  2.00    26 A         48.29%     6 A             -10.473  2.00     2 Cl
                                   35.25%    20 A             -20.959  2.00     1 BrCl
                                   15.25%    21 A             -19.267  2.00     1 BrCl
     -13.457  2.00    27 A         72.72%    21 A             -19.267  2.00     1 BrCl
                                   26.24%     6 A             -10.473  2.00     2 Cl
      -5.576  2.00    28 A         69.54%    22 A             -10.511  2.00     1 BrCl
                                   23.52%     7 A               0.909  2.00     2 Cl
                                    2.76%    27 A              -6.328  0.00     1 BrCl
                                    1.90%     8 A               0.909  2.00     2 Cl
                                    1.18%     6 A             -10.473  2.00     2 Cl
      -3.575  2.00    29 A         62.17%    23 A              -8.653  2.00     1 BrCl
                                   19.84%     8 A               0.909  2.00     2 Cl
                                    9.66%    25 A              -7.464  2.00     1 BrCl
                                    6.48%    24 A              -8.653  2.00     1 BrCl
                                    1.67%     7 A               0.909  2.00     2 Cl
      -3.575  2.00    30 A         62.17%    24 A              -8.653  2.00     1 BrCl
                                   21.24%     9 A               0.909  2.00     2 Cl
                                    9.66%    26 A              -7.464  2.00     1 BrCl
                                    6.48%    23 A              -8.653  2.00     1 BrCl
      -2.804  2.00    31 A         42.50%     7 A               0.909  2.00     2 Cl
                                   27.80%    22 A             -10.511  2.00     1 BrCl
                                   23.80%    27 A              -6.328  0.00     1 BrCl
                                    3.44%     8 A               0.909  2.00     2 Cl
      -2.722  2.00    32 A         44.47%     8 A               0.909  2.00     2 Cl
                                   22.75%    23 A              -8.653  2.00     1 BrCl
                                   17.71%    25 A              -7.464  2.00     1 BrCl
                                    8.49%    24 A              -8.653  2.00     1 BrCl
                                    3.03%     7 A               0.909  2.00     2 Cl
                                    1.79%     9 A               0.909  2.00     2 Cl
                                    1.20%    26 A              -7.464  2.00     1 BrCl
      -2.722  2.00    33 A         46.88%     9 A               0.909  2.00     2 Cl
                                   22.75%    24 A              -8.653  2.00     1 BrCl
                                   17.71%    26 A              -7.464  2.00     1 BrCl
                                    8.49%    23 A              -8.653  2.00     1 BrCl
                                    1.23%     7 A               0.909  2.00     2 Cl
                                    1.20%    25 A              -7.464  2.00     1 BrCl
                                    1.17%     8 A               0.909  2.00     2 Cl
      -1.883  2.00    34 A         71.23%    25 A              -7.464  2.00     1 BrCl
                                   26.05%     8 A               0.909  2.00     2 Cl
                                    2.16%     7 A               0.909  2.00     2 Cl
      -1.883  2.00    35 A         71.23%    26 A              -7.464  2.00     1 BrCl
                                   27.86%     9 A               0.909  2.00     2 Cl
       0.568  0.00    36 A         73.88%    27 A              -6.328  0.00     1 BrCl
                                   22.63%     7 A               0.909  2.00     2 Cl
                                    1.83%     8 A               0.909  2.00     2 Cl
                                    1.76%    22 A             -10.511  2.00     1 BrCl
                                   -1.32%    28 A               2.943  0.00     1 BrCl



 =======================================================================
 Electrostatic potential at the Nuclei due to electrons and other nuclei
 =======================================================================
  
         Atom                  Potential
         ----                  ---------
     1)   Br                176.10267580
     2)   Cl                 64.62284513
     3)   Cl                 64.62286142
 
 
 ========================
 No memory problems found
 ========================
 
 Maximum number of active allocate calls:         652
 
 *******************************************************************************

                             A D F   E X I T
 NORMAL TERMINATION



 =================
 Timing Statistics
 =================
  
 Total Used :                     CPU=        6.46      System=        0.20     Elapsed=        7.00

 Calls  Section                     ( Mean, Percentage )
 ---------------------------------------------------------------------------------------------------
     3  ><      ................      0.00    0.03             0.00    0.00             0.00    0.02
     1  INIT    ................      0.42    6.58             0.02   10.40             0.45    6.42
     1  GEOMET  ................      0.03    0.46             0.01    4.46             0.28    3.99
     1  FRAGM   ................      0.01    0.20             0.00    1.98             0.02    0.32
     1  INPUTA  ................      0.00    0.00             0.00    0.00             0.00    0.01
     1  ATDEN   ................      0.01    0.09             0.00    0.00             0.01    0.10
     1  MAINSY  ................      0.01    0.12             0.00    1.48             0.01    0.20
     1  SYMFIT  ................      0.00    0.02             0.00    0.50             0.00    0.03
     1  CORORT  ................      0.00    0.02             0.00    0.00             0.00    0.01
     1  SYMORB  ................      0.00    0.05             0.00    0.00             0.00    0.05
     1  CLSMAT  ................      0.01    0.12             0.00    0.00             0.01    0.11
     1  ORTHON  ................      0.02    0.25             0.00    0.50             0.02    0.25
     1  GENPT   ................      0.13    2.00             0.00    1.98             0.13    1.91
     1  PTBAS   ................      0.04    0.62             0.00    0.99             0.04    0.60
    17  FOCKY   ................      0.13   33.26             0.00    9.90             0.13   31.06
    17  FOCKTR  ................      0.00    0.54             0.00    0.00             0.00    0.54
    17  SDIIS   ................      0.00    0.93             0.00    2.97             0.00    0.97
     1  COREPS  ................      0.10    1.59             0.00    0.00             0.10    1.50
     1  TOTEN   ................      0.34    5.34             0.01    2.97             0.35    5.04
     1  POPAN   ................      0.00    0.06             0.00    0.00             0.01    0.14
     1  DEBYE   ................      0.00    0.06             0.00    0.00             0.00    0.05
     1  INPUTE  ................      0.00    0.00             0.00    0.00             0.00    0.02
     1  SYMORE  ................      0.00    0.02             0.00    0.00             0.00    0.02
     1  METS    ................      0.00    0.02             0.00    0.00             0.00    0.01
     1  CETS    ................      0.02    0.25             0.00    0.99             0.03    0.43
     1  POPUL   ................      3.03   46.97             0.12   58.91             3.20   45.76
     1  EXIT PROCEDURE .........      0.03    0.40             0.00    1.98             0.03    0.45


 Currently Open Files (EXIT00)
 ====================

 Unit    Access Format  Status   Type       Ident (file)
 -------------------------------------------------------
   3      SEQ    FORM   TRANSP  NORMAL      LOGFILE
                                          ( logfile )


 Buffered I/O statistics
 =======================
 Memory available:                     67108864
 Number of records fitting in memory:     16131
 Input :   1.2% of                        57595  *4k bytes
 Output:  13.5% of                         4449  *4k bytes
 Records from serial files evicted:           0
                    others evicted:           0
 Hash table lookups:     164457 with          0 conflicts (  0.00%)

 ***************************************************************************************************
 (LOGFILE)
 <May09-2019> <17:12:04>  ADF 2017  RunTime: May09-2019 17:12:04  Nodes: 1  Procs: 12
 <May09-2019> <17:12:04>  *** (NO TITLE) ***
 <May09-2019> <17:12:04>  RunType   : SINGLE POINT
 <May09-2019> <17:12:05>  Net Charge: -1 (Nuclei minus Electrons)
 <May09-2019> <17:12:05>  Symmetry  : NOSYM
 <May09-2019> <17:12:05>  >>>> FRAGM
  Coordinates
    Atom         X           Y           Z   (Angstrom)
    1.Br       -4.925107    3.099603   -0.045730
    2.Cl       -3.740832    0.901853    0.206108
    3.Cl       -6.109442    5.297463   -0.297580
 <May09-2019> <17:12:05>  >>>> CORORT
 <May09-2019> <17:12:05>  >>>> CLSMAT
 <May09-2019> <17:12:05>  >>>> ORTHON
 <May09-2019> <17:12:05>  >>>> GENPT
 <May09-2019> <17:12:05>  Block Length= 128
 <May09-2019> <17:12:05>  >>>> PTBAS
 <May09-2019> <17:12:05>  >>>> CYCLE
 <May09-2019> <17:12:05>              |Error|         MaxErr       Wt(A-DIIS)
 <May09-2019> <17:12:05>      1      1.61442444      0.95830221
 <May09-2019> <17:12:05>      2      0.94789453      0.44672327    100.0
 <May09-2019> <17:12:05>      3      0.62762628      0.31373761    100.0
 <May09-2019> <17:12:05>      4      0.59326416      0.30316621    100.0
 <May09-2019> <17:12:06>      5      1.59691470      0.55188314    100.0
 <May09-2019> <17:12:06>      6      0.52155817      0.17045373    100.0
 <May09-2019> <17:12:06>      7      0.27364503      0.09997396    100.0
 <May09-2019> <17:12:06>      8      0.44201188      0.15029686    100.0
 <May09-2019> <17:12:06>      9      0.11353959      0.03317805     32.5
 <May09-2019> <17:12:06>     10      0.05336094      0.02392602     23.2
 <May09-2019> <17:12:06>     11      0.01956668      0.00739849      6.5
 <May09-2019> <17:12:06>     12      0.00231781      0.00100186      0.0
 <May09-2019> <17:12:07>     13      0.00015367      0.00004633      0.0
 <May09-2019> <17:12:07>     14      0.00005422      0.00002128      0.0
 <May09-2019> <17:12:07>     15      0.00000670      0.00000149      0.0
 <May09-2019> <17:12:07>     16      0.00000192      0.00000058      0.0
 <May09-2019> <17:12:07>  SCF converged
 <May09-2019> <17:12:07>     17      0.00000056      0.00000014      0.0
 <May09-2019> <17:12:07>  >>>> TOTEN
 <May09-2019> <17:12:08>  >>>> POPAN
 <May09-2019> <17:12:08>  >>>> DEBYE
 <May09-2019> <17:12:08>  >>>> AMETS
 <May09-2019> <17:12:11>   Bond Energy          -0.09020290 a.u.
 <May09-2019> <17:12:11>   Bond Energy          -2.45454573 eV
 <May09-2019> <17:12:11>   Bond Energy         -56.60       kcal/mol
 <May09-2019> <17:12:11>  >>>> POPUL
 <May09-2019> <17:12:11>  NORMAL TERMINATION
 <May09-2019> <17:12:11>  END
