
Create H   file=TZ2P-H
XC
  GGA BP86
End
End Input

 *******************************************************************************
 *                                                                             *
 *  -------------------------------------                                      *
 *   Amsterdam Density Functional  (ADF)         development version           *
 *  -------------------------------------                                      *
 *                                               r61132 2017-09-08             *
 *                                                                             *
 *                                                                             *
 *                              =================                              *
 *                              |               |                              *
 *                              |     A D F     |                              *
 *                              |               |                              *
 *                              =================                              *
 *                                                                             *
 *                                                                             *
 *   Online information and documentation:  https://www.scm.com/support/       *
 *   E-mail:  support@scm.com   info@scm.com                                   *
 *                                                                             *
 *   Scientific publications using ADF results must be properly referenced     *
 *   See the User Manuals (or the web site) for recommended citations          *
 *   The terms and conditions of the End User License Agreement apply to       *
 *   the use of ADF, https://www.scm.com/license-terms/                        *
 *                                                                             *
 **********************  x86_64_linux_intel / intelmpi  ************************
 
 Licensed to: VU/FEW (+ SARA) / ALGEMEEN / Amsterdam / THE NETHERLANDS
 SCM User ID: u7668
  
 ADF development version  RunTime: Apr18-2019 21:13:54  Nodes: 1  Procs: 1

 Temporary files are created in /local/datastore0/tcst25/186782/kid_0.ZTcJRa

 Hydrogen (TZ2P)



 ===========================
 A T T A C H E D   F I L E S
 ===========================
  
 CREATE - Data File:    TZ2P-H
                        Hydrogen (TZ2P)



 ===============================
 M O D E L   P A R A M E T E R S
 ===============================
  
 DENSITY FUNCTIONAL POTENTIAL (scf)
    LDA:                               VWN                                      
    Gradient Corrections:              Becke88 Perdew86                        == Not Default ==

 SPIN  (restricted / unrestr.)
    Molecule:                          Restricted                               

 OTHER ASPECTS
    Relativistic Corrections:          ---                                      

    Nuclear Charge Density Model:      Point Charge Nuclei                      
    Core Treatment:                    Frozen Orbital(s)                        

    Hyperfine or Zeeman Interaction:   ---                                      



 =====================================
 S Y M M E T R Y ,   E L E C T R O N S
 =====================================
  
 Symmetry: ATOM

 Irreducible Representations, including subspecies
 -------------------------------------------------
 S
 P:x  P:y  P:z
 D:z2  D:x2-y2  D:xy  D:xz  D:yz
 F:z3  F:z  F:xyz  F:z2x  F:z2y  F:x  F:y


 Configuration of Valence Electrons
 ==================================

          Occupation Numbers
          -------------------------------------------------
 S        1
 P        0
 D        0
 F        0
          -------------------------------------------------

 Total:   1

 Net Charge: 0 (Nuclei minus Electrons)

 Preset values for MO occupations will be applied through SCF cycle no. 1000000
 Thereafter, the program will assign electrons to MOs that are spatially
 similar to the occupied MOs in a "reference" cycle ("KeepOrbitals").
 The reference cycle is always the PREVIOUS cycle: it will evolve with
 the SCF procedure.



 ================================
 (Slater-type)  F U N C T I O N S  ***  (Basis and Fit)  ***
 ================================
  

 Atom Type    1  (H)
 ==============

 Valence Basis Sets:   5
 -----------------------
   1 S    0.690000
   1 S    0.920000
   1 S    1.580000
   2 P    1.250000
   3 D    2.500000


 BAS: List of all Elementary Cartesian Basis Functions
 =====================================================

 The numbering in the list below (to the right of the function characteristics) is referred
 to in print-outs of MO eigenvectors and Mulliken populations in the BAS representation
 (as contrasted to the SFO representation).

 Notes:
 1. The functions are characterized by a polynomial prefactor (powers of x,y,z and r) and
    an exponential decay factor alpha.
 2. Since the basis sets are specific for an atom TYPE, the individual functions occur on
    all atoms of that type.
 3. The word 'Core' in the left margin signals that it is a Core Function (CF) : not a
    degree of freedom in the valence set, but only used to ensure orthogonalization of
    the other valence basis functions on the frozen Core Orbitals.


 (power of) X  Y  Z  R     Alpha  on Atom
            ==========     =====     ==========

 H                                    1
                                  ---------------------------------------------------------------------------
            0  0  0  0     0.690      1
            0  0  0  0     0.920      2
            0  0  0  0     1.580      3
            1  0  0  0     1.250      4
            0  1  0  0     1.250      5
            0  0  1  0     1.250      6
            2  0  0  0     2.500      7
            1  1  0  0     2.500      8
            1  0  1  0     2.500      9
            0  2  0  0     2.500     10
            0  1  1  0     2.500     11
            0  0  2  0     2.500     12

 Total number of charge fitting functions (nprimf)        50
 Total number of Cartesian basis functions (naos)         12
 Total number of Cartesian core functions  (ncos)          0



 BAS: List of all Elementary Cartesian Basis Functions
 =====================================================

 The numbering in the list below (to the right of the function characteristics) is referred
 to in print-outs of MO eigenvectors and Mulliken populations in the BAS representation
 (as contrasted to the SFO representation).

 Notes:
 1. The functions are characterized by a polynomial prefactor (powers of x,y,z and r) and
    an exponential decay factor alpha.
 2. Since the basis sets are specific for an atom TYPE, the individual functions occur on
    all atoms of that type.
 3. The word 'Core' in the left margin signals that it is a Core Function (CF) : not a
    degree of freedom in the valence set, but only used to ensure orthogonalization of
    the other valence basis functions on the frozen Core Orbitals.


 (power of) X  Y  Z  R     Alpha  on Atom
            ==========     =====     ==========

 H                                    1
                                  ---------------------------------------------------------------------------
            0  0  0  0     0.690      1
            0  0  0  0     0.920      2
            0  0  0  0     1.580      3
            1  0  0  0     1.250      4
            0  1  0  0     1.250      5
            0  0  1  0     1.250      6
            2  0  0  0     2.500      7
            1  1  0  0     2.500      8
            1  0  1  0     2.500      9
            0  2  0  0     2.500     10
            0  1  1  0     2.500     11
            0  0  2  0     2.500     12
1
 ***************************************************************************************************



                                              ***********************
                                              *  T E C H N I C A L  *
                                              ***********************
  



 =============================================================
 P A R A L L E L I Z A T I O N  and  V E C T O R I Z A T I O N
 =============================================================
  
 Nr of parallel processes:                                1
 Maximum vector length in NumInt loops:                 128

 IO buffersize (Mb):                                     64.000000



 =====================
 S C F   U P D A T E S
 =====================
  
 Max. nr. of cycles:                               300
 Convergence criterion:                              0.0000000100
   secondary criterion:                              0.0000000100

 Mix parameter (when DIIS does not apply):           0.2000000000
 Special mix parameter for the first cycle:          1.0000000000
 Mixed ADIIS+DIIS will be used
    Max number of expansion vectors:                10
    Pure ADIIS when Max([F,P]) is above              0.1000000000
    Pure DIIS when Max([F,P]) is below               0.0010000000
 Automatic ElectronSmearing (in case of problematic SCF convergence) disabled



 =================
 P R E C I S I O N  ***  (General: NumInt, NeglectFunctionTails, ...)  ***
 =================
  

 NumInt:           Target precision:                12.0000000000
 -------           Initial precision:               10.0000000000
                   Min. precision (optimization):   10.0000000000

 Neglect Functions:          Basis functions:        0.1000000000E-13
 ------------------          Fit functions:          0.1000000000E-13



 ===========================
 L I N E A R   S C A L I N G
 ===========================
  

 Cut-off radii density fit:                        0.1000000000E-97
 Overlap cut-off criterion AO matrix elements:     0.1000000000E-97
 Cut-offs for Coulomb potential and fitted density:0.1000000000E-97
 Cut-off criterion for Coulomb multipole terms:    0.1000000000E-97
 Progressive Convergence parameter:                 0.000000000    
1
 ***************************************************************************************************



                                            ***************************
                                            *  C O M P U T A T I O N  *
                                            ***************************
  

 Number of elements of the density matrix on this node (used, total):        78        78



 ===========================================
 Numerical Integration : Fuzzy Cells (Becke)
 ===========================================
  
 Becke grid quality: VERYGOOD       
  
 Lebedev angular grid order:             min:  13 max:  41
 Nr. of radial points:                   min:  64 max:  64

 Total nr. of points:         64
 Nr. of blocks:                1
 Block length:                64
 Nr. of dummy points:          0


 Test of Precision of the Numerical Integration Grid
 ===================================================

 Integral of the Total Core Density:                   0.00000000000000



 ========================
 Density Fitting (zlmFit)
 ========================
  
 ZlmFit Fit Quality: VERYGOOD       
  
 Max L-expansion:                        min:   0 max:   0
 Nr. of radial interpolation points:     min: 130 max: 130



 =====
 S C F  ***  ScaSCF  ***
 =====
  

 CYCLE    1
 SCF Error: norm([F,P])=      0.000000000000, max([F,P])=      0.000000000000
 orbitals (Q,E):
 ---------------
 S :1...3            ( 1.00    -0.5000)  ( 0.00    -0.0900)  ( 0.00     1.2939)
 P :1...1            ( 0.00     0.1562)
 D :1...1            ( 0.00     2.2917)

 CYCLE    2
 SCF Error: norm([F,P])=      0.030526162244, max([F,P])=      0.029682528591
 orbitals (Q,E):
 ---------------
 S :1...2            ( 1.00    -0.2270)  ( 0.00     0.1038)
 P :1...1            ( 0.00     0.4131)
 D :1...1            ( 0.00     2.5768)

 CYCLE    3
  SDIIS (wt  0.000):  0.1733  0.8267
 A-DIIS (wt  1.000):  0.0000  1.0000
  DIIS coefficients:  0.0000  1.0000
 SCF Error: norm([F,P])=      0.007183061946, max([F,P])=      0.006712148192
 orbitals (Q,E):
 ---------------
 S :1...2            ( 1.00    -0.2462)  ( 0.00     0.0917)
 P :1...1            ( 0.00     0.3973)
 D :1...1            ( 0.00     2.5583)

 CYCLE    4
  SDIIS (wt  0.999):  0.1398  0.8602
 A-DIIS (wt  0.001):  0.0000  1.0000
  DIIS coefficients:  0.1396  0.8604
 SCF Error: norm([F,P])=      0.001175086780, max([F,P])=      0.001143060931
 orbitals (Q,E):
 ---------------
 S :1...2            ( 1.00    -0.2434)  ( 0.00     0.0933)
 P :1...1            ( 0.00     0.3996)
 D :1...1            ( 0.00     2.5611)

 CYCLE    5
  SDIIS (wt  1.000):  0.0219  0.9781
  DIIS coefficients:  0.0219  0.9781
 SCF Error: norm([F,P])=      0.000027525369, max([F,P])=      0.000023543474
 orbitals (Q,E):
 ---------------
 S :1...2            ( 1.00    -0.2435)  ( 0.00     0.0932)
 P :1...1            ( 0.00     0.3996)
 D :1...1            ( 0.00     2.5610)

 CYCLE    6
  SDIIS (wt  1.000): -0.0582  1.0582
  DIIS coefficients: -0.0582  1.0582
 SCF Error: norm([F,P])=      0.000001514450, max([F,P])=      0.000001285214
 orbitals (Q,E):
 ---------------
 S :1...2            ( 1.00    -0.2435)  ( 0.00     0.0932)
 P :1...1            ( 0.00     0.3996)
 D :1...1            ( 0.00     2.5610)

 CYCLE    7
  SDIIS (wt  1.000): -0.0031  1.0031
  DIIS coefficients: -0.0031  1.0031
 SCF Error: norm([F,P])=      0.000000004705, max([F,P])=      0.000000004158
 orbitals (Q,E):
 ---------------
 S :1...2            ( 1.00    -0.2435)  ( 0.00     0.0932)
 P :1...1            ( 0.00     0.3996)
 D :1...1            ( 0.00     2.5610)

 SCF CONVERGED

 CYCLE    8
1
 ***************************************************************************************************



                                                *******************
                                                *  R E S U L T S  *
                                                *******************
  
 *** Setting up for NEW gradients in Focky
 *** Using FIT density in Focky

 Orbital Energies, per Irrep and Spin:
 ======================================
                        Occup              E (au)              E (eV)       Diff (eV) with prev. cycle
                        -----      --------------------        ------       --------------------------
 S
               1        1.000     -0.24350452296405E+00        -6.626               4.48E-09
               2        0.000      0.93233330888585E-01         2.537
               3        0.000      0.15154066862623E+01        41.236
 P
               1        0.000      0.39955072057198E+00        10.872
 D
               1        0.000      0.25610214787646E+01        69.689


 Partially Occupied:
               1 S                -0.24350452296405E+00
  
 LUMO :        2 S                 0.93233330888585E-01
  


 Orbital Energies, all Irreps
 ========================================

 Irrep        no.  (spin)   Occup              E (au)                E (eV)
 ---------------------------------------------------------------------------
 S             1             1.00       -0.24350452296405E+00        -6.6261
 S             2             0.00        0.93233330888585E-01         2.5370
 P             1             0.00        0.39955072057198E+00        10.8723
 S             3             0.00        0.15154066862623E+01        41.2363
 D             1             0.00        0.25610214787646E+01        69.6889


 All Electron Calculation, thus no Orbital Energies of the Core Orbitals are calculated



 =======================================
 M U L L I K E N   P O P U L A T I O N S
 =======================================
  
 The survey below gives for each atom:
 a) the total charge (Z minus electrons)
 b) the net spin polarization (nr of electrons spin-A minus spin-B)
 c) for each spin the atomic electron valence density (integrated) per L-value.

 Atom              Charge    Spin density          S         P         D         F
 ----              ------    ------------       ------    ------    ------    ------
 1 H               0.0000                       1.0000    0.0000    0.0000    0.0000

 Populations of individual BAS functions
 ----------------------------------------
 1 H            0.1853  0.7115  0.1032  0.0000  0.0000  0.0000  0.0000  0.0000  0.0000  0.0000
                0.0000  0.0000

 Gross Charges per Atom (Z minus electrons)
 ==========================================
             0.0000
 Net Total:  0.00000000



 =======================================================================
 Electrostatic potential at the Nuclei due to electrons and other nuclei
 =======================================================================
  
         Atom                  Potential
         ----                  ---------
     1)   H                   0.94550094
 
 
 ========================
 No memory problems found
 ========================
 
 Maximum number of active allocate calls:         363
 
 *******************************************************************************

                             A D F   E X I T
 NORMAL TERMINATION



 =================
 Timing Statistics
 =================
  
 Total Used :                     CPU=        0.29      System=        0.03     Elapsed=        0.33

 Calls  Section                     ( Mean, Percentage )
 ---------------------------------------------------------------------------------------------------
     3  ><      ................      0.00    0.00             0.00    0.00             0.00    0.24
     1  INIT    ................      0.01    2.71             0.02   56.67             0.03    8.24
     1  GEOMET  ................      0.01    2.03             0.00   10.00             0.01    2.59
     1  INPUTA  ................      0.00    0.34             0.00    3.33             0.00    0.45
     1  MAINSY  ................      0.00    1.36             0.00    6.67             0.01    1.76
     1  SYMFIT  ................      0.00    0.34             0.00    0.00             0.00    0.25
     1  CORORT  ................      0.00    0.00             0.00    0.00             0.00    0.08
     1  SYMORB  ................      0.00    0.00             0.00    0.00             0.00    0.16
     1  CLSMAT  ................      0.00    1.36             0.00    0.00             0.00    1.21
     1  ORTHON  ................      0.00    0.00             0.00    3.33             0.00    0.38
     1  GENPT   ................      0.01    3.39             0.00    0.00             0.01    3.03
     1  PTBAS   ................      0.00    1.36             0.00    0.00             0.00    1.04
     8  FOCKY   ................      0.03   70.85             0.00   13.33             0.03   63.91
     8  FOCKTR  ................      0.00    1.02             0.00    3.33             0.00    1.66
     8  SDIIS   ................      0.00    3.05             0.00    0.00             0.00    3.62
     1  COREPS  ................      0.02    5.42             0.00    0.00             0.02    4.80
     1  POPAN   ................      0.00    1.02             0.00    0.00             0.00    1.15
     1  DEBYE   ................      0.00    0.34             0.00    0.00             0.00    0.15
     1  EXIT PROCEDURE .........      0.02    5.42             0.00    3.33             0.02    5.30


 Currently Open Files (EXIT00)
 ====================

 Unit    Access Format  Status   Type       Ident (file)
 -------------------------------------------------------
   3      SEQ    FORM   TRANSP  NORMAL      LOGFILE
                                          ( logfile )


 Buffered I/O statistics
 =======================
 Memory available:                     67108864
 Number of records fitting in memory:     16131
 Input :   0.2% of                        17478  *4k bytes
 Output:  15.2% of                         1046  *4k bytes
 Records from serial files evicted:           0
                    others evicted:           0
 Hash table lookups:      44676 with          0 conflicts (  0.00%)

 ***************************************************************************************************
 (LOGFILE)
 <Apr18-2019> <21:13:54>  ADF development version  RunTime: Apr18-2019 21:13:54  Nodes: 1  Procs: 1
 <Apr18-2019> <21:13:54>  Hydrogen (TZ2P)
 <Apr18-2019> <21:13:54>  RunType   : CREATE
 <Apr18-2019> <21:13:55>  Net Charge: 0 (Nuclei minus Electrons)
 <Apr18-2019> <21:13:55>  Symmetry  : ATOM
  Coordinates
    Atom         X           Y           Z   (Angstrom)
    1.H         0.000000    0.000000    0.000000
 <Apr18-2019> <21:13:55>  >>>> CORORT
 <Apr18-2019> <21:13:55>  >>>> CLSMAT
 <Apr18-2019> <21:13:55>  >>>> ORTHON
 <Apr18-2019> <21:13:55>  >>>> GENPT
 <Apr18-2019> <21:13:55>  Block Length=  64
 <Apr18-2019> <21:13:55>  >>>> PTBAS
 <Apr18-2019> <21:13:55>  >>>> CYCLE
 <Apr18-2019> <21:13:55>              |Error|         MaxErr       Wt(A-DIIS)
 <Apr18-2019> <21:13:55>      1      0.00000000      0.00000000
 <Apr18-2019> <21:13:55>      2      0.03052616      0.02968253
 <Apr18-2019> <21:13:55>      3      0.00718306      0.00671215    100.0
 <Apr18-2019> <21:13:55>      4      0.00117509      0.00114306      0.1
 <Apr18-2019> <21:13:55>      5      0.00002753      0.00002354      0.0
 <Apr18-2019> <21:13:55>      6      0.00000151      0.00000129      0.0
 <Apr18-2019> <21:13:55>      7      0.00000000      0.00000000      0.0
 <Apr18-2019> <21:13:55>  SCF converged
 <Apr18-2019> <21:13:55>      8      0.00000000      0.00000000      0.0
 <Apr18-2019> <21:13:55>  >>>> POPAN
 <Apr18-2019> <21:13:55>  >>>> DEBYE
 <Apr18-2019> <21:13:55>  NORMAL TERMINATION
 <Apr18-2019> <21:13:55>  END

Create N   file=TZ2P-N
XC
  GGA BP86
End
End Input

 *******************************************************************************
 *                                                                             *
 *  -------------------------------------                                      *
 *   Amsterdam Density Functional  (ADF)         development version           *
 *  -------------------------------------                                      *
 *                                               r61132 2017-09-08             *
 *                                                                             *
 *                                                                             *
 *                              =================                              *
 *                              |               |                              *
 *                              |     A D F     |                              *
 *                              |               |                              *
 *                              =================                              *
 *                                                                             *
 *                                                                             *
 *   Online information and documentation:  https://www.scm.com/support/       *
 *   E-mail:  support@scm.com   info@scm.com                                   *
 *                                                                             *
 *   Scientific publications using ADF results must be properly referenced     *
 *   See the User Manuals (or the web site) for recommended citations          *
 *   The terms and conditions of the End User License Agreement apply to       *
 *   the use of ADF, https://www.scm.com/license-terms/                        *
 *                                                                             *
 **********************  x86_64_linux_intel / intelmpi  ************************
 
 Licensed to: VU/FEW (+ SARA) / ALGEMEEN / Amsterdam / THE NETHERLANDS
 SCM User ID: u7668
  
 ADF development version  RunTime: Apr18-2019 21:13:55  Nodes: 1  Procs: 1

 Temporary files are created in /local/datastore0/tcst25/186782/kid_0.EdHjxs

 Nitrogen (TZ2P)



 ===========================
 A T T A C H E D   F I L E S
 ===========================
  
 CREATE - Data File:    TZ2P-N
                        Nitrogen (TZ2P)



 ===============================
 M O D E L   P A R A M E T E R S
 ===============================
  
 DENSITY FUNCTIONAL POTENTIAL (scf)
    LDA:                               VWN                                      
    Gradient Corrections:              Becke88 Perdew86                        == Not Default ==

 SPIN  (restricted / unrestr.)
    Molecule:                          Restricted                               

 OTHER ASPECTS
    Relativistic Corrections:          ---                                      

    Nuclear Charge Density Model:      Point Charge Nuclei                      
    Core Treatment:                    Frozen Orbital(s)                        

    Hyperfine or Zeeman Interaction:   ---                                      



 =====================================
 S Y M M E T R Y ,   E L E C T R O N S
 =====================================
  
 Symmetry: ATOM

 Irreducible Representations, including subspecies
 -------------------------------------------------
 S
 P:x  P:y  P:z
 D:z2  D:x2-y2  D:xy  D:xz  D:yz
 F:z3  F:z  F:xyz  F:z2x  F:z2y  F:x  F:y


 Configuration of Valence Electrons
 ==================================

          Occupation Numbers
          -------------------------------------------------
 S        2*2
 P        3
 D        0
 F        0
          -------------------------------------------------

 Total:   7

 Net Charge: 0 (Nuclei minus Electrons)

 Preset values for MO occupations will be applied through SCF cycle no. 1000000
 Thereafter, the program will assign electrons to MOs that are spatially
 similar to the occupied MOs in a "reference" cycle ("KeepOrbitals").
 The reference cycle is always the PREVIOUS cycle: it will evolve with
 the SCF procedure.



 ================================
 (Slater-type)  F U N C T I O N S  ***  (Basis and Fit)  ***
 ================================
  

 Atom Type    1  (N)
 ==============

 Valence Basis Sets:  10
 -----------------------
   1 S    8.740000
   1 S    5.900000
   2 S    5.150000
   2 S    2.500000
   2 S    1.500000
   2 P    3.680000
   2 P    1.880000
   2 P    1.000000
   3 D    2.200000
   4 F    3.300000


 BAS: List of all Elementary Cartesian Basis Functions
 =====================================================

 The numbering in the list below (to the right of the function characteristics) is referred
 to in print-outs of MO eigenvectors and Mulliken populations in the BAS representation
 (as contrasted to the SFO representation).

 Notes:
 1. The functions are characterized by a polynomial prefactor (powers of x,y,z and r) and
    an exponential decay factor alpha.
 2. Since the basis sets are specific for an atom TYPE, the individual functions occur on
    all atoms of that type.
 3. The word 'Core' in the left margin signals that it is a Core Function (CF) : not a
    degree of freedom in the valence set, but only used to ensure orthogonalization of
    the other valence basis functions on the frozen Core Orbitals.


 (power of) X  Y  Z  R     Alpha  on Atom
            ==========     =====     ==========

 N                                    1
                                  ---------------------------------------------------------------------------
            0  0  0  0     8.740      1
            0  0  0  0     5.900      2
            0  0  0  1     5.150      3
            0  0  0  1     2.500      4
            0  0  0  1     1.500      5
            1  0  0  0     3.680      6
            0  1  0  0     3.680      7
            0  0  1  0     3.680      8
            1  0  0  0     1.880      9
            0  1  0  0     1.880     10
            0  0  1  0     1.880     11
            1  0  0  0     1.000     12
            0  1  0  0     1.000     13
            0  0  1  0     1.000     14
            2  0  0  0     2.200     15
            1  1  0  0     2.200     16
            1  0  1  0     2.200     17
            0  2  0  0     2.200     18
            0  1  1  0     2.200     19
            0  0  2  0     2.200     20
            3  0  0  0     3.300     21
            2  1  0  0     3.300     22
            2  0  1  0     3.300     23
            1  2  0  0     3.300     24
            1  1  1  0     3.300     25
            1  0  2  0     3.300     26
            0  3  0  0     3.300     27
            0  2  1  0     3.300     28
            0  1  2  0     3.300     29
            0  0  3  0     3.300     30

 Total number of charge fitting functions (nprimf)        84
 Total number of Cartesian basis functions (naos)         30
 Total number of Cartesian core functions  (ncos)          0



 BAS: List of all Elementary Cartesian Basis Functions
 =====================================================

 The numbering in the list below (to the right of the function characteristics) is referred
 to in print-outs of MO eigenvectors and Mulliken populations in the BAS representation
 (as contrasted to the SFO representation).

 Notes:
 1. The functions are characterized by a polynomial prefactor (powers of x,y,z and r) and
    an exponential decay factor alpha.
 2. Since the basis sets are specific for an atom TYPE, the individual functions occur on
    all atoms of that type.
 3. The word 'Core' in the left margin signals that it is a Core Function (CF) : not a
    degree of freedom in the valence set, but only used to ensure orthogonalization of
    the other valence basis functions on the frozen Core Orbitals.


 (power of) X  Y  Z  R     Alpha  on Atom
            ==========     =====     ==========

 N                                    1
                                  ---------------------------------------------------------------------------
            0  0  0  0     8.740      1
            0  0  0  0     5.900      2
            0  0  0  1     5.150      3
            0  0  0  1     2.500      4
            0  0  0  1     1.500      5
            1  0  0  0     3.680      6
            0  1  0  0     3.680      7
            0  0  1  0     3.680      8
            1  0  0  0     1.880      9
            0  1  0  0     1.880     10
            0  0  1  0     1.880     11
            1  0  0  0     1.000     12
            0  1  0  0     1.000     13
            0  0  1  0     1.000     14
            2  0  0  0     2.200     15
            1  1  0  0     2.200     16
            1  0  1  0     2.200     17
            0  2  0  0     2.200     18
            0  1  1  0     2.200     19
            0  0  2  0     2.200     20
            3  0  0  0     3.300     21
            2  1  0  0     3.300     22
            2  0  1  0     3.300     23
            1  2  0  0     3.300     24
            1  1  1  0     3.300     25
            1  0  2  0     3.300     26
            0  3  0  0     3.300     27
            0  2  1  0     3.300     28
            0  1  2  0     3.300     29
            0  0  3  0     3.300     30
1
 ***************************************************************************************************



                                              ***********************
                                              *  T E C H N I C A L  *
                                              ***********************
  



 =============================================================
 P A R A L L E L I Z A T I O N  and  V E C T O R I Z A T I O N
 =============================================================
  
 Nr of parallel processes:                                1
 Maximum vector length in NumInt loops:                 128

 IO buffersize (Mb):                                     64.000000



 =====================
 S C F   U P D A T E S
 =====================
  
 Max. nr. of cycles:                               300
 Convergence criterion:                              0.0000000100
   secondary criterion:                              0.0000000100

 Mix parameter (when DIIS does not apply):           0.2000000000
 Special mix parameter for the first cycle:          1.0000000000
 Mixed ADIIS+DIIS will be used
    Max number of expansion vectors:                10
    Pure ADIIS when Max([F,P]) is above              0.1000000000
    Pure DIIS when Max([F,P]) is below               0.0010000000
 Automatic ElectronSmearing (in case of problematic SCF convergence) disabled



 =================
 P R E C I S I O N  ***  (General: NumInt, NeglectFunctionTails, ...)  ***
 =================
  

 NumInt:           Target precision:                12.0000000000
 -------           Initial precision:               10.0000000000
                   Min. precision (optimization):   10.0000000000

 Neglect Functions:          Basis functions:        0.1000000000E-13
 ------------------          Fit functions:          0.1000000000E-13



 ===========================
 L I N E A R   S C A L I N G
 ===========================
  

 Cut-off radii density fit:                        0.1000000000E-97
 Overlap cut-off criterion AO matrix elements:     0.1000000000E-97
 Cut-offs for Coulomb potential and fitted density:0.1000000000E-97
 Cut-off criterion for Coulomb multipole terms:    0.1000000000E-97
 Progressive Convergence parameter:                 0.000000000    
1
 ***************************************************************************************************



                                            ***************************
                                            *  C O M P U T A T I O N  *
                                            ***************************
  

 Number of elements of the density matrix on this node (used, total):       465       465



 ===========================================
 Numerical Integration : Fuzzy Cells (Becke)
 ===========================================
  
 Becke grid quality: VERYGOOD       
  
 Lebedev angular grid order:             min:  13 max:  41
 Nr. of radial points:                   min:  72 max:  72

 Total nr. of points:         72
 Nr. of blocks:                1
 Block length:                72
 Nr. of dummy points:          0


 Test of Precision of the Numerical Integration Grid
 ===================================================

 Integral of the Total Core Density:                   0.00000000000000



 ========================
 Density Fitting (zlmFit)
 ========================
  
 ZlmFit Fit Quality: VERYGOOD       
  
 Max L-expansion:                        min:   0 max:   0
 Nr. of radial interpolation points:     min: 160 max: 160



 =====
 S C F  ***  ScaSCF  ***
 =====
  

 CYCLE    1
 SCF Error: norm([F,P])=      0.000000000000, max([F,P])=      0.000000000000
 orbitals (Q,E):
 ---------------
 S :1...5            ( 2.00   -24.4993)  ( 2.00    -6.1004)  ( 0.00    -2.6599)  ( 0.00     0.7211)
                     ( 0.00    54.4424)
 P :1...3            ( 3.00    -6.1210)  ( 0.00    -2.6439)  ( 0.00    -1.4084)
 D :1...1            ( 0.00    -2.7133)
 F :1...1            ( 0.00    -0.3300)

 CYCLE    2
  SDIIS (wt  0.000):  1.0000 -0.0000
 A-DIIS (wt  1.000):  0.0000  1.0000
  DIIS coefficients:  0.0000  1.0000
 SCF Error: norm([F,P])=      6.451367365890, max([F,P])=      4.219703087224
 orbitals (Q,E):
 ---------------
 S :1...3            ( 2.00   -10.8287)  ( 2.00     0.0014)  ( 0.00     1.1966)
 P :1...2            ( 3.00     0.1843)  ( 0.00     0.9564)
 D :1...1            ( 0.00     1.8417)
 F :1...1            ( 0.00     4.7248)

 CYCLE    3
  SDIIS (wt  0.000):  0.2198  0.7802
 A-DIIS (wt  1.000):  0.2131  0.7869
  DIIS coefficients:  0.2131  0.7869
 SCF Error: norm([F,P])=      2.481517685351, max([F,P])=      1.954795594132
 orbitals (Q,E):
 ---------------
 S :1...3            ( 2.00   -15.1747)  ( 2.00    -1.2497)  ( 0.00     0.2017)
 P :1...2            ( 3.00    -0.8323)  ( 0.00     0.0719)
 D :1...1            ( 0.00     0.7940)
 F :1...1            ( 0.00     3.4887)

 CYCLE    4
  SDIIS (wt  0.000): -0.0612  0.1925  0.8687
 A-DIIS (wt  1.000):  0.0000  0.0259  0.9741
  DIIS coefficients:  0.0000  0.0259  0.9741
 SCF Error: norm([F,P])=      0.970371105527, max([F,P])=      0.641065486122
 orbitals (Q,E):
 ---------------
 S :1...3            ( 2.00   -13.4412)  ( 2.00    -0.4401)  ( 0.00     0.6963)
 P :1...2            ( 3.00    -0.0468)  ( 0.00     0.4437)
 D :1...1            ( 0.00     1.4306)
 F :1...1            ( 0.00     4.2280)

 CYCLE    5
  SDIIS (wt  0.000): -0.0222 -0.0718  0.4807  0.6133
 A-DIIS (wt  1.000):  0.0000  0.0000  0.4633  0.5367
  DIIS coefficients:  0.0000  0.0000  0.4633  0.5367
 SCF Error: norm([F,P])=      0.831034576935, max([F,P])=      0.578511378985
 orbitals (Q,E):
 ---------------
 S :1...3            ( 2.00   -14.1857)  ( 2.00    -0.7190)  ( 0.00     0.4998)
 P :1...2            ( 3.00    -0.2946)  ( 0.00     0.2748)
 D :1...1            ( 0.00     1.2103)
 F :1...1            ( 0.00     3.9682)

 CYCLE    6
  SDIIS (wt  0.696):  0.0027 -0.0052 -0.0171  0.0723  0.9473
 A-DIIS (wt  0.304):  0.0000  0.0000  0.0000  0.0000  1.0000
  DIIS coefficients:  0.0019 -0.0036 -0.0119  0.0503  0.9634
 SCF Error: norm([F,P])=      0.059655214985, max([F,P])=      0.031138717216
 orbitals (Q,E):
 ---------------
 S :1...3            ( 2.00   -14.1243)  ( 2.00    -0.6773)  ( 0.00     0.5219)
 P :1...2            ( 3.00    -0.2558)  ( 0.00     0.2921)
 D :1...1            ( 0.00     1.2456)
 F :1...1            ( 0.00     4.0096)

 CYCLE    7
  SDIIS (wt  0.824): -0.0002  0.0014  0.0138 -0.0266 -0.0370  1.0487
 A-DIIS (wt  0.176):  0.0000  0.0000  0.0000  0.0000  0.0360  0.9640
  DIIS coefficients: -0.0002  0.0011  0.0114 -0.0220 -0.0242  1.0338
 SCF Error: norm([F,P])=      0.027721651816, max([F,P])=      0.018404675135
 orbitals (Q,E):
 ---------------
 S :1...3            ( 2.00   -14.1511)  ( 2.00    -0.6888)  ( 0.00     0.5142)
 P :1...2            ( 3.00    -0.2669)  ( 0.00     0.2857)
 D :1...1            ( 0.00     1.2367)
 F :1...1            ( 0.00     3.9991)

 CYCLE    8
  SDIIS (wt  0.979): -0.0000  0.0002  0.0011 -0.0022 -0.0006  0.2099  0.7916
 A-DIIS (wt  0.021):  0.0000  0.0000  0.0000  0.0000  0.0000  0.0000  1.0000
  DIIS coefficients: -0.0000  0.0002  0.0011 -0.0021 -0.0006  0.2055  0.7960
 SCF Error: norm([F,P])=      0.004499232480, max([F,P])=      0.003081258258
 orbitals (Q,E):
 ---------------
 S :1...3            ( 2.00   -14.1473)  ( 2.00    -0.6873)  ( 0.00     0.5152)
 P :1...2            ( 3.00    -0.2655)  ( 0.00     0.2865)
 D :1...1            ( 0.00     1.2378)
 F :1...1            ( 0.00     4.0005)

 CYCLE    9
  SDIIS (wt  1.000):  0.0000 -0.0000 -0.0001  0.0001 -0.0002 -0.0094 -0.0232  1.0327
  DIIS coefficients:  0.0000 -0.0000 -0.0001  0.0001 -0.0002 -0.0094 -0.0232  1.0327
 SCF Error: norm([F,P])=      0.000019361449, max([F,P])=      0.000012105781
 orbitals (Q,E):
 ---------------
 S :1...3            ( 2.00   -14.1473)  ( 2.00    -0.6873)  ( 0.00     0.5152)
 P :1...2            ( 3.00    -0.2655)  ( 0.00     0.2865)
 D :1...1            ( 0.00     1.2378)
 F :1...1            ( 0.00     4.0005)

 CYCLE   10
  SDIIS (wt  1.000): -0.0000 -0.0000  0.0000  0.0000 -0.0001  0.0001  0.0232  0.9769
  DIIS coefficients: -0.0000 -0.0000  0.0000  0.0000 -0.0001  0.0001  0.0232  0.9769
 SCF Error: norm([F,P])=      0.000001838439, max([F,P])=      0.000001230955
 orbitals (Q,E):
 ---------------
 S :1...3            ( 2.00   -14.1473)  ( 2.00    -0.6873)  ( 0.00     0.5152)
 P :1...2            ( 3.00    -0.2655)  ( 0.00     0.2865)
 D :1...1            ( 0.00     1.2378)
 F :1...1            ( 0.00     4.0005)

 CYCLE   11
  SDIIS (wt  1.000): -0.0000 -0.0000 -0.0000 -0.0006 -0.0321  1.0328
  DIIS coefficients: -0.0000 -0.0000 -0.0000 -0.0006 -0.0321  1.0328
 SCF Error: norm([F,P])=      0.000000052960, max([F,P])=      0.000000032927
 orbitals (Q,E):
 ---------------
 S :1...3            ( 2.00   -14.1473)  ( 2.00    -0.6873)  ( 0.00     0.5152)
 P :1...2            ( 3.00    -0.2655)  ( 0.00     0.2865)
 D :1...1            ( 0.00     1.2378)
 F :1...1            ( 0.00     4.0005)

 CYCLE   12
  SDIIS (wt  1.000): -0.0000  0.0000 -0.0002  0.0076  0.9926
  DIIS coefficients: -0.0000  0.0000 -0.0002  0.0076  0.9926
 SCF Error: norm([F,P])=      0.000000000214, max([F,P])=      0.000000000118
 orbitals (Q,E):
 ---------------
 S :1...3            ( 2.00   -14.1473)  ( 2.00    -0.6873)  ( 0.00     0.5152)
 P :1...2            ( 3.00    -0.2655)  ( 0.00     0.2865)
 D :1...1            ( 0.00     1.2378)
 F :1...1            ( 0.00     4.0005)

 SCF CONVERGED

 CYCLE   13
1
 ***************************************************************************************************



                                                *******************
                                                *  R E S U L T S  *
                                                *******************
  
 *** Setting up for NEW gradients in Focky
 *** Using FIT density in Focky

 Orbital Energies, per Irrep and Spin:
 ======================================
                        Occup              E (au)              E (eV)       Diff (eV) with prev. cycle
                        -----      --------------------        ------       --------------------------
 S
               1        2.000     -0.14147275471391E+02      -384.967               8.94E-10
               2        2.000     -0.68732764310953E+00       -18.703               5.68E-10
               3        0.000      0.51515957710219E+00        14.018
               4        0.000      0.68959769444915E+01       187.649
               5        0.000      0.63979073432212E+02      1740.959
 P
               1        3.000     -0.26548379507191E+00        -7.224               5.44E-10
               2        0.000      0.28654429146964E+00         7.797
               3        0.000      0.32908032270942E+01        89.547
 D
               1        0.000      0.12378131244837E+01        33.683
 F
               1        0.000      0.40004783530592E+01       108.859


 Partially Occupied:
               1 P                -0.26548379507191E+00
  
 HOMO :        2 S                -0.68732764310953E+00
 LUMO :        2 P                 0.28654429146964E+00
  


 Orbital Energies, all Irreps
 ========================================

 Irrep        no.  (spin)   Occup              E (au)                E (eV)
 ---------------------------------------------------------------------------
 S             1             2.00       -0.14147275471391E+02      -384.9670
 S             2             2.00       -0.68732764310953E+00       -18.7031
 P             1             3.00       -0.26548379507191E+00        -7.2242
 P             2             0.00        0.28654429146964E+00         7.7973
 S             3             0.00        0.51515957710219E+00        14.0182
 D             1             0.00        0.12378131244837E+01        33.6826
 P             3             0.00        0.32908032270942E+01        89.5473
 F             1             0.00        0.40004783530592E+01       108.8586
 S             4             0.00        0.68959769444915E+01       187.6491
 S             5             0.00        0.63979073432212E+02      1740.9592


 All Electron Calculation, thus no Orbital Energies of the Core Orbitals are calculated



 =======================================
 M U L L I K E N   P O P U L A T I O N S
 =======================================
  
 The survey below gives for each atom:
 a) the total charge (Z minus electrons)
 b) the net spin polarization (nr of electrons spin-A minus spin-B)
 c) for each spin the atomic electron valence density (integrated) per L-value.

 Atom              Charge    Spin density          S         P         D         F
 ----              ------    ------------       ------    ------    ------    ------
 1 N              -0.0000                       4.0000    3.0000    0.0000    0.0000

 Populations of individual BAS functions
 ----------------------------------------
 1 N            0.5256  1.4646 -0.0480  1.1588  0.8990  0.1407  0.1407  0.1407  0.5661  0.5661
                0.5661  0.2932  0.2932  0.2932  0.0000  0.0000  0.0000  0.0000  0.0000  0.0000
                0.0000  0.0000  0.0000  0.0000  0.0000  0.0000  0.0000  0.0000  0.0000  0.0000

 Gross Charges per Atom (Z minus electrons)
 ==========================================
            -0.0000
 Net Total: -0.00000000



 =======================================================================
 Electrostatic potential at the Nuclei due to electrons and other nuclei
 =======================================================================
  
         Atom                  Potential
         ----                  ---------
     1)   N                  18.29008691
 
 
 ========================
 No memory problems found
 ========================
 
 Maximum number of active allocate calls:         447
 
 *******************************************************************************

                             A D F   E X I T
 NORMAL TERMINATION



 =================
 Timing Statistics
 =================
  
 Total Used :                     CPU=        0.49      System=        0.03     Elapsed=        0.54

 Calls  Section                     ( Mean, Percentage )
 ---------------------------------------------------------------------------------------------------
     3  ><      ................      0.00    0.20             0.00    0.00             0.00    0.15
     1  INIT    ................      0.01    1.83             0.01   57.69             0.04    7.96
     1  GEOMET  ................      0.01    1.43             0.00    3.85             0.01    1.56
     1  INPUTA  ................      0.00    0.20             0.00    0.00             0.00    0.28
     1  MAINSY  ................      0.00    0.81             0.00    7.69             0.01    1.11
     1  SYMFIT  ................      0.00    0.00             0.00    3.85             0.00    0.15
     1  CORORT  ................      0.00    0.00             0.00    0.00             0.00    0.05
     1  SYMORB  ................      0.00    0.20             0.00    0.00             0.00    0.13
     1  CLSMAT  ................      0.00    0.81             0.00    3.84             0.01    0.97
     1  ORTHON  ................      0.00    0.41             0.00    0.00             0.00    0.28
     1  GENPT   ................      0.01    2.85             0.00    0.00             0.01    2.75
     1  PTBAS   ................      0.00    0.81             0.00    0.00             0.00    0.65
    13  FOCKY   ................      0.03   75.15             0.00   11.54             0.03   69.26
    13  FOCKTR  ................      0.00    1.83             0.00    3.85             0.00    2.14
    13  SDIIS   ................      0.00    4.28             0.00    7.69             0.00    4.10
     1  COREPS  ................      0.02    4.28             0.00    0.00             0.02    3.94
     1  POPAN   ................      0.00    1.02             0.00    0.00             0.01    0.98
     1  DEBYE   ................      0.00    0.20             0.00    0.00             0.00    0.10
     1  EXIT PROCEDURE .........      0.02    3.67             0.00    0.00             0.02    3.44


 Currently Open Files (EXIT00)
 ====================

 Unit    Access Format  Status   Type       Ident (file)
 -------------------------------------------------------
   3      SEQ    FORM   TRANSP  NORMAL      LOGFILE
                                          ( logfile )


 Buffered I/O statistics
 =======================
 Memory available:                     67108864
 Number of records fitting in memory:     16131
 Input :   0.1% of                        27821  *4k bytes
 Output:  13.6% of                         1374  *4k bytes
 Records from serial files evicted:           0
                    others evicted:           0
 Hash table lookups:      71921 with          0 conflicts (  0.00%)

 ***************************************************************************************************
 (LOGFILE)
 <Apr18-2019> <21:13:54>  ADF development version  RunTime: Apr18-2019 21:13:54  Nodes: 1  Procs: 1
 <Apr18-2019> <21:13:54>  Hydrogen (TZ2P)
 <Apr18-2019> <21:13:54>  RunType   : CREATE
 <Apr18-2019> <21:13:55>  Net Charge: 0 (Nuclei minus Electrons)
 <Apr18-2019> <21:13:55>  Symmetry  : ATOM
  Coordinates
    Atom         X           Y           Z   (Angstrom)
    1.H         0.000000    0.000000    0.000000
 <Apr18-2019> <21:13:55>  >>>> CORORT
 <Apr18-2019> <21:13:55>  >>>> CLSMAT
 <Apr18-2019> <21:13:55>  >>>> ORTHON
 <Apr18-2019> <21:13:55>  >>>> GENPT
 <Apr18-2019> <21:13:55>  Block Length=  64
 <Apr18-2019> <21:13:55>  >>>> PTBAS
 <Apr18-2019> <21:13:55>  >>>> CYCLE
 <Apr18-2019> <21:13:55>              |Error|         MaxErr       Wt(A-DIIS)
 <Apr18-2019> <21:13:55>      1      0.00000000      0.00000000
 <Apr18-2019> <21:13:55>      2      0.03052616      0.02968253
 <Apr18-2019> <21:13:55>      3      0.00718306      0.00671215    100.0
 <Apr18-2019> <21:13:55>      4      0.00117509      0.00114306      0.1
 <Apr18-2019> <21:13:55>      5      0.00002753      0.00002354      0.0
 <Apr18-2019> <21:13:55>      6      0.00000151      0.00000129      0.0
 <Apr18-2019> <21:13:55>      7      0.00000000      0.00000000      0.0
 <Apr18-2019> <21:13:55>  SCF converged
 <Apr18-2019> <21:13:55>      8      0.00000000      0.00000000      0.0
 <Apr18-2019> <21:13:55>  >>>> POPAN
 <Apr18-2019> <21:13:55>  >>>> DEBYE
 <Apr18-2019> <21:13:55>  NORMAL TERMINATION
 <Apr18-2019> <21:13:55>  END
 <Apr18-2019> <21:13:55>  ADF development version  RunTime: Apr18-2019 21:13:55  Nodes: 1  Procs: 1
 <Apr18-2019> <21:13:55>  Nitrogen (TZ2P)
 <Apr18-2019> <21:13:55>  RunType   : CREATE
 <Apr18-2019> <21:13:55>  Net Charge: 0 (Nuclei minus Electrons)
 <Apr18-2019> <21:13:55>  Symmetry  : ATOM
  Coordinates
    Atom         X           Y           Z   (Angstrom)
    1.N         0.000000    0.000000    0.000000
 <Apr18-2019> <21:13:55>  >>>> CORORT
 <Apr18-2019> <21:13:55>  >>>> CLSMAT
 <Apr18-2019> <21:13:55>  >>>> ORTHON
 <Apr18-2019> <21:13:55>  >>>> GENPT
 <Apr18-2019> <21:13:55>  Block Length=  72
 <Apr18-2019> <21:13:55>  >>>> PTBAS
 <Apr18-2019> <21:13:55>  >>>> CYCLE
 <Apr18-2019> <21:13:55>              |Error|         MaxErr       Wt(A-DIIS)
 <Apr18-2019> <21:13:55>      1      0.00000000      0.00000000
 <Apr18-2019> <21:13:55>      2      6.45136737      4.21970309    100.0
 <Apr18-2019> <21:13:55>      3      2.48151769      1.95479559    100.0
 <Apr18-2019> <21:13:55>      4      0.97037111      0.64106549    100.0
 <Apr18-2019> <21:13:55>      5      0.83103458      0.57851138    100.0
 <Apr18-2019> <21:13:55>      6      0.05965521      0.03113872     30.4
 <Apr18-2019> <21:13:55>      7      0.02772165      0.01840468     17.6
 <Apr18-2019> <21:13:55>      8      0.00449923      0.00308126      2.1
 <Apr18-2019> <21:13:55>      9      0.00001936      0.00001211      0.0
 <Apr18-2019> <21:13:55>     10      0.00000184      0.00000123      0.0
 <Apr18-2019> <21:13:55>     11      0.00000005      0.00000003      0.0
 <Apr18-2019> <21:13:55>     12      0.00000000      0.00000000      0.0
 <Apr18-2019> <21:13:55>  SCF converged
 <Apr18-2019> <21:13:55>     13      0.00000000      0.00000000      0.0
 <Apr18-2019> <21:13:55>  >>>> POPAN
 <Apr18-2019> <21:13:55>  >>>> DEBYE
 <Apr18-2019> <21:13:55>  NORMAL TERMINATION
 <Apr18-2019> <21:13:55>  END

Create F   file=TZ2P-F
XC
  GGA BP86
End
End Input

 *******************************************************************************
 *                                                                             *
 *  -------------------------------------                                      *
 *   Amsterdam Density Functional  (ADF)         development version           *
 *  -------------------------------------                                      *
 *                                               r61132 2017-09-08             *
 *                                                                             *
 *                                                                             *
 *                              =================                              *
 *                              |               |                              *
 *                              |     A D F     |                              *
 *                              |               |                              *
 *                              =================                              *
 *                                                                             *
 *                                                                             *
 *   Online information and documentation:  https://www.scm.com/support/       *
 *   E-mail:  support@scm.com   info@scm.com                                   *
 *                                                                             *
 *   Scientific publications using ADF results must be properly referenced     *
 *   See the User Manuals (or the web site) for recommended citations          *
 *   The terms and conditions of the End User License Agreement apply to       *
 *   the use of ADF, https://www.scm.com/license-terms/                        *
 *                                                                             *
 **********************  x86_64_linux_intel / intelmpi  ************************
 
 Licensed to: VU/FEW (+ SARA) / ALGEMEEN / Amsterdam / THE NETHERLANDS
 SCM User ID: u7668
  
 ADF development version  RunTime: Apr18-2019 21:13:55  Nodes: 1  Procs: 1

 Temporary files are created in /local/datastore0/tcst25/186782/kid_0.8xwXU9

 Fluorine (TZ2P)



 ===========================
 A T T A C H E D   F I L E S
 ===========================
  
 CREATE - Data File:    TZ2P-F
                        Fluorine (TZ2P)



 ===============================
 M O D E L   P A R A M E T E R S
 ===============================
  
 DENSITY FUNCTIONAL POTENTIAL (scf)
    LDA:                               VWN                                      
    Gradient Corrections:              Becke88 Perdew86                        == Not Default ==

 SPIN  (restricted / unrestr.)
    Molecule:                          Restricted                               

 OTHER ASPECTS
    Relativistic Corrections:          ---                                      

    Nuclear Charge Density Model:      Point Charge Nuclei                      
    Core Treatment:                    Frozen Orbital(s)                        

    Hyperfine or Zeeman Interaction:   ---                                      



 =====================================
 S Y M M E T R Y ,   E L E C T R O N S
 =====================================
  
 Symmetry: ATOM

 Irreducible Representations, including subspecies
 -------------------------------------------------
 S
 P:x  P:y  P:z
 D:z2  D:x2-y2  D:xy  D:xz  D:yz
 F:z3  F:z  F:xyz  F:z2x  F:z2y  F:x  F:y


 Configuration of Valence Electrons
 ==================================

          Occupation Numbers
          -------------------------------------------------
 S        2*2
 P        5
 D        0
 F        0
          -------------------------------------------------

 Total:   9

 Net Charge: 0 (Nuclei minus Electrons)

 Preset values for MO occupations will be applied through SCF cycle no. 1000000
 Thereafter, the program will assign electrons to MOs that are spatially
 similar to the occupied MOs in a "reference" cycle ("KeepOrbitals").
 The reference cycle is always the PREVIOUS cycle: it will evolve with
 the SCF procedure.



 ================================
 (Slater-type)  F U N C T I O N S  ***  (Basis and Fit)  ***
 ================================
  

 Atom Type    1  (F)
 ==============

 Valence Basis Sets:  10
 -----------------------
   1 S   10.880000
   1 S    7.700000
   2 S    3.240000
   2 S    1.940000
   2 S    0.740000
   2 P    4.540000
   2 P    2.300000
   2 P    1.240000
   3 D    2.000000
   4 F    3.000000


 BAS: List of all Elementary Cartesian Basis Functions
 =====================================================

 The numbering in the list below (to the right of the function characteristics) is referred
 to in print-outs of MO eigenvectors and Mulliken populations in the BAS representation
 (as contrasted to the SFO representation).

 Notes:
 1. The functions are characterized by a polynomial prefactor (powers of x,y,z and r) and
    an exponential decay factor alpha.
 2. Since the basis sets are specific for an atom TYPE, the individual functions occur on
    all atoms of that type.
 3. The word 'Core' in the left margin signals that it is a Core Function (CF) : not a
    degree of freedom in the valence set, but only used to ensure orthogonalization of
    the other valence basis functions on the frozen Core Orbitals.


 (power of) X  Y  Z  R     Alpha  on Atom
            ==========     =====     ==========

 F                                    1
                                  ---------------------------------------------------------------------------
            0  0  0  0    10.880      1
            0  0  0  0     7.700      2
            0  0  0  1     3.240      3
            0  0  0  1     1.940      4
            0  0  0  1     0.740      5
            1  0  0  0     4.540      6
            0  1  0  0     4.540      7
            0  0  1  0     4.540      8
            1  0  0  0     2.300      9
            0  1  0  0     2.300     10
            0  0  1  0     2.300     11
            1  0  0  0     1.240     12
            0  1  0  0     1.240     13
            0  0  1  0     1.240     14
            2  0  0  0     2.000     15
            1  1  0  0     2.000     16
            1  0  1  0     2.000     17
            0  2  0  0     2.000     18
            0  1  1  0     2.000     19
            0  0  2  0     2.000     20
            3  0  0  0     3.000     21
            2  1  0  0     3.000     22
            2  0  1  0     3.000     23
            1  2  0  0     3.000     24
            1  1  1  0     3.000     25
            1  0  2  0     3.000     26
            0  3  0  0     3.000     27
            0  2  1  0     3.000     28
            0  1  2  0     3.000     29
            0  0  3  0     3.000     30

 Total number of charge fitting functions (nprimf)        85
 Total number of Cartesian basis functions (naos)         30
 Total number of Cartesian core functions  (ncos)          0



 BAS: List of all Elementary Cartesian Basis Functions
 =====================================================

 The numbering in the list below (to the right of the function characteristics) is referred
 to in print-outs of MO eigenvectors and Mulliken populations in the BAS representation
 (as contrasted to the SFO representation).

 Notes:
 1. The functions are characterized by a polynomial prefactor (powers of x,y,z and r) and
    an exponential decay factor alpha.
 2. Since the basis sets are specific for an atom TYPE, the individual functions occur on
    all atoms of that type.
 3. The word 'Core' in the left margin signals that it is a Core Function (CF) : not a
    degree of freedom in the valence set, but only used to ensure orthogonalization of
    the other valence basis functions on the frozen Core Orbitals.


 (power of) X  Y  Z  R     Alpha  on Atom
            ==========     =====     ==========

 F                                    1
                                  ---------------------------------------------------------------------------
            0  0  0  0    10.880      1
            0  0  0  0     7.700      2
            0  0  0  1     3.240      3
            0  0  0  1     1.940      4
            0  0  0  1     0.740      5
            1  0  0  0     4.540      6
            0  1  0  0     4.540      7
            0  0  1  0     4.540      8
            1  0  0  0     2.300      9
            0  1  0  0     2.300     10
            0  0  1  0     2.300     11
            1  0  0  0     1.240     12
            0  1  0  0     1.240     13
            0  0  1  0     1.240     14
            2  0  0  0     2.000     15
            1  1  0  0     2.000     16
            1  0  1  0     2.000     17
            0  2  0  0     2.000     18
            0  1  1  0     2.000     19
            0  0  2  0     2.000     20
            3  0  0  0     3.000     21
            2  1  0  0     3.000     22
            2  0  1  0     3.000     23
            1  2  0  0     3.000     24
            1  1  1  0     3.000     25
            1  0  2  0     3.000     26
            0  3  0  0     3.000     27
            0  2  1  0     3.000     28
            0  1  2  0     3.000     29
            0  0  3  0     3.000     30
1
 ***************************************************************************************************



                                              ***********************
                                              *  T E C H N I C A L  *
                                              ***********************
  



 =============================================================
 P A R A L L E L I Z A T I O N  and  V E C T O R I Z A T I O N
 =============================================================
  
 Nr of parallel processes:                                1
 Maximum vector length in NumInt loops:                 128

 IO buffersize (Mb):                                     64.000000



 =====================
 S C F   U P D A T E S
 =====================
  
 Max. nr. of cycles:                               300
 Convergence criterion:                              0.0000000100
   secondary criterion:                              0.0000000100

 Mix parameter (when DIIS does not apply):           0.2000000000
 Special mix parameter for the first cycle:          1.0000000000
 Mixed ADIIS+DIIS will be used
    Max number of expansion vectors:                10
    Pure ADIIS when Max([F,P]) is above              0.1000000000
    Pure DIIS when Max([F,P]) is below               0.0010000000
 Automatic ElectronSmearing (in case of problematic SCF convergence) disabled



 =================
 P R E C I S I O N  ***  (General: NumInt, NeglectFunctionTails, ...)  ***
 =================
  

 NumInt:           Target precision:                12.0000000000
 -------           Initial precision:               10.0000000000
                   Min. precision (optimization):   10.0000000000

 Neglect Functions:          Basis functions:        0.1000000000E-13
 ------------------          Fit functions:          0.1000000000E-13



 ===========================
 L I N E A R   S C A L I N G
 ===========================
  

 Cut-off radii density fit:                        0.1000000000E-97
 Overlap cut-off criterion AO matrix elements:     0.1000000000E-97
 Cut-offs for Coulomb potential and fitted density:0.1000000000E-97
 Cut-off criterion for Coulomb multipole terms:    0.1000000000E-97
 Progressive Convergence parameter:                 0.000000000    
1
 ***************************************************************************************************



                                            ***************************
                                            *  C O M P U T A T I O N  *
                                            ***************************
  

 Number of elements of the density matrix on this node (used, total):       465       465



 ===========================================
 Numerical Integration : Fuzzy Cells (Becke)
 ===========================================
  
 Becke grid quality: VERYGOOD       
  
 Lebedev angular grid order:             min:  13 max:  41
 Nr. of radial points:                   min:  76 max:  76

 Total nr. of points:         76
 Nr. of blocks:                1
 Block length:                76
 Nr. of dummy points:          0


 Test of Precision of the Numerical Integration Grid
 ===================================================

 Integral of the Total Core Density:                   0.00000000000000



 ========================
 Density Fitting (zlmFit)
 ========================
  
 ZlmFit Fit Quality: VERYGOOD       
  
 Max L-expansion:                        min:   0 max:   0
 Nr. of radial interpolation points:     min: 170 max: 170



 =====
 S C F  ***  ScaSCF  ***
 =====
  

 CYCLE    1
 SCF Error: norm([F,P])=      0.000000000000, max([F,P])=      0.000000000000
 orbitals (Q,E):
 ---------------
 S :1...5            ( 2.00   -40.4878)  ( 2.00   -10.0106)  ( 0.00    -4.4145)  ( 0.00    -2.1243)
                     ( 0.00    34.3132)
 P :1...3            ( 5.00   -10.1248)  ( 0.00    -4.4262)  ( 0.00    -2.4124)
 D :1...1            ( 0.00    -4.0000)
 F :1...1            ( 0.00    -2.2500)

 CYCLE    2
  SDIIS (wt  0.000):  1.0000 -0.0000
 A-DIIS (wt  1.000):  0.0000  1.0000
  DIIS coefficients:  0.0000  1.0000
 SCF Error: norm([F,P])=     11.366807046874, max([F,P])=      4.786714477166
 orbitals (Q,E):
 ---------------
 S :1...3            ( 2.00   -18.8660)  ( 2.00    -0.0141)  ( 0.00     0.3218)
 P :1...2            ( 5.00     0.3783)  ( 0.00     1.5588)
 D :1...1            ( 0.00     1.6967)
 F :1...1            ( 0.00     4.1052)

 CYCLE    3
  SDIIS (wt  0.000):  0.2239  0.7761
 A-DIIS (wt  1.000):  0.4542  0.5458
  DIIS coefficients:  0.4542  0.5458
 SCF Error: norm([F,P])=      5.062506642022, max([F,P])=      3.116912349557
 orbitals (Q,E):
 ---------------
 S :1...3            ( 2.00   -24.7359)  ( 2.00    -1.7711)  ( 0.00    -0.0772)
 P :1...2            ( 5.00    -1.0618)  ( 0.00     0.1929)
 D :1...1            ( 0.00     0.6916)
 F :1...1            ( 0.00     2.8996)

 CYCLE    4
  SDIIS (wt  0.000): -0.0094  0.0979  0.9115
 A-DIIS (wt  1.000):  0.0000  0.0000  1.0000
  DIIS coefficients:  0.0000  0.0000  1.0000
 SCF Error: norm([F,P])=      0.915332743690, max([F,P])=      0.418036336499
 orbitals (Q,E):
 ---------------
 S :1...3            ( 2.00   -23.7112)  ( 2.00    -0.8095)  ( 0.00     0.0811)
 P :1...2            ( 5.00    -0.1423)  ( 0.00     0.5905)
 D :1...1            ( 0.00     1.2497)
 F :1...1            ( 0.00     3.5688)

 CYCLE    5
  SDIIS (wt  0.000):  0.0170 -0.0338  0.5367  0.4801
 A-DIIS (wt  1.000):  0.0000  0.0000  0.6344  0.3656
  DIIS coefficients:  0.0000  0.0000  0.6344  0.3656
 SCF Error: norm([F,P])=      1.439654470617, max([F,P])=      0.706558546879
 orbitals (Q,E):
 ---------------
 S :1...3            ( 2.00   -24.3297)  ( 2.00    -1.0726)  ( 0.00     0.0448)
 P :1...2            ( 5.00    -0.3850)  ( 0.00     0.4575)
 D :1...1            ( 0.00     1.1278)
 F :1...1            ( 0.00     3.4231)

 CYCLE    6
  SDIIS (wt  0.483):  0.0017  0.0034  0.0435 -0.0489  1.0002
 A-DIIS (wt  0.517):  0.0000  0.0000  0.0000  0.0000  1.0000
  DIIS coefficients:  0.0008  0.0017  0.0210 -0.0236  1.0001
 SCF Error: norm([F,P])=      0.109235069103, max([F,P])=      0.052218948592
 orbitals (Q,E):
 ---------------
 S :1...3            ( 2.00   -24.4107)  ( 2.00    -1.1166)  ( 0.00     0.0362)
 P :1...2            ( 5.00    -0.4289)  ( 0.00     0.4327)
 D :1...1            ( 0.00     1.1045)
 F :1...1            ( 0.00     3.3981)

 CYCLE    7
  SDIIS (wt  0.662): -0.0005  0.0003  0.0103  0.0176  0.2722  0.7000
 A-DIIS (wt  0.338):  0.0000  0.0000  0.0000  0.0000  0.3258  0.6742
  DIIS coefficients: -0.0003  0.0002  0.0068  0.0117  0.2903  0.6913
 SCF Error: norm([F,P])=      0.072774709458, max([F,P])=      0.034471293171
 orbitals (Q,E):
 ---------------
 S :1...3            ( 2.00   -24.3699)  ( 2.00    -1.1001)  ( 0.00     0.0383)
 P :1...2            ( 5.00    -0.4128)  ( 0.00     0.4396)
 D :1...1            ( 0.00     1.1115)
 F :1...1            ( 0.00     3.4065)

 CYCLE    8
  SDIIS (wt  0.986): -0.0000  0.0000 -0.0001  0.0005 -0.0030  0.0719  0.9307
 A-DIIS (wt  0.014):  0.0000  0.0000  0.0000  0.0000  0.0000  0.0000  1.0000
  DIIS coefficients: -0.0000  0.0000 -0.0001  0.0004 -0.0029  0.0708  0.9317
 SCF Error: norm([F,P])=      0.005098543025, max([F,P])=      0.002387341981
 orbitals (Q,E):
 ---------------
 S :1...3            ( 2.00   -24.3725)  ( 2.00    -1.1013)  ( 0.00     0.0381)
 P :1...2            ( 5.00    -0.4138)  ( 0.00     0.4390)
 D :1...1            ( 0.00     1.1110)
 F :1...1            ( 0.00     3.4060)

 CYCLE    9
  SDIIS (wt  1.000): -0.0000 -0.0000  0.0000  0.0000 -0.0003 -0.0039 -0.0267  1.0309
  DIIS coefficients: -0.0000 -0.0000  0.0000  0.0000 -0.0003 -0.0039 -0.0267  1.0309
 SCF Error: norm([F,P])=      0.000121120604, max([F,P])=      0.000057048180
 orbitals (Q,E):
 ---------------
 S :1...3            ( 2.00   -24.3724)  ( 2.00    -1.1012)  ( 0.00     0.0381)
 P :1...2            ( 5.00    -0.4138)  ( 0.00     0.4390)
 D :1...1            ( 0.00     1.1110)
 F :1...1            ( 0.00     3.4060)

 CYCLE   10
  SDIIS (wt  1.000): -0.0000  0.0000  0.0000 -0.0050  1.0049
  DIIS coefficients: -0.0000  0.0000  0.0000 -0.0050  1.0049
 SCF Error: norm([F,P])=      0.000000298793, max([F,P])=      0.000000129719
 orbitals (Q,E):
 ---------------
 S :1...3            ( 2.00   -24.3724)  ( 2.00    -1.1012)  ( 0.00     0.0381)
 P :1...2            ( 5.00    -0.4138)  ( 0.00     0.4390)
 D :1...1            ( 0.00     1.1110)
 F :1...1            ( 0.00     3.4060)

 CYCLE   11
  SDIIS (wt  1.000): -0.0000 -0.0000  0.0041  0.9959
  DIIS coefficients: -0.0000 -0.0000  0.0041  0.9959
 SCF Error: norm([F,P])=      0.000000001288, max([F,P])=      0.000000000637
 orbitals (Q,E):
 ---------------
 S :1...3            ( 2.00   -24.3724)  ( 2.00    -1.1012)  ( 0.00     0.0381)
 P :1...2            ( 5.00    -0.4138)  ( 0.00     0.4390)
 D :1...1            ( 0.00     1.1110)
 F :1...1            ( 0.00     3.4060)

 SCF CONVERGED

 CYCLE   12
1
 ***************************************************************************************************



                                                *******************
                                                *  R E S U L T S  *
                                                *******************
  
 *** Setting up for NEW gradients in Focky
 *** Using FIT density in Focky

 Orbital Energies, per Irrep and Spin:
 ======================================
                        Occup              E (au)              E (eV)       Diff (eV) with prev. cycle
                        -----      --------------------        ------       --------------------------
 S
               1        2.000     -0.24372431090650E+02      -663.208              -3.15E-10
               2        2.000     -0.11012301230106E+01       -29.966              -2.12E-10
               3        0.000      0.38053055497926E-01         1.035
               4        0.000      0.15769745383200E+01        42.912
               5        0.000      0.48393976780801E+02      1316.867
 P
               1        5.000     -0.41382455341580E+00       -11.261              -2.04E-10
               2        0.000      0.43895544717991E+00        11.945
               3        0.000      0.45765047100158E+01       124.533
 D
               1        0.000      0.11110247405645E+01        30.233
 F
               1        0.000      0.34059736565337E+01        92.681


 Partially Occupied:
               1 P                -0.41382455341580E+00
  
 HOMO :        2 S                -0.11012301230106E+01
 LUMO :        3 S                 0.38053055497926E-01
  


 Orbital Energies, all Irreps
 ========================================

 Irrep        no.  (spin)   Occup              E (au)                E (eV)
 ---------------------------------------------------------------------------
 S             1             2.00       -0.24372431090650E+02      -663.2076
 S             2             2.00       -0.11012301230106E+01       -29.9660
 P             1             5.00       -0.41382455341580E+00       -11.2607
 S             3             0.00        0.38053055497926E-01         1.0355
 P             2             0.00        0.43895544717991E+00        11.9446
 D             1             0.00        0.11110247405645E+01        30.2325
 S             4             0.00        0.15769745383200E+01        42.9117
 F             1             0.00        0.34059736565337E+01        92.6813
 P             3             0.00        0.45765047100158E+01       124.5330
 S             5             0.00        0.48393976780801E+02      1316.8671


 All Electron Calculation, thus no Orbital Energies of the Core Orbitals are calculated



 =======================================
 M U L L I K E N   P O P U L A T I O N S
 =======================================
  
 The survey below gives for each atom:
 a) the total charge (Z minus electrons)
 b) the net spin polarization (nr of electrons spin-A minus spin-B)
 c) for each spin the atomic electron valence density (integrated) per L-value.

 Atom              Charge    Spin density          S         P         D         F
 ----              ------    ------------       ------    ------    ------    ------
 1 F               0.0000                       4.0000    5.0000    0.0000    0.0000

 Populations of individual BAS functions
 ----------------------------------------
 1 F            0.5752  1.4002  1.1420  0.8859 -0.0033  0.3584  0.3584  0.3584  0.9321  0.9321
                0.9321  0.3762  0.3762  0.3762  0.0000  0.0000  0.0000  0.0000  0.0000  0.0000
                0.0000  0.0000  0.0000  0.0000  0.0000  0.0000  0.0000  0.0000  0.0000  0.0000

 Gross Charges per Atom (Z minus electrons)
 ==========================================
             0.0000
 Net Total:  0.00000000



 =======================================================================
 Electrostatic potential at the Nuclei due to electrons and other nuclei
 =======================================================================
  
         Atom                  Potential
         ----                  ---------
     1)   F                  26.50819361
 
 
 ========================
 No memory problems found
 ========================
 
 Maximum number of active allocate calls:         447
 
 *******************************************************************************

                             A D F   E X I T
 NORMAL TERMINATION



 =================
 Timing Statistics
 =================
  
 Total Used :                     CPU=        0.48      System=        0.02     Elapsed=        0.51

 Calls  Section                     ( Mean, Percentage )
 ---------------------------------------------------------------------------------------------------
     3  ><      ................      0.00    0.21             0.00    0.00             0.00    0.15
     1  INIT    ................      0.01    2.28             0.01   54.17             0.03    4.98
     1  GEOMET  ................      0.00    0.62             0.00   20.84             0.01    1.64
     1  INPUTA  ................      0.00    0.41             0.00    0.00             0.00    0.30
     1  MAINSY  ................      0.00    0.83             0.00    8.33             0.01    1.18
     1  SYMFIT  ................      0.00    0.21             0.00    0.00             0.00    0.16
     1  CORORT  ................      0.00    0.00             0.00    0.00             0.00    0.05
     1  SYMORB  ................      0.00    0.00             0.00    0.00             0.00    0.13
     1  CLSMAT  ................      0.01    1.24             0.00    0.00             0.01    1.03
     1  ORTHON  ................      0.00    0.21             0.00    0.00             0.00    0.29
     1  GENPT   ................      0.01    2.90             0.00    4.17             0.01    2.90
     1  PTBAS   ................      0.00    0.62             0.00    0.00             0.00    0.68
    12  FOCKY   ................      0.03   75.78             0.00    8.33             0.03   71.67
    12  FOCKTR  ................      0.00    2.07             0.00    0.00             0.00    1.99
    12  SDIIS   ................      0.00    3.31             0.00    0.00             0.00    3.79
     1  COREPS  ................      0.02    4.55             0.00    0.00             0.02    4.32
     1  POPAN   ................      0.01    1.04             0.00    0.00             0.01    1.02
     1  DEBYE   ................      0.00    0.21             0.00    0.00             0.00    0.11
     1  EXIT PROCEDURE .........      0.02    3.52             0.00    4.17             0.02    3.61


 Currently Open Files (EXIT00)
 ====================

 Unit    Access Format  Status   Type       Ident (file)
 -------------------------------------------------------
   3      SEQ    FORM   TRANSP  NORMAL      LOGFILE
                                          ( logfile )


 Buffered I/O statistics
 =======================
 Memory available:                     67108864
 Number of records fitting in memory:     16131
 Input :   0.1% of                        26750  *4k bytes
 Output:  13.7% of                         1369  *4k bytes
 Records from serial files evicted:           0
                    others evicted:           0
 Hash table lookups:      69057 with          0 conflicts (  0.00%)

 ***************************************************************************************************
 (LOGFILE)
 <Apr18-2019> <21:13:54>  ADF development version  RunTime: Apr18-2019 21:13:54  Nodes: 1  Procs: 1
 <Apr18-2019> <21:13:54>  Hydrogen (TZ2P)
 <Apr18-2019> <21:13:54>  RunType   : CREATE
 <Apr18-2019> <21:13:55>  Net Charge: 0 (Nuclei minus Electrons)
 <Apr18-2019> <21:13:55>  Symmetry  : ATOM
  Coordinates
    Atom         X           Y           Z   (Angstrom)
    1.H         0.000000    0.000000    0.000000
 <Apr18-2019> <21:13:55>  >>>> CORORT
 <Apr18-2019> <21:13:55>  >>>> CLSMAT
 <Apr18-2019> <21:13:55>  >>>> ORTHON
 <Apr18-2019> <21:13:55>  >>>> GENPT
 <Apr18-2019> <21:13:55>  Block Length=  64
 <Apr18-2019> <21:13:55>  >>>> PTBAS
 <Apr18-2019> <21:13:55>  >>>> CYCLE
 <Apr18-2019> <21:13:55>              |Error|         MaxErr       Wt(A-DIIS)
 <Apr18-2019> <21:13:55>      1      0.00000000      0.00000000
 <Apr18-2019> <21:13:55>      2      0.03052616      0.02968253
 <Apr18-2019> <21:13:55>      3      0.00718306      0.00671215    100.0
 <Apr18-2019> <21:13:55>      4      0.00117509      0.00114306      0.1
 <Apr18-2019> <21:13:55>      5      0.00002753      0.00002354      0.0
 <Apr18-2019> <21:13:55>      6      0.00000151      0.00000129      0.0
 <Apr18-2019> <21:13:55>      7      0.00000000      0.00000000      0.0
 <Apr18-2019> <21:13:55>  SCF converged
 <Apr18-2019> <21:13:55>      8      0.00000000      0.00000000      0.0
 <Apr18-2019> <21:13:55>  >>>> POPAN
 <Apr18-2019> <21:13:55>  >>>> DEBYE
 <Apr18-2019> <21:13:55>  NORMAL TERMINATION
 <Apr18-2019> <21:13:55>  END
 <Apr18-2019> <21:13:55>  ADF development version  RunTime: Apr18-2019 21:13:55  Nodes: 1  Procs: 1
 <Apr18-2019> <21:13:55>  Nitrogen (TZ2P)
 <Apr18-2019> <21:13:55>  RunType   : CREATE
 <Apr18-2019> <21:13:55>  Net Charge: 0 (Nuclei minus Electrons)
 <Apr18-2019> <21:13:55>  Symmetry  : ATOM
  Coordinates
    Atom         X           Y           Z   (Angstrom)
    1.N         0.000000    0.000000    0.000000
 <Apr18-2019> <21:13:55>  >>>> CORORT
 <Apr18-2019> <21:13:55>  >>>> CLSMAT
 <Apr18-2019> <21:13:55>  >>>> ORTHON
 <Apr18-2019> <21:13:55>  >>>> GENPT
 <Apr18-2019> <21:13:55>  Block Length=  72
 <Apr18-2019> <21:13:55>  >>>> PTBAS
 <Apr18-2019> <21:13:55>  >>>> CYCLE
 <Apr18-2019> <21:13:55>              |Error|         MaxErr       Wt(A-DIIS)
 <Apr18-2019> <21:13:55>      1      0.00000000      0.00000000
[...]
 <Apr18-2019> <21:17:31>      5      0.00009510      0.00002228      0.0
 <Apr18-2019> <21:17:32>      6      0.00003571      0.00000843      0.0
 <Apr18-2019> <21:17:32>      7      0.00000436      0.00000076      0.0
 <Apr18-2019> <21:17:32>  SCF converged
 <Apr18-2019> <21:17:32>      8      0.00000228      0.00000061      0.0
 <Apr18-2019> <21:17:32>  >>>> TOTEN
 <Apr18-2019> <21:17:33>  >>>> POPAN
 <Apr18-2019> <21:17:33>  >>>> DEBYE
 <Apr18-2019> <21:17:33>  >>>> ENGRAD
 <Apr18-2019> <21:17:33>  current energy                               -1.59346023 Hartree
 <Apr18-2019> <21:17:33>  energy change                      -0.00000729     0.00010000    T
 <Apr18-2019> <21:17:33>  constrained gradient max            0.00145390     0.00010000    F
 <Apr18-2019> <21:17:33>  constrained gradient rms            0.00060494     0.00006667    F
 <Apr18-2019> <21:17:33>  gradient max                        0.00145390
 <Apr18-2019> <21:17:33>  gradient rms                        0.00060494
 <Apr18-2019> <21:17:33>  cart. step max                      0.01304142     0.01000000    F
 <Apr18-2019> <21:17:33>  cart. step rms                      0.00534940     0.00666667    T
  Coordinates in Geometry Cycle 46
    Atom         X           Y           Z   (Angstrom)
    1.B         0.681939   -1.438829    3.083367
    2.F        -0.229900   -2.470497    3.010180
    3.F         0.893548   -0.950804    4.357917
    4.F         1.840341   -1.648888    2.357616
    5.N        -0.085789   -0.161663    2.282677
    6.H        -0.957654    0.090096    2.749687
    7.H        -0.300994   -0.431273    1.320910
    8.H         0.516223    0.660095    2.262425
 <Apr18-2019> <21:17:33>  >>>> CORORT
 <Apr18-2019> <21:17:33>  >>>> CLSMAT
 <Apr18-2019> <21:17:33>  >>>> ORTHON
 <Apr18-2019> <21:17:33>  >>>> GENPT
 <Apr18-2019> <21:17:33>  Block Length= 128
 <Apr18-2019> <21:17:33>  >>>> PTBAS
 <Apr18-2019> <21:17:33>  >>>> CYCLE
 <Apr18-2019> <21:17:34>              |Error|         MaxErr       Wt(A-DIIS)
 <Apr18-2019> <21:17:34>      1      0.02560094      0.00550758
 <Apr18-2019> <21:17:34>      2      0.00638837      0.00104228    100.0
 <Apr18-2019> <21:17:35>      3      0.00295916      0.00047203    100.0
 <Apr18-2019> <21:17:35>      4      0.00507811      0.00080922      0.0
 <Apr18-2019> <21:17:35>      5      0.00033748      0.00008869      0.0
 <Apr18-2019> <21:17:35>      6      0.00010468      0.00002126      0.0
 <Apr18-2019> <21:17:36>      7      0.00002277      0.00000656      0.0
 <Apr18-2019> <21:17:36>      8      0.00000787      0.00000192      0.0
 <Apr18-2019> <21:17:36>      9      0.00000174      0.00000026      0.0
 <Apr18-2019> <21:17:37>  SCF converged
 <Apr18-2019> <21:17:37>     10      0.00000023      0.00000003      0.0
 <Apr18-2019> <21:17:37>  >>>> TOTEN
 <Apr18-2019> <21:17:37>  >>>> POPAN
 <Apr18-2019> <21:17:37>  >>>> DEBYE
 <Apr18-2019> <21:17:37>  >>>> ENGRAD
 <Apr18-2019> <21:17:38>  current energy                               -1.59340638 Hartree
 <Apr18-2019> <21:17:38>  energy change                       0.00005385     0.00010000    T
 <Apr18-2019> <21:17:38>  constrained gradient max            0.00440749     0.00010000    F
 <Apr18-2019> <21:17:38>  constrained gradient rms            0.00206211     0.00006667    F
 <Apr18-2019> <21:17:38>  gradient max                        0.00440749
 <Apr18-2019> <21:17:38>  gradient rms                        0.00206211
 <Apr18-2019> <21:17:38>  cart. step max                      0.00882382     0.01000000    T
 <Apr18-2019> <21:17:38>  cart. step rms                      0.00442912     0.00666667    T
  Coordinates in Geometry Cycle 47
    Atom         X           Y           Z   (Angstrom)
    1.B         0.684679   -1.440879    3.086291
    2.F        -0.230005   -2.475464    3.016681
    3.F         0.895787   -0.952249    4.360851
    4.F         1.835617   -1.648202    2.353680
    5.N        -0.088251   -0.157493    2.276117
    6.H        -0.961354    0.083131    2.753831
    7.H        -0.299951   -0.428842    1.312086
    8.H         0.521193    0.668235    2.265241
 <Apr18-2019> <21:17:38>  >>>> CORORT
 <Apr18-2019> <21:17:38>  >>>> CLSMAT
 <Apr18-2019> <21:17:38>  >>>> ORTHON
 <Apr18-2019> <21:17:38>  >>>> GENPT
 <Apr18-2019> <21:17:38>  Block Length= 128
 <Apr18-2019> <21:17:38>  >>>> PTBAS
 <Apr18-2019> <21:17:38>  >>>> CYCLE
 <Apr18-2019> <21:17:38>              |Error|         MaxErr       Wt(A-DIIS)
 <Apr18-2019> <21:17:38>      1      0.03364804      0.00765073
 <Apr18-2019> <21:17:39>      2      0.01064338      0.00187139    100.0
 <Apr18-2019> <21:17:39>      3      0.01988447      0.00332707    100.0
 <Apr18-2019> <21:17:39>      4      0.00335157      0.00061109      0.0
 <Apr18-2019> <21:17:40>      5      0.00062255      0.00015304      0.0
 <Apr18-2019> <21:17:40>      6      0.00015219      0.00002893      0.0
 <Apr18-2019> <21:17:40>      7      0.00003213      0.00000963      0.0
 <Apr18-2019> <21:17:41>      8      0.00001175      0.00000292      0.0
 <Apr18-2019> <21:17:41>      9      0.00000194      0.00000031      0.0
 <Apr18-2019> <21:17:41>  SCF converged
 <Apr18-2019> <21:17:41>     10      0.00000031      0.00000005      0.0
 <Apr18-2019> <21:17:41>  >>>> TOTEN
 <Apr18-2019> <21:17:42>  >>>> POPAN
 <Apr18-2019> <21:17:42>  >>>> DEBYE
 <Apr18-2019> <21:17:42>  >>>> ENGRAD
 <Apr18-2019> <21:17:42>  current energy                               -1.59344495 Hartree
 <Apr18-2019> <21:17:42>  energy change                      -0.00003857     0.00010000    T
 <Apr18-2019> <21:17:42>  constrained gradient max            0.00448179     0.00010000    F
 <Apr18-2019> <21:17:42>  constrained gradient rms            0.00175003     0.00006667    F
 <Apr18-2019> <21:17:42>  gradient max                        0.00448179
 <Apr18-2019> <21:17:42>  gradient rms                        0.00175003
 <Apr18-2019> <21:17:42>  cart. step max                      0.00694653     0.01000000    T
 <Apr18-2019> <21:17:42>  cart. step rms                      0.00312497     0.00666667    T
  Coordinates in Geometry Cycle 48
    Atom         X           Y           Z   (Angstrom)
    1.B         0.683164   -1.440687    3.086236
    2.F        -0.232621   -2.472436    3.019774
    3.F         0.898972   -0.949936    4.358962
    4.F         1.834713   -1.651645    2.354141
    5.N        -0.086544   -0.158742    2.277603
    6.H        -0.963390    0.078945    2.747539
    7.H        -0.293005   -0.424159    1.311846
    8.H         0.516426    0.666896    2.268678
 <Apr18-2019> <21:17:42>  >>>> CORORT
 <Apr18-2019> <21:17:42>  >>>> CLSMAT
 <Apr18-2019> <21:17:42>  >>>> ORTHON
 <Apr18-2019> <21:17:42>  >>>> GENPT
 <Apr18-2019> <21:17:43>  Block Length= 128
 <Apr18-2019> <21:17:43>  >>>> PTBAS
 <Apr18-2019> <21:17:43>  >>>> CYCLE
 <Apr18-2019> <21:17:43>              |Error|         MaxErr       Wt(A-DIIS)
 <Apr18-2019> <21:17:43>      1      0.01630219      0.00423829
 <Apr18-2019> <21:17:43>      2      0.00404328      0.00069059    100.0
 <Apr18-2019> <21:17:44>      3      0.00199086      0.00031295    100.0
 <Apr18-2019> <21:17:44>      4      0.00309496      0.00052901      0.0
 <Apr18-2019> <21:17:44>      5      0.00023863      0.00005082      0.0
 <Apr18-2019> <21:17:45>      6      0.00007402      0.00001063      0.0
 <Apr18-2019> <21:17:45>      7      0.00001418      0.00000444      0.0
 <Apr18-2019> <21:17:45>      8      0.00000562      0.00000168      0.0
 <Apr18-2019> <21:17:46>      9      0.00000079      0.00000016      0.0
 <Apr18-2019> <21:17:46>  SCF converged
 <Apr18-2019> <21:17:46>     10      0.00000011      0.00000002      0.0
 <Apr18-2019> <21:17:46>  >>>> TOTEN
 <Apr18-2019> <21:17:47>  >>>> POPAN
 <Apr18-2019> <21:17:47>  >>>> DEBYE
 <Apr18-2019> <21:17:47>  >>>> ENGRAD
 <Apr18-2019> <21:17:47>  current energy                               -1.59346507 Hartree
 <Apr18-2019> <21:17:47>  energy change                      -0.00002012     0.00010000    T
 <Apr18-2019> <21:17:47>  constrained gradient max            0.00031994     0.00010000    F
 <Apr18-2019> <21:17:47>  constrained gradient rms            0.00015625     0.00006667    F
 <Apr18-2019> <21:17:47>  gradient max                        0.00031994
 <Apr18-2019> <21:17:47>  gradient rms                        0.00015625
 <Apr18-2019> <21:17:47>  cart. step max                      0.00549797     0.01000000    T
 <Apr18-2019> <21:17:47>  cart. step rms                      0.00256700     0.00666667    T
  Coordinates in Geometry Cycle 49
    Atom         X           Y           Z   (Angstrom)
    1.B         0.683721   -1.440429    3.085882
    2.F        -0.233036   -2.471429    3.023436
    3.F         0.903172   -0.948363    4.357408
    4.F         1.832970   -1.653798    2.350349
    5.N        -0.087057   -0.158908    2.277904
    6.H        -0.966474    0.074857    2.744874
    7.H        -0.288884   -0.422709    1.310749
    8.H         0.513303    0.669016    2.274176
 <Apr18-2019> <21:17:47>  >>>> CORORT
 <Apr18-2019> <21:17:47>  >>>> CLSMAT
 <Apr18-2019> <21:17:47>  >>>> ORTHON
 <Apr18-2019> <21:17:47>  >>>> GENPT
 <Apr18-2019> <21:17:47>  Block Length= 128
 <Apr18-2019> <21:17:47>  >>>> PTBAS
 <Apr18-2019> <21:17:47>  >>>> CYCLE
 <Apr18-2019> <21:17:48>              |Error|         MaxErr       Wt(A-DIIS)
 <Apr18-2019> <21:17:48>      1      0.01001798      0.00294314
 <Apr18-2019> <21:17:48>      2      0.00038806      0.00006377    100.0
 <Apr18-2019> <21:17:48>      3      0.00027983      0.00003774    100.0
 <Apr18-2019> <21:17:49>      4      0.00024576      0.00003711      0.0
 <Apr18-2019> <21:17:49>      5      0.00003180      0.00000834      0.0
 <Apr18-2019> <21:17:49>      6      0.00001202      0.00000325      0.0
 <Apr18-2019> <21:17:50>      7      0.00000231      0.00000037      0.0
 <Apr18-2019> <21:17:50>  SCF converged
 <Apr18-2019> <21:17:50>      8      0.00000044      0.00000008      0.0
 <Apr18-2019> <21:17:50>  >>>> TOTEN
 <Apr18-2019> <21:17:51>  >>>> POPAN
 <Apr18-2019> <21:17:51>  >>>> DEBYE
 <Apr18-2019> <21:17:51>  >>>> ENGRAD
 <Apr18-2019> <21:17:51>  current energy                               -1.59346521 Hartree
 <Apr18-2019> <21:17:51>  energy change                      -0.00000014     0.00010000    T
 <Apr18-2019> <21:17:51>  constrained gradient max            0.00020274     0.00010000    F
 <Apr18-2019> <21:17:51>  constrained gradient rms            0.00009576     0.00006667    F
 <Apr18-2019> <21:17:51>  gradient max                        0.00020274
 <Apr18-2019> <21:17:51>  gradient rms                        0.00009576
 <Apr18-2019> <21:17:51>  cart. step max                      0.00224913     0.01000000    T
 <Apr18-2019> <21:17:51>  cart. step rms                      0.00085156     0.00666667    T
  Coordinates in Geometry Cycle 50
    Atom         X           Y           Z   (Angstrom)
    1.B         0.683329   -1.441020    3.085869
    2.F        -0.232719   -2.471815    3.025685
    3.F         0.904118   -0.947979    4.356619
    4.F         1.831907   -1.655054    2.349924
    5.N        -0.087589   -0.158855    2.277563
    6.H        -0.966073    0.075665    2.744411
    7.H        -0.288926   -0.420953    1.309697
    8.H         0.513668    0.668249    2.275010
 <Apr18-2019> <21:17:51>  >>>> CORORT
 <Apr18-2019> <21:17:51>  >>>> CLSMAT
 <Apr18-2019> <21:17:51>  >>>> ORTHON
 <Apr18-2019> <21:17:51>  >>>> GENPT
 <Apr18-2019> <21:17:51>  Block Length= 128
 <Apr18-2019> <21:17:51>  >>>> PTBAS
 <Apr18-2019> <21:17:51>  >>>> CYCLE
 <Apr18-2019> <21:17:52>              |Error|         MaxErr       Wt(A-DIIS)
 <Apr18-2019> <21:17:52>      1      0.00516075      0.00160698
 <Apr18-2019> <21:17:52>      2      0.00064771      0.00012506    100.0
 <Apr18-2019> <21:17:52>      3      0.00039400      0.00008587    100.0
 <Apr18-2019> <21:17:53>      4      0.00037940      0.00006974      0.0
 <Apr18-2019> <21:17:53>      5      0.00003128      0.00000607      0.0
 <Apr18-2019> <21:17:53>      6      0.00001033      0.00000194      0.0
 <Apr18-2019> <21:17:54>      7      0.00000314      0.00000079      0.0
 <Apr18-2019> <21:17:54>  SCF converged
 <Apr18-2019> <21:17:54>      8      0.00000065      0.00000014      0.0
 <Apr18-2019> <21:17:54>  >>>> TOTEN
 <Apr18-2019> <21:17:55>  >>>> POPAN
 <Apr18-2019> <21:17:55>  >>>> DEBYE
 <Apr18-2019> <21:17:55>  >>>> ENGRAD
 <Apr18-2019> <21:17:55>  current energy                               -1.59346392 Hartree
 <Apr18-2019> <21:17:55>  energy change                       0.00000129     0.00010000    T
 <Apr18-2019> <21:17:55>  constrained gradient max            0.00087195     0.00010000    F
 <Apr18-2019> <21:17:55>  constrained gradient rms            0.00031593     0.00006667    F
 <Apr18-2019> <21:17:55>  gradient max                        0.00087195
 <Apr18-2019> <21:17:55>  gradient rms                        0.00031593
 <Apr18-2019> <21:17:55>  cart. step max                      0.01078620     0.01000000    F
 <Apr18-2019> <21:17:55>  cart. step rms                      0.00520178     0.00666667    T
  Coordinates in Geometry Cycle 51
    Atom         X           Y           Z   (Angstrom)
    1.B         0.681928   -1.442092    3.085824
    2.F        -0.242344   -2.467473    3.035636
    3.F         0.914904   -0.943593    4.353619
    4.F         1.824651   -1.665626    2.341731
    5.N        -0.086553   -0.157833    2.277176
    6.H        -0.966750    0.075176    2.742796
    7.H        -0.285418   -0.417954    1.308713
    8.H         0.517297    0.667632    2.279282
 <Apr18-2019> <21:17:55>  >>>> CORORT
 <Apr18-2019> <21:17:55>  >>>> CLSMAT
 <Apr18-2019> <21:17:55>  >>>> ORTHON
 <Apr18-2019> <21:17:55>  >>>> GENPT
 <Apr18-2019> <21:17:55>  Block Length= 128
 <Apr18-2019> <21:17:55>  >>>> PTBAS
 <Apr18-2019> <21:17:55>  >>>> CYCLE
 <Apr18-2019> <21:17:56>              |Error|         MaxErr       Wt(A-DIIS)
 <Apr18-2019> <21:17:56>      1      0.02729040      0.00852364
 <Apr18-2019> <21:17:56>      2      0.00180013      0.00029243    100.0
 <Apr18-2019> <21:17:56>      3      0.00227617      0.00030604    100.0
 <Apr18-2019> <21:17:57>      4      0.00049860      0.00008917      0.0
 <Apr18-2019> <21:17:57>      5      0.00010533      0.00001608      0.0
 <Apr18-2019> <21:17:57>      6      0.00001893      0.00000271      0.0
 <Apr18-2019> <21:17:58>      7      0.00000703      0.00000114      0.0
 <Apr18-2019> <21:17:58>      8      0.00000202      0.00000040      0.0
 <Apr18-2019> <21:17:58>  SCF converged
 <Apr18-2019> <21:17:58>      9      0.00000064      0.00000016      0.0
 <Apr18-2019> <21:17:58>  >>>> TOTEN
 <Apr18-2019> <21:17:59>  >>>> POPAN
 <Apr18-2019> <21:17:59>  >>>> DEBYE
 <Apr18-2019> <21:17:59>  >>>> ENGRAD
 <Apr18-2019> <21:17:59>  current energy                               -1.59346393 Hartree
 <Apr18-2019> <21:17:59>  energy change                      -0.00000000     0.00010000    T
 <Apr18-2019> <21:17:59>  constrained gradient max            0.00137653     0.00010000    F
 <Apr18-2019> <21:17:59>  constrained gradient rms            0.00056918     0.00006667    F
 <Apr18-2019> <21:17:59>  gradient max                        0.00137653
 <Apr18-2019> <21:17:59>  gradient rms                        0.00056918
 <Apr18-2019> <21:17:59>  cart. step max                      0.01076674     0.01000000    F
 <Apr18-2019> <21:17:59>  cart. step rms                      0.00512125     0.00666667    T
  Coordinates in Geometry Cycle 52
    Atom         X           Y           Z   (Angstrom)
    1.B         0.683685   -1.440540    3.085774
    2.F        -0.233729   -2.470905    3.024870
    3.F         0.904704   -0.947963    4.356757
    4.F         1.832091   -1.655131    2.349472
    5.N        -0.087052   -0.158800    2.277887
    6.H        -0.967065    0.073677    2.744019
    7.H        -0.287456   -0.421616    1.310197
    8.H         0.512537    0.669516    2.275803
 <Apr18-2019> <21:17:59>  >>>> CORORT
 <Apr18-2019> <21:17:59>  >>>> CLSMAT
 <Apr18-2019> <21:17:59>  >>>> ORTHON
 <Apr18-2019> <21:17:59>  >>>> GENPT
 <Apr18-2019> <21:17:59>  Block Length= 128
 <Apr18-2019> <21:18:00>  >>>> PTBAS
 <Apr18-2019> <21:18:00>  >>>> CYCLE
 <Apr18-2019> <21:18:00>              |Error|         MaxErr       Wt(A-DIIS)
 <Apr18-2019> <21:18:00>      1      0.02656761      0.00834616
 <Apr18-2019> <21:18:00>      2      0.00165076      0.00029071    100.0
 <Apr18-2019> <21:18:01>      3      0.00096095      0.00012566    100.0
 <Apr18-2019> <21:18:01>      4      0.00104125      0.00022570      0.0
 <Apr18-2019> <21:18:01>      5      0.00007154      0.00000895      0.0
 <Apr18-2019> <21:18:02>      6      0.00004162      0.00000764      0.0
 <Apr18-2019> <21:18:02>      7      0.00000875      0.00000169      0.0
 <Apr18-2019> <21:18:02>      8      0.00000208      0.00000030      0.0
 <Apr18-2019> <21:18:02>  SCF converged
 <Apr18-2019> <21:18:03>      9      0.00000087      0.00000015      0.0
 <Apr18-2019> <21:18:03>  >>>> TOTEN
 <Apr18-2019> <21:18:03>  >>>> POPAN
 <Apr18-2019> <21:18:03>  >>>> DEBYE
 <Apr18-2019> <21:18:03>  >>>> ENGRAD
 <Apr18-2019> <21:18:04>  current energy                               -1.59346487 Hartree
 <Apr18-2019> <21:18:04>  energy change                      -0.00000094     0.00010000    T
 <Apr18-2019> <21:18:04>  constrained gradient max            0.00007603     0.00010000    T
 <Apr18-2019> <21:18:04>  constrained gradient rms            0.00002120     0.00006667    T
 <Apr18-2019> <21:18:04>  gradient max                        0.00007603
 <Apr18-2019> <21:18:04>  gradient rms                        0.00002120
 <Apr18-2019> <21:18:04>  cart. step max                      0.00059962     0.01000000    T
 <Apr18-2019> <21:18:04>  cart. step rms                      0.00027407     0.00666667    T
 <Apr18-2019> <21:18:04>  GEOMETRY CONVERGED
 <Apr18-2019> <21:18:04>  Calculating Energy Terms for Final Geometry
  Coordinates in Geometry Cycle 52
    Atom         X           Y           Z   (Angstrom)
    1.B         0.683685   -1.440540    3.085774
    2.F        -0.233729   -2.470905    3.024870
    3.F         0.904704   -0.947963    4.356757
    4.F         1.832091   -1.655131    2.349472
    5.N        -0.087052   -0.158800    2.277887
    6.H        -0.967065    0.073677    2.744019
    7.H        -0.287456   -0.421616    1.310197
    8.H         0.512537    0.669516    2.275803
 <Apr18-2019> <21:18:04>  >>>> CORORT
 <Apr18-2019> <21:18:04>  >>>> CLSMAT
 <Apr18-2019> <21:18:04>  >>>> ORTHON
 <Apr18-2019> <21:18:04>  >>>> GENPT
 <Apr18-2019> <21:18:04>  Block Length= 128
 <Apr18-2019> <21:18:04>  >>>> PTBAS
 <Apr18-2019> <21:18:04>  >>>> CYCLE
 <Apr18-2019> <21:18:04>              |Error|         MaxErr       Wt(A-DIIS)
 <Apr18-2019> <21:18:04>      1      0.00000015      0.00000004
 <Apr18-2019> <21:18:05>      2      0.00000018      0.00000006    100.0
 <Apr18-2019> <21:18:05>  SCF converged
 <Apr18-2019> <21:18:05>      3      0.00000027      0.00000009    100.0
 <Apr18-2019> <21:18:05>  >>>> TOTEN
 <Apr18-2019> <21:18:06>  >>>> POPAN
 <Apr18-2019> <21:18:06>  >>>> DEBYE
 <Apr18-2019> <21:18:06>  >>>> AMETS
 <Apr18-2019> <21:18:06>  >>>> POPUL
 <Apr18-2019> <21:18:06>   Bond Energy          -1.59346487 a.u.
 <Apr18-2019> <21:18:06>   Bond Energy         -43.36038529 eV
 <Apr18-2019> <21:18:06>   Bond Energy        -999.91       kcal/mol
 <Apr18-2019> <21:18:06>  >>>> ENHESS
 <Apr18-2019> <21:18:06>  === NUCLEUS:     1
 <Apr18-2019> <21:18:14>  === NUCLEUS:     2
 <Apr18-2019> <21:18:21>  === NUCLEUS:     3
 <Apr18-2019> <21:18:27>  === NUCLEUS:     4
 <Apr18-2019> <21:18:34>  === NUCLEUS:     5
 <Apr18-2019> <21:18:40>  === NUCLEUS:     6
 <Apr18-2019> <21:18:47>  === NUCLEUS:     7
 <Apr18-2019> <21:18:53>  === NUCLEUS:     8
 <Apr18-2019> <21:18:59>  >>>> CALC_HESS_PMAT
 <Apr18-2019> <21:19:00>  >>>> CALC_HESS_WMAT
 <Apr18-2019> <21:19:01>  NORMAL TERMINATION
 <Apr18-2019> <21:19:01>  END
