

 Parallel Execution: Process Information
 ==============================================================================
 Rank   Node Name                              NodeID   MyNodeRank  NodeMaster
    0   BAZIS-cn025                               0          0          0
    1   BAZIS-cn025                               0          1         -1
    2   BAZIS-cn025                               0          2         -1
    3   BAZIS-cn025                               0          3         -1
    4   BAZIS-cn025                               0          4         -1
    5   BAZIS-cn025                               0          5         -1
    6   BAZIS-cn025                               0          6         -1
    7   BAZIS-cn025                               0          7         -1
    8   BAZIS-cn025                               0          8         -1
    9   BAZIS-cn025                               0          9         -1
   10   BAZIS-cn025                               0         10         -1
   11   BAZIS-cn025                               0         11         -1
 ==============================================================================


May use up to 30771MB of RAM as shared memory on node 0


XC
    GGA BP86
END

SCF
    iterations 250
END

EPRINT
    SFO Eig Ovl
END

ZLMFIT
    Quality normal
END

BECKEGRID
    Quality good
End

SYMMETRY nosym
CHARGE -1

ATOMS
1.F        -4.925127    3.099639   -0.045734 f=FBr
2.Br       -3.822993    1.183548    0.096782 f=FBr
3.Br       -6.027261    5.015732   -0.188250 f=Br
END

Fragments
FBr /home/tcst25/advanced_comp_chemistry/exercise2/halogen/BrFBr/frag1_FBr.t21
Br /home/tcst25/advanced_comp_chemistry/exercise2/halogen/BrFBr/frag2_Br.t21
End
end input

 *******************************************************************************
 *                                                                             *
 *  -------------------------------------                                      *
 *   Amsterdam Density Functional  (ADF)         2017                          *
 *  -------------------------------------                                      *
 *                                               r58813 2017-04-12             *
 *                                                                             *
 *                                                                             *
 *                              =================                              *
 *                              |               |                              *
 *                              |     A D F     |                              *
 *                              |               |                              *
 *                              =================                              *
 *                                                                             *
 *                                                                             *
 *   Online information and documentation:  https://www.scm.com/support/       *
 *   E-mail:  support@scm.com   info@scm.com                                   *
 *                                                                             *
 *   Scientific publications using ADF results must be properly referenced     *
 *   See the User Manuals (or the web site) for recommended citations          *
 *   The terms and conditions of the End User License Agreement apply to       *
 *   the use of ADF, https://www.scm.com/license-terms/                        *
 *                                                                             *
 **********************  x86_64_linux_intel / intelmpi  ************************
 
 Licensed to: VU/FEW (+ SARA) / ALGEMEEN / Amsterdam / THE NETHERLANDS
 SCM User ID: u7668
  
 ADF 2017  RunTime: May09-2019 17:11:57  Nodes: 1  Procs: 12

 Temporary files are created in /local/datastore0/tcst25/189771/kid_0.uIuOmc


Communication costs MPI_COMM_WORLD:      3.881 usec per message,   0.0177 usec per 8-byte item
Communication costs for intra-node:      3.846 usec per message,   0.0173 usec per 8-byte item

 *** (NO TITLE) ***



 ===========================
 A T T A C H E D   F I L E S
 ===========================
  



 ===============================
 M O D E L   P A R A M E T E R S
 ===============================
  
 DENSITY FUNCTIONAL POTENTIAL (scf)
    LDA:                               VWN                                      
    Gradient Corrections:              Becke88 Perdew86                        == Not Default ==

 SPIN  (restricted / unrestr.)
    Molecule:                          Restricted                               
    Fragments:                         Restricted                               

 OTHER ASPECTS
    Relativistic Corrections:          ---                                      

    Nuclear Charge Density Model:      Point Charge Nuclei                      
    Core Treatment:                    Frozen Orbital(s)                        

    Hyperfine or Zeeman Interaction:   ---                                      


 Fragment File(s)
 ----------------
 FBr:
         file : /home/tcst25/advanced_comp_chemistry/exercise2/halogen/BrFBr/frag1_FBr.t21
         jobid: ADF 2017  RunTime: May09-2019 16:32:17  Nodes: 1  Procs: 12
         title: *** (NO TITLE) ***
 Br:
         file : /home/tcst25/advanced_comp_chemistry/exercise2/halogen/BrFBr/frag2_Br.t21
         jobid: ADF 2017  RunTime: May09-2019 16:32:17  Nodes: 1  Procs: 12
         title: *** (NO TITLE) ***



                                        ************************************
                                        *  R U N   T Y P E : SINGLE POINT  *
                                        ************************************
  



 ===============
 G E O M E T R Y  ***  Linear Molecule  ***
 ===============
  

 ATOMS
 =====                            X Y Z                    CHARGE
                                (Angstrom)             Nucl     +Core       At.Mass
                       --------------------------    ----------------       -------
    1  F              -4.9251    3.0996   -0.0457      9.00      9.00       18.9984
    2  Br             -3.8230    1.1835    0.0968     35.00     35.00       78.9183
    3  Br             -6.0273    5.0157   -0.1882     35.00     35.00       78.9183


 FRAGMENTS
 =========                                     Atoms in this Fragment     Cart. coord.s (Angstrom)
                                               -------------------------------------------------------
    1  FBr                                               1  F           -4.9251    3.0996   -0.0457
                                                         2  Br          -3.8230    1.1835    0.0968
    2  Br                                                3  Br          -6.0273    5.0157   -0.1882


 Interatomic Distance Matrix (Angstrom)
 --------------------------------------

   1)     0.000
   2)     2.215   0.000
   3)     2.215   4.430   0.000

 Min. Distance =    2.2150
 Max. Distance =    4.4301



 =====================================
 S Y M M E T R Y ,   E L E C T R O N S
 =====================================
  
 Symmetry: NOSYM

 Irreducible Representations, including subspecies
 -------------------------------------------------
 A


 Configuration of Valence Electrons
 ==================================
 ( determined in the SCF procedure )

 Total:   80

 Net Charge: -1 (Nuclei minus Electrons)

 Aufbau principle for MO occupations will be applied through SCF cycle no.     125
 Thereafter, the program will assign electrons to MOs that are spatially
 similar to the occupied MOs in a "reference" cycle ("KeepOrbitals").
 The reference cycle is always the PREVIOUS cycle: it will evolve with
 the SCF procedure.
1
 ***************************************************************************************************



                                      ****************************************
                                      *  B U I L D : (Fragments, Functions)  *
                                      ****************************************
  

 The individual fragments are copies of the corresponding 'Master' fragments defined on the fragment files.
 However, they may have been rotated (and translated) with respect to the Master. The local coordinate axes
 of each fragment (which define for instance the spatial orientation in the current molecule of a fragment
 P:x orbital) are not necessarily those of the molecule.
 The local frame (if different from the molecular one) is printed to enable an interpretation of the expan-
 sion of an MO in Fragment Orbitals.



                                             *************************
                                             *  Fragment Type : FBr  *
                                             *************************
  

 Fragment no.    1   (in the list of all fragments)
 -----------------
 The local coordinate frame is identical to the molecular frame.

 Check Atomic Coordinates:

                  Master (on file)          After Computed Tranformation               As specified on Input
           ----------------------------     ----------------------------     ---------------------------------
     1)    -4.92513   3.09964  -0.04573     -4.92513   3.09964  -0.04573       1  -4.92513   3.09964  -0.04573
     2)    -3.82299   1.18355   0.09678     -3.82299   1.18355   0.09678       2  -3.82299   1.18355   0.09678



                                              ************************
                                              *  Fragment Type : Br  *
                                              ************************
  

 Fragment no.    2   (in the list of all fragments)
 -----------------
 The local coordinate frame is identical to the molecular frame.

 Check Atomic Coordinates:

                  Master (on file)          After Computed Tranformation               As specified on Input
           ----------------------------     ----------------------------     ---------------------------------
     1)    -6.02726   5.01573  -0.18825     -6.02726   5.01573  -0.18825       3  -6.02726   5.01573  -0.18825



 =======
 S F O s  ***  (Symmetrized Fragment Orbitals)  ***
 =======
  
 SFOs are linear combinations of (valence) Fragment Orbitals (FOs), such that the SFOs transform as the
 irreducible representations of the (molecular) symmetry group. Each SFO is therefore characterized by
 an irrep of the molecule and by a few (or only one) generating FOs.
 The SFOs constitute a symmetry-adapted basis for the Fock matrix. The MO eigenvector coefficients in
 this basis provide a direct interpretation of the MOs in terms of Frontier Orbital Theory.

 The SFOs are combined with auxiliary Core Functions (CFs) to ensure orthogonalization on the (frozen)
 Core Orbitals (COs). The Core-orthogonalized SFOs (CSFOs) constitute the true Fock basis.

 The FOs, and hence also the (C)SFOs are combinations of the elementary basis functions (BAS). The basis
 functions that participate in the description of the SFOs depend on the irrep. The indices of the
 involved functions are printed below for each irrep.
 (The complete list of primitive basis functions is printed in another section)

 Total nr. of (C)SFOs (summation over all irreps) :   138

 NOTE: a (C)SFO that is defined as a combination of more than one FO is usually NOT normalized.



                                       === A ===
 Nr. of SFOs :  138
 Cartesian basis functions that participate in this irrep (total number =   156) :
      1     2     3     4     5     6     9    12     7    10
     13     8    11    14    15    16    17    18    19    20
     21    22    23    24    25    26    27    28    29    30
     31    32    33    40    41    66    67    68    34    37
     42    45    69    72    75    35    38    43    46    70
     73    76    36    39    44    47    71    74    77    48
     54    60    78    49    55    61    79    50    56    62
     80    51    57    63    81    52    58    64    82    53
     59    65    83    84    85    86    87    88    89    90
     91    92    93    94    95    96   103   104   129   130
    131    97   100   105   108   132   135   138    98   101
    106   109   133   136   139    99   102   107   110   134
    137   140   111   117   123   141   112   118   124   142
    113   119   125   143   114   120   126   144   115   121
    127   145   116   122   128   146   147   148   149   150
    151   152   153   154   155   156

    SFO  (index         Fragment          Generating    Expansion in Fragment Orbitals
  indx  incl.CFs)   Occup   Orb.Energy   FragmentType  Coeff.   Orbital     on Fragment
 --------------------------------------------------------------------------------------
     1       1      2.000    -481.084 au  FBr           1.00      1 A               1
                        (  -13090.963 eV)
     2       2      2.000     -61.838 au  FBr           1.00      2 A               1
                        (   -1682.703 eV)
     3       3      2.000     -55.774 au  FBr           1.00      3 A               1
                        (   -1517.691 eV)
     4       4      2.000     -55.765 au  FBr           1.00      4 A               1
                        (   -1517.449 eV)
     5       5      2.000     -55.765 au  FBr           1.00      5 A               1
                        (   -1517.449 eV)
     6       6      2.000     -24.307 au  FBr           1.00      6 A               1
                        (    -661.419 eV)
     7       7      2.000      -8.457 au  FBr           1.00      7 A               1
                        (    -230.137 eV)
     8       8      2.000      -6.374 au  FBr           1.00      8 A               1
                        (    -173.443 eV)
     9       9      2.000      -6.348 au  FBr           1.00      9 A               1
                        (    -172.750 eV)
    10      10      2.000      -6.348 au  FBr           1.00     10 A               1
                        (    -172.750 eV)
    11      11      2.000      -2.577 au  FBr           1.00     11 A               1
                        (     -70.113 eV)
    12      12      2.000      -2.571 au  FBr           1.00     12 A               1
                        (     -69.949 eV)
    13      13      2.000      -2.571 au  FBr           1.00     13 A               1
                        (     -69.949 eV)
    14      14      2.000      -2.552 au  FBr           1.00     14 A               1
                        (     -69.446 eV)
    15      15      2.000      -2.552 au  FBr           1.00     15 A               1
                        (     -69.446 eV)
    16      16      2.000      -1.039 au  FBr           1.00     16 A               1
                        (     -28.260 eV)
    17      17      2.000      -0.746 au  FBr           1.00     17 A               1
                        (     -20.287 eV)
    18      18      2.000      -0.418 au  FBr           1.00     18 A               1
                        (     -11.365 eV)
    19      19      2.000      -0.353 au  FBr           1.00     19 A               1
                        (      -9.606 eV)
    20      20      2.000      -0.353 au  FBr           1.00     20 A               1
                        (      -9.606 eV)
    21      21      2.000      -0.300 au  FBr           1.00     21 A               1
                        (      -8.152 eV)
    22      22      2.000      -0.300 au  FBr           1.00     22 A               1
                        (      -8.152 eV)
    23      23       --        -0.269 au  FBr           1.00     23 A               1
                        (      -7.312 eV)
    24      24       --         0.036 au  FBr           1.00     24 A               1
                        (       0.967 eV)
    25      25       --         0.118 au  FBr           1.00     25 A               1
                        (       3.204 eV)
    26      26       --         0.128 au  FBr           1.00     26 A               1
                        (       3.496 eV)
    27      27       --         0.128 au  FBr           1.00     27 A               1
                        (       3.496 eV)
    28      28       --         0.231 au  FBr           1.00     28 A               1
                        (       6.275 eV)
    29      29       --         0.231 au  FBr           1.00     29 A               1
                        (       6.275 eV)
    30      30       --         0.245 au  FBr           1.00     30 A               1
                        (       6.680 eV)
    31      31       --         0.245 au  FBr           1.00     31 A               1
                        (       6.680 eV)
    32      32       --         0.246 au  FBr           1.00     32 A               1
                        (       6.688 eV)
    33      33       --         0.400 au  FBr           1.00     33 A               1
                        (      10.874 eV)
    34      34       --         0.552 au  FBr           1.00     34 A               1
                        (      15.007 eV)
    35      35       --         0.552 au  FBr           1.00     35 A               1
                        (      15.007 eV)
    36      36       --         0.712 au  FBr           1.00     36 A               1
                        (      19.368 eV)
    37      37       --         0.801 au  FBr           1.00     37 A               1
                        (      21.792 eV)
    38      38       --         0.801 au  FBr           1.00     38 A               1
                        (      21.792 eV)
    39      39       --         0.822 au  FBr           1.00     39 A               1
                        (      22.367 eV)
    40      40       --         0.822 au  FBr           1.00     40 A               1
                        (      22.367 eV)
    41      41       --         0.836 au  FBr           1.00     41 A               1
                        (      22.749 eV)
    42      42       --         0.836 au  FBr           1.00     42 A               1
                        (      22.749 eV)
    43      43       --         0.913 au  FBr           1.00     43 A               1
                        (      24.845 eV)
    44      44       --         1.176 au  FBr           1.00     44 A               1
                        (      32.011 eV)
    45      45       --         1.176 au  FBr           1.00     45 A               1
                        (      32.011 eV)
    46      46       --         1.180 au  FBr           1.00     46 A               1
                        (      32.112 eV)
    47      47       --         1.221 au  FBr           1.00     47 A               1
                        (      33.213 eV)
    48      48       --         1.221 au  FBr           1.00     48 A               1
                        (      33.213 eV)
    49      49       --         1.443 au  FBr           1.00     49 A               1
                        (      39.262 eV)
    50      50       --         1.466 au  FBr           1.00     50 A               1
                        (      39.899 eV)
    51      51       --         1.466 au  FBr           1.00     51 A               1
                        (      39.899 eV)
    52      52       --         2.180 au  FBr           1.00     52 A               1
                        (      59.327 eV)
    53      53       --         2.553 au  FBr           1.00     53 A               1
                        (      69.459 eV)
    54      54       --         2.650 au  FBr           1.00     54 A               1
                        (      72.102 eV)
    55      55       --         2.650 au  FBr           1.00     55 A               1
                        (      72.104 eV)
    56      56       --         2.751 au  FBr           1.00     56 A               1
                        (      74.870 eV)
    57      57       --         2.751 au  FBr           1.00     57 A               1
                        (      74.870 eV)
    58      58       --         3.292 au  FBr           1.00     58 A               1
                        (      89.575 eV)
    59      59       --         3.479 au  FBr           1.00     59 A               1
                        (      94.657 eV)
    60      60       --         3.479 au  FBr           1.00     60 A               1
                        (      94.657 eV)
    61      61       --         3.500 au  FBr           1.00     61 A               1
                        (      95.246 eV)
    62      62       --         3.500 au  FBr           1.00     62 A               1
                        (      95.247 eV)
    63      63       --         3.619 au  FBr           1.00     63 A               1
                        (      98.485 eV)
    64      64       --         3.619 au  FBr           1.00     64 A               1
                        (      98.485 eV)
    65      65       --         3.679 au  FBr           1.00     65 A               1
                        (     100.114 eV)
    66      66       --         4.776 au  FBr           1.00     66 A               1
                        (     129.961 eV)
    67      67       --         4.776 au  FBr           1.00     67 A               1
                        (     129.961 eV)
    68      68       --         5.094 au  FBr           1.00     68 A               1
                        (     138.627 eV)
    69      69       --         8.813 au  FBr           1.00     69 A               1
                        (     239.814 eV)
    70      70       --         8.813 au  FBr           1.00     70 A               1
                        (     239.817 eV)
    71      71       --         9.034 au  FBr           1.00     71 A               1
                        (     245.829 eV)
    72      72       --        14.656 au  FBr           1.00     72 A               1
                        (     398.807 eV)
    73      73       --        20.569 au  FBr           1.00     73 A               1
                        (     559.706 eV)
    74      74       --        20.569 au  FBr           1.00     74 A               1
                        (     559.708 eV)
    75      75       --        20.708 au  FBr           1.00     75 A               1
                        (     563.489 eV)
    76      76       --        20.708 au  FBr           1.00     76 A               1
                        (     563.490 eV)
    77      77       --        21.018 au  FBr           1.00     77 A               1
                        (     571.918 eV)
    78      78       --        49.862 au  FBr           1.00     78 A               1
                        (    1356.809 eV)
    79      79       --       100.853 au  FBr           1.00     79 A               1
                        (    2744.356 eV)
    80      80       --       100.853 au  FBr           1.00     80 A               1
                        (    2744.356 eV)
    81      81       --       101.383 au  FBr           1.00     81 A               1
                        (    2758.767 eV)
    82      82       --       748.231 au  FBr           1.00     82 A               1
                        (   20360.397 eV)
    83      83      2.000    -480.688 au  Br            1.00      1 A               2
                        (  -13080.195 eV)
    84      84      2.000     -61.445 au  Br            1.00      2 A               2
                        (   -1672.008 eV)
    85      85      2.000     -55.375 au  Br            1.00      3 A               2
                        (   -1506.824 eV)
    86      86      2.000     -55.375 au  Br            1.00      4 A               2
                        (   -1506.824 eV)
    87      87      2.000     -55.375 au  Br            1.00      5 A               2
                        (   -1506.824 eV)
    88      88      2.000      -8.066 au  Br            1.00      6 A               2
                        (    -219.480 eV)
    89      89      2.000      -5.966 au  Br            1.00      7 A               2
                        (    -162.330 eV)
    90      90      2.000      -5.966 au  Br            1.00      8 A               2
                        (    -162.330 eV)
    91      91      2.000      -5.966 au  Br            1.00      9 A               2
                        (    -162.330 eV)
    92      92      2.000      -2.173 au  Br            1.00     10 A               2
                        (     -59.143 eV)
    93      93      2.000      -2.173 au  Br            1.00     11 A               2
                        (     -59.143 eV)
    94      94      2.000      -2.173 au  Br            1.00     12 A               2
                        (     -59.143 eV)
    95      95      2.000      -2.173 au  Br            1.00     13 A               2
                        (     -59.143 eV)
    96      96      2.000      -2.173 au  Br            1.00     14 A               2
                        (     -59.143 eV)
    97      97      2.000      -0.386 au  Br            1.00     15 A               2
                        (     -10.500 eV)
    98      98      2.000       0.016 au  Br            1.00     16 A               2
                        (       0.447 eV)
    99      99      2.000       0.016 au  Br            1.00     17 A               2
                        (       0.447 eV)
   100     100      2.000       0.016 au  Br            1.00     18 A               2
                        (       0.447 eV)
   101     101       --         0.352 au  Br            1.00     19 A               2
                        (       9.589 eV)
   102     102       --         0.352 au  Br            1.00     20 A               2
                        (       9.589 eV)
   103     103       --         0.352 au  Br            1.00     21 A               2
                        (       9.589 eV)
   104     104       --         0.501 au  Br            1.00     22 A               2
                        (      13.634 eV)
   105     105       --         0.551 au  Br            1.00     23 A               2
                        (      15.005 eV)
   106     106       --         0.551 au  Br            1.00     24 A               2
                        (      15.005 eV)
   107     107       --         0.551 au  Br            1.00     25 A               2
                        (      15.005 eV)
   108     108       --         0.551 au  Br            1.00     26 A               2
                        (      15.005 eV)
   109     109       --         0.551 au  Br            1.00     27 A               2
                        (      15.005 eV)
   110     110       --         1.141 au  Br            1.00     28 A               2
                        (      31.038 eV)
   111     111       --         1.141 au  Br            1.00     29 A               2
                        (      31.038 eV)
   112     112       --         1.141 au  Br            1.00     30 A               2
                        (      31.038 eV)
   113     113       --         1.141 au  Br            1.00     31 A               2
                        (      31.038 eV)
   114     114       --         1.141 au  Br            1.00     32 A               2
                        (      31.038 eV)
   115     115       --         1.141 au  Br            1.00     33 A               2
                        (      31.038 eV)
   116     116       --         1.141 au  Br            1.00     34 A               2
                        (      31.038 eV)
   117     117       --         1.505 au  Br            1.00     35 A               2
                        (      40.949 eV)
   118     118       --         1.505 au  Br            1.00     36 A               2
                        (      40.949 eV)
   119     119       --         1.505 au  Br            1.00     37 A               2
                        (      40.949 eV)
   120     120       --         2.776 au  Br            1.00     38 A               2
                        (      75.551 eV)
   121     121       --         3.002 au  Br            1.00     39 A               2
                        (      81.690 eV)
   122     122       --         3.002 au  Br            1.00     40 A               2
                        (      81.690 eV)
   123     123       --         3.002 au  Br            1.00     41 A               2
                        (      81.690 eV)
   124     124       --         3.002 au  Br            1.00     42 A               2
                        (      81.690 eV)
   125     125       --         3.002 au  Br            1.00     43 A               2
                        (      81.690 eV)
   126     126       --         9.163 au  Br            1.00     44 A               2
                        (     249.341 eV)
   127     127       --         9.163 au  Br            1.00     45 A               2
                        (     249.341 eV)
   128     128       --         9.163 au  Br            1.00     46 A               2
                        (     249.341 eV)
   129     129       --        14.623 au  Br            1.00     47 A               2
                        (     397.911 eV)
   130     130       --        20.941 au  Br            1.00     48 A               2
                        (     569.821 eV)
   131     131       --        20.941 au  Br            1.00     49 A               2
                        (     569.821 eV)
   132     132       --        20.941 au  Br            1.00     50 A               2
                        (     569.821 eV)
   133     133       --        20.941 au  Br            1.00     51 A               2
                        (     569.821 eV)
   134     134       --        20.941 au  Br            1.00     52 A               2
                        (     569.821 eV)
   135     135       --       101.209 au  Br            1.00     53 A               2
                        (    2754.029 eV)
   136     136       --       101.209 au  Br            1.00     54 A               2
                        (    2754.029 eV)
   137     137       --       101.209 au  Br            1.00     55 A               2
                        (    2754.029 eV)
   138     138       --       746.807 au  Br            1.00     56 A               2
                        (   20321.657 eV)



 ================================
 (Slater-type)  F U N C T I O N S  ***  (Basis and Fit)  ***
 ================================
  

 Atom Type    1  (F)
 ==============

 Valence Basis Sets:  10
 -----------------------
   1 S   10.880000
   1 S    7.700000
   2 S    3.240000
   2 S    1.940000
   2 S    0.740000
   2 P    4.540000
   2 P    2.300000
   2 P    1.240000
   3 D    2.000000
   4 F    3.000000

 Atom Type    2  (Br)
 ==============

 Valence Basis Sets:  20
 -----------------------
   1 S   41.300000
   1 S   32.800000
   2 S   13.900000
   2 P   19.450000
   2 P   13.100000
   3 S    7.200000
   3 S    4.950000
   3 P    7.900000
   3 P    5.050000
   3 D   10.900000
   3 D    6.050000
   3 D    3.500000
   4 S    4.500000
   4 S    2.800000
   4 S    1.800000
   4 P    3.250000
   4 P    1.950000
   4 P    1.200000
   4 D    1.800000
   4 F    1.800000

 Atom Type    3  (Br)
 ==============

 Valence Basis Sets:  20
 -----------------------
   1 S   41.300000
   1 S   32.800000
   2 S   13.900000
   2 P   19.450000
   2 P   13.100000
   3 S    7.200000
   3 S    4.950000
   3 P    7.900000
   3 P    5.050000
   3 D   10.900000
   3 D    6.050000
   3 D    3.500000
   4 S    4.500000
   4 S    2.800000
   4 S    1.800000
   4 P    3.250000
   4 P    1.950000
   4 P    1.200000
   4 D    1.800000
   4 F    1.800000


 BAS: List of all Elementary Cartesian Basis Functions
 =====================================================

 The numbering in the list below (to the right of the function characteristics) is referred
 to in print-outs of MO eigenvectors and Mulliken populations in the BAS representation
 (as contrasted to the SFO representation).

 Notes:
 1. The functions are characterized by a polynomial prefactor (powers of x,y,z and r) and
    an exponential decay factor alpha.
 2. Since the basis sets are specific for an atom TYPE, the individual functions occur on
    all atoms of that type.
 3. The word 'Core' in the left margin signals that it is a Core Function (CF) : not a
    degree of freedom in the valence set, but only used to ensure orthogonalization of
    the other valence basis functions on the frozen Core Orbitals.


 (power of) X  Y  Z  R     Alpha  on Atom
            ==========     =====     ==========

 F                                    1
                                  ---------------------------------------------------------------------------
            0  0  0  0    10.880      1
            0  0  0  0     7.700      2
            0  0  0  1     3.240      3
            0  0  0  1     1.940      4
            0  0  0  1     0.740      5
            1  0  0  0     4.540      6
            0  1  0  0     4.540      7
            0  0  1  0     4.540      8
            1  0  0  0     2.300      9
            0  1  0  0     2.300     10
            0  0  1  0     2.300     11
            1  0  0  0     1.240     12
            0  1  0  0     1.240     13
            0  0  1  0     1.240     14
            2  0  0  0     2.000     15
            1  1  0  0     2.000     16
            1  0  1  0     2.000     17
            0  2  0  0     2.000     18
            0  1  1  0     2.000     19
            0  0  2  0     2.000     20
            3  0  0  0     3.000     21
            2  1  0  0     3.000     22
            2  0  1  0     3.000     23
            1  2  0  0     3.000     24
            1  1  1  0     3.000     25
            1  0  2  0     3.000     26
            0  3  0  0     3.000     27
            0  2  1  0     3.000     28
            0  1  2  0     3.000     29
            0  0  3  0     3.000     30

 Br                                   2
                                  ---------------------------------------------------------------------------
            0  0  0  0    41.300     31
            0  0  0  0    32.800     32
            0  0  0  1    13.900     33
            1  0  0  0    19.450     34
            0  1  0  0    19.450     35
            0  0  1  0    19.450     36
            1  0  0  0    13.100     37
            0  1  0  0    13.100     38
            0  0  1  0    13.100     39
            0  0  0  2     7.200     40
            0  0  0  2     4.950     41
            1  0  0  1     7.900     42
            0  1  0  1     7.900     43
            0  0  1  1     7.900     44
            1  0  0  1     5.050     45
            0  1  0  1     5.050     46
            0  0  1  1     5.050     47
            2  0  0  0    10.900     48
            1  1  0  0    10.900     49
            1  0  1  0    10.900     50
            0  2  0  0    10.900     51
            0  1  1  0    10.900     52
            0  0  2  0    10.900     53
            2  0  0  0     6.050     54
            1  1  0  0     6.050     55
            1  0  1  0     6.050     56
            0  2  0  0     6.050     57
            0  1  1  0     6.050     58
            0  0  2  0     6.050     59
            2  0  0  0     3.500     60
            1  1  0  0     3.500     61
            1  0  1  0     3.500     62
            0  2  0  0     3.500     63
            0  1  1  0     3.500     64
            0  0  2  0     3.500     65
            0  0  0  3     4.500     66
            0  0  0  3     2.800     67
            0  0  0  3     1.800     68
            1  0  0  2     3.250     69
            0  1  0  2     3.250     70
            0  0  1  2     3.250     71
            1  0  0  2     1.950     72
            0  1  0  2     1.950     73
            0  0  1  2     1.950     74
            1  0  0  2     1.200     75
            0  1  0  2     1.200     76
            0  0  1  2     1.200     77
            2  0  0  1     1.800     78
            1  1  0  1     1.800     79
            1  0  1  1     1.800     80
            0  2  0  1     1.800     81
            0  1  1  1     1.800     82
            0  0  2  1     1.800     83
            3  0  0  0     1.800     84
            2  1  0  0     1.800     85
            2  0  1  0     1.800     86
            1  2  0  0     1.800     87
            1  1  1  0     1.800     88
            1  0  2  0     1.800     89
            0  3  0  0     1.800     90
            0  2  1  0     1.800     91
            0  1  2  0     1.800     92
            0  0  3  0     1.800     93

 Br                                   3
                                  ---------------------------------------------------------------------------
            0  0  0  0    41.300     94
            0  0  0  0    32.800     95
            0  0  0  1    13.900     96
            1  0  0  0    19.450     97
            0  1  0  0    19.450     98
            0  0  1  0    19.450     99
            1  0  0  0    13.100    100
            0  1  0  0    13.100    101
            0  0  1  0    13.100    102
            0  0  0  2     7.200    103
            0  0  0  2     4.950    104
            1  0  0  1     7.900    105
            0  1  0  1     7.900    106
            0  0  1  1     7.900    107
            1  0  0  1     5.050    108
            0  1  0  1     5.050    109
            0  0  1  1     5.050    110
            2  0  0  0    10.900    111
            1  1  0  0    10.900    112
            1  0  1  0    10.900    113
            0  2  0  0    10.900    114
            0  1  1  0    10.900    115
            0  0  2  0    10.900    116
            2  0  0  0     6.050    117
            1  1  0  0     6.050    118
            1  0  1  0     6.050    119
            0  2  0  0     6.050    120
            0  1  1  0     6.050    121
            0  0  2  0     6.050    122
            2  0  0  0     3.500    123
            1  1  0  0     3.500    124
            1  0  1  0     3.500    125
            0  2  0  0     3.500    126
            0  1  1  0     3.500    127
            0  0  2  0     3.500    128
            0  0  0  3     4.500    129
            0  0  0  3     2.800    130
            0  0  0  3     1.800    131
            1  0  0  2     3.250    132
            0  1  0  2     3.250    133
            0  0  1  2     3.250    134
            1  0  0  2     1.950    135
            0  1  0  2     1.950    136
            0  0  1  2     1.950    137
            1  0  0  2     1.200    138
            0  1  0  2     1.200    139
            0  0  1  2     1.200    140
            2  0  0  1     1.800    141
            1  1  0  1     1.800    142
            1  0  1  1     1.800    143
            0  2  0  1     1.800    144
            0  1  1  1     1.800    145
            0  0  2  1     1.800    146
            3  0  0  0     1.800    147
            2  1  0  0     1.800    148
            2  0  1  0     1.800    149
            1  2  0  0     1.800    150
            1  1  1  0     1.800    151
            1  0  2  0     1.800    152
            0  3  0  0     1.800    153
            0  2  1  0     1.800    154
            0  1  2  0     1.800    155
            0  0  3  0     1.800    156

 Total number of charge fitting functions (nprimf)       425
 Total number of Cartesian basis functions (naos)        156
 Total number of Cartesian core functions  (ncos)          0

1
 ***************************************************************************************************



                                              ***********************
                                              *  T E C H N I C A L  *
                                              ***********************
  



 =============================================================
 P A R A L L E L I Z A T I O N  and  V E C T O R I Z A T I O N
 =============================================================
  
 Nr of parallel processes:                               12
 Maximum vector length in NumInt loops:                 128

 IO buffersize (Mb):                                     64.000000



 =====================
 S C F   U P D A T E S
 =====================
  
 Max. nr. of cycles:                               250
 Convergence criterion:                              0.0000010000
   secondary criterion:                              0.0010000000

 Mix parameter (when DIIS does not apply):           0.2000000000
 Mixed ADIIS+DIIS will be used
    Max number of expansion vectors:                10
    Pure ADIIS when Max([F,P]) is above              0.1000000000
    Pure DIIS when Max([F,P]) is below               0.0010000000
 Automatic ElectronSmearing (in case of problematic SCF convergence) disabled



 =================
 P R E C I S I O N  ***  (General: NumInt, NeglectFunctionTails, ...)  ***
 =================
  

 NumInt:           Target precision:                 6.0000000000
 -------           Initial precision:                6.0000000000
                   Min. precision (optimization):    6.0000000000

 Neglect Functions:          Basis functions:        0.1000000000E-07
 ------------------          Fit functions:          0.1000000000E-07



 ===========================
 L I N E A R   S C A L I N G
 ===========================
  

 Cut-off radii density fit:                        0.1000000000E-09
 Overlap cut-off criterion AO matrix elements:     0.1000000000E-07
 Cut-offs for Coulomb potential and fitted density:0.1000000000E-09
 Cut-off criterion for Coulomb multipole terms:    0.1000000000E-09
 Progressive Convergence parameter:                 0.000000000    
1
 ***************************************************************************************************



                                            ***************************
                                            *  C O M P U T A T I O N  *
                                            ***************************
  

 Number of elements of the density matrix on this node (used, total):      2016     12246



 ===========================================
 Numerical Integration : Fuzzy Cells (Becke)
 ===========================================
  
 Becke grid quality: GOOD           
  
 Lebedev angular grid order:             min:  11 max:  31
 Nr. of radial points:                   min:  65 max:  90

 Total nr. of points:      52930
 Nr. of blocks:              414
 Block length:               128
 Nr. of dummy points:         62


 Test of Precision of the Numerical Integration Grid
 ===================================================

 Integral of the Total Core Density:                   0.00000000000000



 ========================
 Density Fitting (zlmFit)
 ========================
  
 ZlmFit Fit Quality: NORMAL         
  
 Max L-expansion:                        min:   7 max:   7
 Nr. of radial interpolation points:     min:  51 max:  72



 =====
 S C F  ***  ScaSCF  ***
 =====
  
 Initial density matrix is calculated as sum of fragments

 CYCLE    1
 SCF Error: norm([F,P])=      1.166086990449, max([F,P])=      0.606355385294
 orbitals (Q,E):
 ---------------
 A :31...50          ( 2.00    -0.6383)  ( 2.00    -0.3895)  ( 2.00    -0.2627)  ( 2.00    -0.2108)
                     ( 2.00    -0.2108)  ( 2.00    -0.1330)  ( 2.00    -0.1330)  ( 2.00    -0.1249)
                     ( 2.00     0.0205)  ( 2.00     0.0205)  ( 0.00     0.0617)  ( 0.00     0.1634)
                     ( 0.00     0.2406)  ( 0.00     0.2406)  ( 0.00     0.2493)  ( 0.00     0.3389)
                     ( 0.00     0.3389)  ( 0.00     0.3475)  ( 0.00     0.3475)  ( 0.00     0.3501)

 CYCLE    2
  SDIIS (wt  0.000):  0.4137  0.5863
 A-DIIS (wt  1.000):  0.8519  0.1481
  DIIS coefficients:  0.8519  0.1481
 SCF Error: norm([F,P])=      0.975138999302, max([F,P])=      0.250710504933
 orbitals (Q,E):
 ---------------
 A :31...41          ( 2.00    -0.5652)  ( 2.00    -0.4578)  ( 2.00    -0.2193)  ( 2.00    -0.1529)
                     ( 2.00    -0.1529)  ( 2.00    -0.1067)  ( 2.00    -0.1067)  ( 2.00    -0.0954)
                     ( 2.00    -0.0363)  ( 2.00    -0.0363)  ( 0.00     0.0174)

 CYCLE    3
  SDIIS (wt  0.000):  0.1630 -0.2742  1.1112
 A-DIIS (wt  1.000):  0.7685  0.0000  0.2315
  DIIS coefficients:  0.7685  0.0000  0.2315
 SCF Error: norm([F,P])=      0.547240742501, max([F,P])=      0.181642413822
 orbitals (Q,E):
 ---------------
 A :31...41          ( 2.00    -0.5533)  ( 2.00    -0.4643)  ( 2.00    -0.2333)  ( 2.00    -0.1611)
                     ( 2.00    -0.1611)  ( 2.00    -0.1176)  ( 2.00    -0.1176)  ( 2.00    -0.0968)
                     ( 2.00    -0.0437)  ( 2.00    -0.0437)  ( 0.00     0.0038)

 CYCLE    4
  SDIIS (wt  0.000): -0.8967  0.1597  1.7370
 A-DIIS (wt  1.000):  0.0000  0.7092  0.2908
  DIIS coefficients:  0.0000  0.7092  0.2908
 SCF Error: norm([F,P])=      0.578504998785, max([F,P])=      0.234592296488
 orbitals (Q,E):
 ---------------
 A :31...41          ( 2.00    -0.7221)  ( 2.00    -0.3305)  ( 2.00    -0.2811)  ( 2.00    -0.2811)
                     ( 2.00    -0.2707)  ( 2.00    -0.1467)  ( 2.00    -0.1467)  ( 2.00    -0.1329)
                     ( 2.00     0.1056)  ( 2.00     0.1056)  ( 0.00     0.1366)

 CYCLE    5
  SDIIS (wt  0.000): -0.1697  0.7213  0.2383  0.2100
 A-DIIS (wt  1.000):  0.0000  0.7418  0.0000  0.2582
  DIIS coefficients:  0.0000  0.7418  0.0000  0.2582
 SCF Error: norm([F,P])=      1.513618368016, max([F,P])=      0.411032063489
 orbitals (Q,E):
 ---------------
 A :31...41          ( 2.00    -0.5481)  ( 2.00    -0.4611)  ( 2.00    -0.2060)  ( 2.00    -0.1406)
                     ( 2.00    -0.1406)  ( 2.00    -0.0993)  ( 2.00    -0.0993)  ( 2.00    -0.0849)
                     ( 2.00    -0.0409)  ( 2.00    -0.0409)  ( 0.00     0.0199)

 CYCLE    6
  SDIIS (wt  0.000): -0.1954 -0.1533  0.8590 -0.0086  0.4982
 A-DIIS (wt  1.000):  0.0000  0.0000  0.4561  0.0000  0.5439
  DIIS coefficients:  0.0000  0.0000  0.4561  0.0000  0.5439
 SCF Error: norm([F,P])=      0.515553659221, max([F,P])=      0.149041098811
 orbitals (Q,E):
 ---------------
 A :31...41          ( 2.00    -0.5057)  ( 2.00    -0.4921)  ( 2.00    -0.2326)  ( 2.00    -0.1682)
                     ( 2.00    -0.1682)  ( 2.00    -0.0811)  ( 2.00    -0.0811)  ( 2.00    -0.0764)
                     ( 2.00    -0.0709)  ( 2.00    -0.0709)  ( 0.00    -0.0103)

 CYCLE    7
  SDIIS (wt  0.608): -0.0707  0.1153  0.0676 -0.0414  0.1776  0.7516
 A-DIIS (wt  0.392):  0.0000  0.0000  0.0000  0.0000  0.0000  1.0000
  DIIS coefficients: -0.0430  0.0701  0.0411 -0.0251  0.1080  0.8490
 SCF Error: norm([F,P])=      0.122852686835, max([F,P])=      0.039822543090
 orbitals (Q,E):
 ---------------
 A :31...41          ( 2.00    -0.5100)  ( 2.00    -0.4973)  ( 2.00    -0.2209)  ( 2.00    -0.1491)
                     ( 2.00    -0.1491)  ( 2.00    -0.0850)  ( 2.00    -0.0850)  ( 2.00    -0.0806)
                     ( 2.00    -0.0713)  ( 2.00    -0.0713)  ( 0.00    -0.0069)

 CYCLE    8
  SDIIS (wt  0.000):  0.0007 -0.0605  0.0707 -0.0039  0.0280  0.4844  0.4807
 A-DIIS (wt  1.000):  0.0000  0.0000  0.0000  0.0000  0.0000  0.5646  0.4354
  DIIS coefficients:  0.0000  0.0000  0.0000  0.0000  0.0000  0.5646  0.4354
 SCF Error: norm([F,P])=      0.140106383033, max([F,P])=      0.052460522921
 orbitals (Q,E):
 ---------------
 A :31...41          ( 2.00    -0.5097)  ( 2.00    -0.4965)  ( 2.00    -0.2290)  ( 2.00    -0.1599)
                     ( 2.00    -0.1599)  ( 2.00    -0.0846)  ( 2.00    -0.0846)  ( 2.00    -0.0803)
                     ( 2.00    -0.0729)  ( 2.00    -0.0729)  ( 0.00    -0.0109)

 CYCLE    9
  SDIIS (wt  0.963): -0.0077  0.0079  0.0114 -0.0013  0.0016  0.2384  0.1428  0.6069
 A-DIIS (wt  0.037):  0.0000  0.0000  0.0000  0.0000  0.0000  0.0000  0.0000  1.0000
  DIIS coefficients: -0.0074  0.0076  0.0110 -0.0012  0.0016  0.2295  0.1375  0.6215
 SCF Error: norm([F,P])=      0.017534097614, max([F,P])=      0.004694470592
 orbitals (Q,E):
 ---------------
 A :31...41          ( 2.00    -0.5089)  ( 2.00    -0.4957)  ( 2.00    -0.2292)  ( 2.00    -0.1605)
                     ( 2.00    -0.1605)  ( 2.00    -0.0839)  ( 2.00    -0.0839)  ( 2.00    -0.0796)
                     ( 2.00    -0.0724)  ( 2.00    -0.0724)  ( 0.00    -0.0106)

 CYCLE   10
  SDIIS (wt  0.987): -0.0006  0.0035 -0.0026  0.0002  0.0010  0.0945  0.0822  0.2092  0.6125
 A-DIIS (wt  0.013):  0.0000  0.0000  0.0000  0.0000  0.0000  0.0000  0.0000  0.2581  0.7419
  DIIS coefficients: -0.0005  0.0035 -0.0026  0.0002  0.0010  0.0933  0.0811  0.2099  0.6142
 SCF Error: norm([F,P])=      0.006827373987, max([F,P])=      0.002298861550
 orbitals (Q,E):
 ---------------
 A :31...41          ( 2.00    -0.5090)  ( 2.00    -0.4959)  ( 2.00    -0.2289)  ( 2.00    -0.1601)
                     ( 2.00    -0.1601)  ( 2.00    -0.0840)  ( 2.00    -0.0840)  ( 2.00    -0.0798)
                     ( 2.00    -0.0725)  ( 2.00    -0.0725)  ( 0.00    -0.0106)

 CYCLE   11
  SDIIS (wt  1.000):  0.0006  0.0015 -0.0040 -0.0000  0.0016  0.0120  0.0098  0.0235  0.2007  0.7544
  DIIS coefficients:  0.0006  0.0015 -0.0040 -0.0000  0.0016  0.0120  0.0098  0.0235  0.2007  0.7544
 SCF Error: norm([F,P])=      0.001429568918, max([F,P])=      0.000565972131
 orbitals (Q,E):
 ---------------
 A :31...41          ( 2.00    -0.5090)  ( 2.00    -0.4958)  ( 2.00    -0.2289)  ( 2.00    -0.1600)
                     ( 2.00    -0.1600)  ( 2.00    -0.0840)  ( 2.00    -0.0840)  ( 2.00    -0.0797)
                     ( 2.00    -0.0724)  ( 2.00    -0.0724)  ( 0.00    -0.0105)

 CYCLE   12
  SDIIS (wt  1.000):  0.0007 -0.0014 -0.0001  0.0010  0.0054 -0.0019  0.0188 -0.0167  0.2759  0.7184
  DIIS coefficients:  0.0007 -0.0014 -0.0001  0.0010  0.0054 -0.0019  0.0188 -0.0167  0.2759  0.7184
 SCF Error: norm([F,P])=      0.000886516537, max([F,P])=      0.000339761322
 orbitals (Q,E):
 ---------------
 A :31...41          ( 2.00    -0.5090)  ( 2.00    -0.4958)  ( 2.00    -0.2289)  ( 2.00    -0.1601)
                     ( 2.00    -0.1601)  ( 2.00    -0.0840)  ( 2.00    -0.0840)  ( 2.00    -0.0797)
                     ( 2.00    -0.0724)  ( 2.00    -0.0724)  ( 0.00    -0.0105)

 CYCLE   13
  SDIIS (wt  1.000): -0.0002 -0.0000  0.0003 -0.0020 -0.0049 -0.0042 -0.0994 -0.0417  0.2942  0.8579
  DIIS coefficients: -0.0002 -0.0000  0.0003 -0.0020 -0.0049 -0.0042 -0.0994 -0.0417  0.2942  0.8579
 SCF Error: norm([F,P])=      0.000535166445, max([F,P])=      0.000226413293
 orbitals (Q,E):
 ---------------
 A :31...41          ( 2.00    -0.5090)  ( 2.00    -0.4958)  ( 2.00    -0.2289)  ( 2.00    -0.1601)
                     ( 2.00    -0.1601)  ( 2.00    -0.0840)  ( 2.00    -0.0840)  ( 2.00    -0.0797)
                     ( 2.00    -0.0724)  ( 2.00    -0.0724)  ( 0.00    -0.0105)

 CYCLE   14
  SDIIS (wt  1.000):  0.0000 -0.0000 -0.0012 -0.0014 -0.0042 -0.0373 -0.0712  0.0016  0.1613  0.9524
  DIIS coefficients:  0.0000 -0.0000 -0.0012 -0.0014 -0.0042 -0.0373 -0.0712  0.0016  0.1613  0.9524
 SCF Error: norm([F,P])=      0.000154604149, max([F,P])=      0.000064111393
 orbitals (Q,E):
 ---------------
 A :31...41          ( 2.00    -0.5090)  ( 2.00    -0.4958)  ( 2.00    -0.2289)  ( 2.00    -0.1601)
                     ( 2.00    -0.1601)  ( 2.00    -0.0840)  ( 2.00    -0.0840)  ( 2.00    -0.0797)
                     ( 2.00    -0.0724)  ( 2.00    -0.0724)  ( 0.00    -0.0105)

 CYCLE   15
  SDIIS (wt  1.000):  0.0000 -0.0002 -0.0002 -0.0007 -0.0084 -0.0197  0.0026  0.0149  0.2725  0.7392
  DIIS coefficients:  0.0000 -0.0002 -0.0002 -0.0007 -0.0084 -0.0197  0.0026  0.0149  0.2725  0.7392
 SCF Error: norm([F,P])=      0.000012095460, max([F,P])=      0.000004583744
 orbitals (Q,E):
 ---------------
 A :31...41          ( 2.00    -0.5090)  ( 2.00    -0.4958)  ( 2.00    -0.2289)  ( 2.00    -0.1601)
                     ( 2.00    -0.1601)  ( 2.00    -0.0840)  ( 2.00    -0.0840)  ( 2.00    -0.0797)
                     ( 2.00    -0.0724)  ( 2.00    -0.0724)  ( 0.00    -0.0105)

 CYCLE   16
  SDIIS (wt  1.000): -0.0000 -0.0000 -0.0001 -0.0015 -0.0044 -0.0018  0.0006  0.0556  0.3284  0.6234
  DIIS coefficients: -0.0000 -0.0000 -0.0001 -0.0015 -0.0044 -0.0018  0.0006  0.0556  0.3284  0.6234
 SCF Error: norm([F,P])=      0.000004076099, max([F,P])=      0.000001394166
 orbitals (Q,E):
 ---------------
 A :31...41          ( 2.00    -0.5090)  ( 2.00    -0.4958)  ( 2.00    -0.2289)  ( 2.00    -0.1601)
                     ( 2.00    -0.1601)  ( 2.00    -0.0840)  ( 2.00    -0.0840)  ( 2.00    -0.0797)
                     ( 2.00    -0.0724)  ( 2.00    -0.0724)  ( 0.00    -0.0105)

 CYCLE   17
  SDIIS (wt  1.000):  0.0000 -0.0000 -0.0002 -0.0006 -0.0007 -0.0002  0.0070  0.0678  0.1448  0.7821
  DIIS coefficients:  0.0000 -0.0000 -0.0002 -0.0006 -0.0007 -0.0002  0.0070  0.0678  0.1448  0.7821
 SCF Error: norm([F,P])=      0.000000271476, max([F,P])=      0.000000097731
 orbitals (Q,E):
 ---------------
 A :31...41          ( 2.00    -0.5090)  ( 2.00    -0.4958)  ( 2.00    -0.2289)  ( 2.00    -0.1601)
                     ( 2.00    -0.1601)  ( 2.00    -0.0840)  ( 2.00    -0.0840)  ( 2.00    -0.0797)
                     ( 2.00    -0.0724)  ( 2.00    -0.0724)  ( 0.00    -0.0105)

 SCF CONVERGED

 CYCLE   18
1
 ***************************************************************************************************



                                                *******************
                                                *  R E S U L T S  *
                                                *******************
  
 *** Setting up for NEW gradients in Focky
 *** Using FIT density in Focky

 Orbital Energies, per Irrep and Spin:
 ======================================
                        Occup              E (au)              E (eV)       Diff (eV) with prev. cycle
                        -----      --------------------        ------       --------------------------
 A
              31        2.000     -0.50897818345802E+00       -13.850               7.70E-08
              32        2.000     -0.49582452535679E+00       -13.492               8.66E-08
              33        2.000     -0.22887625460701E+00        -6.228              -1.06E-07
              34        2.000     -0.16007224241349E+00        -4.356              -1.52E-07
              35        2.000     -0.16006521195011E+00        -4.356              -1.51E-07
              36        2.000     -0.83988380869150E-01        -2.285               6.95E-08
              37        2.000     -0.83986502147294E-01        -2.285               6.80E-08
              38        2.000     -0.79722995096561E-01        -2.169               6.23E-08
              39        2.000     -0.72429665242412E-01        -1.971               3.99E-08
              40        2.000     -0.72427593721636E-01        -1.971               3.88E-08
              41        0.000     -0.10496713880401E-01        -0.286
              42        0.000      0.19132586490722E+00         5.206
              43        0.000      0.28987127385316E+00         7.888
              44        0.000      0.28992421421203E+00         7.889
              45        0.000      0.29413632961516E+00         8.004
              46        0.000      0.29842028397805E+00         8.120
              47        0.000      0.31810380196351E+00         8.656
              48        0.000      0.31811104115222E+00         8.656
              49        0.000      0.44156628473842E+00        12.016
              50        0.000      0.44470736978504E+00        12.101
  
 HOMO :       40 A                -0.72427593721636E-01
 LUMO :       41 A                -0.10496713880401E-01
  


 All Electron Calculation, thus no Orbital Energies of the Core Orbitals are calculated


 Fit test: (difference of exact and fit density, squared integrated, result summed over spins)
         Sum-of-Fragments:                             0.00155116247158
         Orthogonalized Fragments:                     0.00156610748482
         SCF:                                          0.00156482560502



 ==========================
 Electron Density at Nuclei
 ==========================
  
 The electron density is calculated at points on a small sphere around the center of a nucleus.
 The printed electron density is the average electron density on these points.
 The radius of the sphere is the printed approximate finite nuclear radius.

         Atom        Nuclear Radius (Angstrom)             Electron Density (a.u.)
         ----        -------------------------             -----------------------
     1)   F                 0.0000361580                              448.21702
     2)   Br                0.0000536685                            29313.68016
     3)   Br                0.0000536685                            29313.68016



 =======================================
 M U L L I K E N   P O P U L A T I O N S
 =======================================
  
 The survey below gives for each atom:
 a) the total charge (Z minus electrons)
 b) the net spin polarization (nr of electrons spin-A minus spin-B)
 c) for each spin the atomic electron valence density (integrated) per L-value.

 Atom              Charge    Spin density          S         P         D         F
 ----              ------    ------------       ------    ------    ------    ------
 1 F              -0.2407                       3.9230    5.2980    0.0183    0.0013
 2 Br             -0.3797                       7.9953   17.3350   10.0384    0.0110
 3 Br             -0.3797                       7.9953   17.3350   10.0384    0.0110

 Populations of individual BAS functions
 ----------------------------------------
 1 F            0.5756  1.4004  1.1222  0.8795 -0.0546  0.3797  0.3039  0.4165  0.9614  0.8401
                1.0203  0.4776  0.3675  0.5311 -0.0013  0.0076  0.0008  0.0165  0.0024 -0.0077
               -0.0011 -0.0018  0.0004  0.0039  0.0001 -0.0022  0.0059  0.0044 -0.0036 -0.0046
 2 Br           0.3611  1.5681  2.0732  0.7131  0.7127  0.7132  1.2649  1.2656  1.2646  1.4385
                0.5928  1.1371  1.1297  1.1407  0.8913  0.8976  0.8882  0.2677  0.4015  0.4017
                0.2677  0.4015  0.2678  0.7771  1.1648  1.1657  0.7755  1.1651  0.7778  0.2881
                0.4340  0.4326  0.2924  0.4334  0.2861  0.2744  1.2240  0.4632  0.5868  0.4863
                0.6357  0.9400  0.7772  1.0191  0.3023  0.2331  0.3359  0.0024  0.0125  0.0026
                0.0157  0.0075 -0.0028 -0.0020 -0.0001  0.0005  0.0086  0.0014 -0.0029  0.0096
                0.0066 -0.0052 -0.0054
 3 Br           0.3611  1.5681  2.0732  0.7131  0.7127  0.7132  1.2649  1.2656  1.2646  1.4385
                0.5928  1.1371  1.1297  1.1407  0.8913  0.8976  0.8882  0.2677  0.4015  0.4017
                0.2677  0.4015  0.2678  0.7771  1.1648  1.1657  0.7755  1.1651  0.7778  0.2881
                0.4340  0.4326  0.2924  0.4334  0.2861  0.2744  1.2240  0.4632  0.5868  0.4863
                0.6357  0.9400  0.7772  1.0191  0.3023  0.2331  0.3359  0.0024  0.0125  0.0026
                0.0157  0.0075 -0.0028 -0.0020 -0.0001  0.0005  0.0086  0.0014 -0.0029  0.0096
                0.0066 -0.0052 -0.0054

 Gross Charges per Atom (Z minus electrons)
 ==========================================
            -0.2407   -0.3797   -0.3797
 Net Total: -1.00000000


 Atom-Atom Population Matrix (off-diagonal elements not doubled)
 ===============================================================

     1 :     9.3237
     2 :    -0.0415   35.3732
     3 :    -0.0415    0.0479   35.3732


 Frag-Frag Population Matrix (off-diagonal elements not doubled)
 ===============================================================

     1 :    44.6139
     2 :     0.0064   35.3732



 =================================================
 H I R S H F E L D   C H A R G E   A N A L Y S I S
 =================================================
  
 For each fragment: the (numerical) integral of rho(scf) * rho(fragment)/rho(sum-of-fragments)
 (nuclear charges are included, electrons are counted negative)

 The fragments and their ordering are defined in the early G E O M E T R Y output section.
 If you use single-atom fragments, this usually implies that all atoms of the same
 chemical type are grouped together. This may not be the order in which you listed them
 in the input file!

    1  FBr                      -0.5329
    2  Br                       -0.4671

 Sum of these charges (accuracy NumInt/Tails) =          -1.00000263



 =============================
 V O R O N O I   C H A R G E S
 =============================
  
 For each atom: the (numerical) integral of the total electronic charge density in its Voronoi cell,
 i.e. the region of space that is closer to that atom than to any other atom.
 (cf. Wigner-Seitz cells in crystals)

 Within the Voronoi cell the subintegrals over the atomic sphere and the remaining part are evaluated
 separately to give the numbers of electrons (negative charge) in these regions.
 The net total charge in the cell (including the nuclear charge) is also given.

 Values are provided for
    a) the Initial (sum-of-fragments) density
    b) the Orthogonalized-Fragments density
    c) the SCF density
    d) the Voronoi Deformation Density (VDD): the difference SCF-Initial for the complete atomic cell
 ---------------------------------------------------------------------------------------------------
 Total NetCharge:              -1.000                     -1.000                     -1.000    0.000
 (accuracy NumInt/Tails)

 Remark: the 'NetTotal' Voronoi charges often do not match the Mulliken and/or Hirshfeld charges very
 well. This is caused by the fact that chemically different atoms are not treated in accordance with
 their relative sizes. (Voronoi cells are defined by boundary planes halfway between the atoms.)
 However, the CHANGES in charge, comparing 'Initial' to 'SCF' for instance, do give a fair indication
 of the flow of charge caused by the relaxation from sum-of-fragments to self-consistency.

 Warning: the absolute accuracy of the VDD charges obtained using the Fuzzy Cells (Becke) integration
 scheme is much poorer than the one obtained with an 'equivalent' Voronoi integration grid. 



 =================================================================
 M U L T I P O L E   D E R I V E D   C H A R G E   A N A L Y S I S
 =================================================================

 This charge analysis uses the atomic multipoles (obtained from the fitted density) up to some level X,
 and reconstructs these multipoles exactly (up to level X) by distributing charges over all atoms.
 This is achieved by using Lagrange multipliers and a weight function to keep the multipoles local.

 Dummy atoms can be included (by setting INCDUM in MDC-block to 1) to obtain a fractional charge.
 This is generally useful and necessary only for small symmetrical molecules, when there are not
 enough degrees of freedom to reconstruct the multipoles.

 Since the atomic multipoles are reconstructed up to level X,
 the molecular multipoles are represented also up to level X.
 The recommended level is to reconstruct up to quadrupole : -> MDC-q charges.

 See: M. Swart, P.Th. van Duijnen, J.G. Snijders, J.Comput.Chem., (2001), p. 79-88.

 ------------------------------------------------------------- 
 Atomic electronic multipole moments from SCF equations (a.u.)
 ------------------------------------------------------------- 

   atom        charge        dip-x     dip-y     dip-z      quad-xx   quad-xy   quad-xz   quad-yy   quad-yz   quad-zz
 --------------------------------------------------------------------------------------------------------------------
    1 F     -0.896500    -0.000000  0.000000 -0.000000     0.054214  0.181236 -0.013318 -0.262193  0.023257  0.207979
    2 Br    -0.051749    -0.510979  0.888360 -0.066126    -0.346747 -1.160043  0.086320  1.677493 -0.150011 -1.330746
    3 Br    -0.051751     0.510979 -0.888359  0.066126    -0.346747 -1.160042  0.086320  1.677492 -0.150011 -1.330745

 --------------------------------------- 
 Multipole derived atomic charges (a.u.)
 --------------------------------------- 

 The MDC-m charges are just the Monopole terms in the multipole expansion, while for the MDC-d charges
 also the Dipoles are reconstructed. The usually preferred charges are the MDC-q charges.
 These reconstruct the Monopoles, Dipoles and Quadrupoles (both atomic AND molecular).

        Atom    Level:     MDC-m        MDC-d        MDC-q
 ---------------------------------------------------------
     1     F           -0.896500    -0.408403    -0.061732
     2     Br          -0.051749    -0.295798    -0.469133
     3     Br          -0.051751    -0.295799    -0.469134

 ------------------------------------------------ 
 Average absolute deviations in atomic multipoles
 ------------------------------------------------ 

 Stated here are the average differences between the atomic multipoles
 and the reconstructed atomic multipoles (from the distributed charges).
 If these values are not zero, this means there are not enough degrees of freedom,
 to be able to reconstruct the atomic multipoles. (This usually happens only
 for small and/or highly symmetric molecules). If this is the case, one could add
 dummy atoms as extra point charges (and setting INCDUM in MDC-block to 1).

 Level:                                 MDC-d        MDC-q
 ---------------------------------------------------------
 Charge   (a.u.)                       0.0000       0.0000
 Dipole   (Debye)                      0.0000       0.0000
 Quad.    (a.u.)                       0.8049       0.2402

 --------------------------------------- 
 Represented molecular multipole moments
 --------------------------------------- 

 Given here are the Molecular multipole moments from the atomic charges, and from the Fit Density.
 Note that the atomic charges represent the latter, NOT the ones from the Exact density.

            Q (a.u.)             Dipole moment (Debye)                                          Quadrupole moment (a.u.)
                                 x         y         z              xx        xy        xz        yy        yz        zz
------------------------------------------------------------------------------------------------------------------------
MDC-m        -1.0000       23.6564  -14.8882    0.2197        -69.2309   82.9453   -1.2936    7.8764    0.9107   61.3545
MDC-d        -1.0000       23.6564  -14.8882    0.2197        -68.1308   88.4667   -1.7043    2.5534    1.6247   65.5773
MDC-q        -1.0000       23.6564  -14.8882    0.2197        -67.3494   92.3882   -1.9960   -1.2273    2.1318   68.5767
 
Fit.Dens.    -1.0000       23.6564  -14.8882    0.2197        -67.6582   91.9077   -1.9603    0.2667    2.0700   67.3915



 =============
 Dipole Moment  ***  (Debye)  ***
 =============
  
 Vector   :        23.65639713    -14.88821255      0.21967044
 Magnitude:        27.95232107

 This molecular dipole moment is calculated with analytic integration
 ************************************************************************************
 Since the molecule is NOT NEUTRAL, the dipole moment depends on the choice of origin
 ************************************************************************************



 =========================================
 Quadrupole Moment (Buckingham convention)  ***  (a.u.)  ***
 =========================================
  
      quad-xx        quad-xy        quad-xz        quad-yy        quad-yz        quad-zz
    -67.65575654    90.85067710    -1.88172876     0.25497042     1.93362668    67.40078612

 This molecular quadrupole moment is calculated with analytic integration
1



                                             *************************
                                             *  SFO MO coefficients  *
                                             *************************
  


                                       === A ===
 MOs expanded in CFs+SFOs
 ========================

 The SFOs have been characterized in an earlier part of output.
 To deduce the bonding / antibonding nature of SFO combinations in an MO, consider the products
 of the coefficients AND THE OVERLAP between the SFOs (may be NEGATIVE). The SFO overlap matrix
 is printed later, in the SFO Populations section.

 (The CF coefficients are not printed)

 MOs :      1        2        3        4        5        6        7        8        9       10
 occup:   2.00     2.00     2.00     2.00     2.00     2.00     2.00     2.00     2.00     2.00
 CF+SFO
     1   0.9954   0.0955  -0.0000   0.0000   0.0000   0.0000   0.0000  -0.0000  -0.0000  -0.0000
     2   0.0000   0.0000   0.9994  -0.0355  -0.0004  -0.0000  -0.0000   0.0000   0.0000   0.0000
     3  -0.0000  -0.0000   0.0004  -0.0000   1.0000   0.0069   0.0001  -0.0000   0.0000   0.0000
     4  -0.0000  -0.0000   0.0000  -0.0000  -0.0001  -0.0000   0.9992  -0.0002  -0.0395  -0.0000
     5  -0.0000  -0.0000   0.0000  -0.0000   0.0000   0.0000  -0.0395   0.0000  -0.9992  -0.0002
     6  -0.0000   0.0000   0.0000   0.0000   0.0000  -0.0000   0.0000   0.0000  -0.0000   0.0000
     7   0.0000   0.0000   0.0001  -0.0000  -0.0000   0.0000  -0.0000  -0.0000   0.0000  -0.0000
     8  -0.0000   0.0000  -0.0000   0.0000  -0.0000  -0.0000  -0.0000   0.0000  -0.0000   0.0000
     9   0.0000   0.0000   0.0000  -0.0000   0.0000   0.0000  -0.0000   0.0000  -0.0000  -0.0000
    10  -0.0000  -0.0000  -0.0000   0.0000   0.0000   0.0000  -0.0000   0.0000   0.0000   0.0000
    11  -0.0000  -0.0000   0.0000  -0.0000  -0.0000  -0.0000   0.0000  -0.0000  -0.0000  -0.0000
    12   0.0000   0.0000  -0.0000   0.0000   0.0000   0.0000   0.0000  -0.0000   0.0000   0.0000
    13  -0.0000  -0.0000   0.0000  -0.0000  -0.0000  -0.0000  -0.0000   0.0000   0.0000   0.0000
    14   0.0000   0.0000  -0.0000   0.0000   0.0000   0.0000  -0.0000   0.0000  -0.0000  -0.0000
    15  -0.0000  -0.0000   0.0000  -0.0000  -0.0000  -0.0000  -0.0000   0.0000   0.0000   0.0000
    16   0.0000  -0.0000  -0.0000   0.0000  -0.0000   0.0000  -0.0000  -0.0000  -0.0000  -0.0000
    17   0.0000  -0.0000   0.0000   0.0000  -0.0000   0.0000  -0.0000  -0.0000   0.0000  -0.0000
    18  -0.0000  -0.0000  -0.0000   0.0000  -0.0000   0.0000  -0.0000  -0.0000  -0.0000  -0.0000
    19   0.0000  -0.0000   0.0000   0.0000  -0.0000  -0.0000  -0.0000  -0.0000  -0.0000   0.0000
    20  -0.0000  -0.0000  -0.0000   0.0000   0.0000  -0.0000  -0.0000  -0.0000   0.0000  -0.0000
    21   0.0000  -0.0000   0.0000   0.0000  -0.0000  -0.0000   0.0000  -0.0000  -0.0000  -0.0000
    22   0.0000  -0.0000   0.0000  -0.0000   0.0000   0.0000  -0.0000   0.0000  -0.0000  -0.0000
    23   0.0000   0.0000   0.0000  -0.0000   0.0000  -0.0000   0.0000   0.0000   0.0000   0.0000
    24   0.0000  -0.0000  -0.0000  -0.0000  -0.0000   0.0000  -0.0000  -0.0000   0.0000  -0.0000
    25   0.0000  -0.0000  -0.0000  -0.0000  -0.0000   0.0000  -0.0000  -0.0000  -0.0000  -0.0000
    26  -0.0000   0.0000   0.0000   0.0000   0.0000  -0.0000  -0.0000  -0.0000  -0.0000   0.0000
    27  -0.0000  -0.0000  -0.0000  -0.0000   0.0000   0.0000  -0.0000  -0.0000   0.0000  -0.0000
    28   0.0000   0.0000   0.0000  -0.0000  -0.0000  -0.0000  -0.0000  -0.0000   0.0000  -0.0000
    29   0.0000   0.0000   0.0000  -0.0000   0.0000   0.0000  -0.0000  -0.0000  -0.0000   0.0000
    30  -0.0000  -0.0000  -0.0000   0.0000  -0.0000   0.0000   0.0000  -0.0000  -0.0000  -0.0000
    31  -0.0000  -0.0000  -0.0000   0.0000  -0.0000   0.0000   0.0000  -0.0000   0.0000   0.0000
    32  -0.0000  -0.0000  -0.0000   0.0000  -0.0000   0.0000  -0.0000  -0.0000   0.0000  -0.0000
    33   0.0000   0.0000   0.0000  -0.0000   0.0000  -0.0000   0.0000   0.0000   0.0000   0.0000
    34  -0.0000  -0.0000  -0.0000   0.0000   0.0000  -0.0000  -0.0000  -0.0000  -0.0000   0.0000
    35   0.0000  -0.0000  -0.0000   0.0000   0.0000  -0.0000  -0.0000  -0.0000   0.0000  -0.0000
    36   0.0000   0.0000   0.0000  -0.0000   0.0000  -0.0000   0.0000   0.0000  -0.0000   0.0000
    37   0.0000   0.0000   0.0000  -0.0000   0.0000   0.0000  -0.0000  -0.0000  -0.0000   0.0000
    38   0.0000   0.0000   0.0000  -0.0000   0.0000  -0.0000  -0.0000  -0.0000  -0.0000  -0.0000
    39  -0.0000  -0.0000  -0.0000   0.0000   0.0000  -0.0000  -0.0000  -0.0000   0.0000  -0.0000
    40   0.0000   0.0000   0.0000   0.0000   0.0000  -0.0000  -0.0000  -0.0000  -0.0000   0.0000
    41  -0.0000  -0.0000  -0.0000   0.0000  -0.0000   0.0000  -0.0000   0.0000  -0.0000   0.0000
    42   0.0000   0.0000   0.0000  -0.0000   0.0000  -0.0000   0.0000   0.0000  -0.0000  -0.0000
    43   0.0000   0.0000   0.0000  -0.0000   0.0000  -0.0000   0.0000   0.0000   0.0000   0.0000
    44  -0.0000  -0.0000  -0.0000   0.0000  -0.0000   0.0000  -0.0000   0.0000   0.0000   0.0000
    45  -0.0000  -0.0000  -0.0000   0.0000  -0.0000   0.0000   0.0000  -0.0000   0.0000   0.0000
    46   0.0000   0.0000   0.0000  -0.0000   0.0000  -0.0000   0.0000   0.0000   0.0000   0.0000
    47   0.0000   0.0000   0.0000  -0.0000   0.0000  -0.0000   0.0000   0.0000   0.0000  -0.0000
    48   0.0000   0.0000  -0.0000  -0.0000   0.0000   0.0000   0.0000  -0.0000   0.0000   0.0000
    49   0.0000   0.0000   0.0000   0.0000   0.0000  -0.0000   0.0000   0.0000   0.0000   0.0000
    50   0.0000  -0.0000   0.0000   0.0000   0.0000  -0.0000   0.0000  -0.0000  -0.0000  -0.0000
    51  -0.0000  -0.0000  -0.0000   0.0000  -0.0000  -0.0000   0.0000  -0.0000   0.0000   0.0000
    52  -0.0000  -0.0000   0.0000   0.0000  -0.0000   0.0000  -0.0000  -0.0000  -0.0000  -0.0000
    53  -0.0000   0.0000  -0.0000   0.0000   0.0000   0.0000   0.0000  -0.0000  -0.0000   0.0000
    54  -0.0000   0.0000  -0.0000   0.0000   0.0000   0.0000   0.0000   0.0000   0.0000   0.0000
    55  -0.0000   0.0000  -0.0000   0.0000   0.0000   0.0000   0.0000   0.0000  -0.0000  -0.0000
    56  -0.0000   0.0000  -0.0000   0.0000   0.0000   0.0000  -0.0000   0.0000  -0.0000  -0.0000
    57  -0.0000   0.0000  -0.0000   0.0000  -0.0000   0.0000  -0.0000   0.0000   0.0000   0.0000
    58  -0.0000  -0.0000   0.0000  -0.0000  -0.0000  -0.0000  -0.0000   0.0000  -0.0000  -0.0000
    59   0.0000   0.0000  -0.0000  -0.0000   0.0000  -0.0000   0.0000   0.0000   0.0000   0.0000
    60  -0.0000  -0.0000   0.0000   0.0000  -0.0000  -0.0000  -0.0000  -0.0000  -0.0000   0.0000
    61   0.0000  -0.0000   0.0000   0.0000   0.0000  -0.0000   0.0000   0.0000  -0.0000  -0.0000
    62   0.0000   0.0000  -0.0000   0.0000   0.0000  -0.0000  -0.0000   0.0000  -0.0000   0.0000
    63   0.0000  -0.0000   0.0000   0.0000  -0.0000  -0.0000   0.0000   0.0000   0.0000  -0.0000
    64   0.0000  -0.0000  -0.0000  -0.0000   0.0000  -0.0000   0.0000   0.0000  -0.0000   0.0000
    65  -0.0000   0.0000   0.0000   0.0000  -0.0000   0.0000  -0.0000  -0.0000  -0.0000   0.0000
    66   0.0000   0.0000   0.0000   0.0000   0.0000   0.0000  -0.0000  -0.0000  -0.0000   0.0000
    67  -0.0000   0.0000   0.0000  -0.0000  -0.0000   0.0000  -0.0000  -0.0000   0.0000  -0.0000
    68  -0.0000  -0.0000  -0.0000   0.0000  -0.0000   0.0000  -0.0000  -0.0000  -0.0000  -0.0000
    69  -0.0000  -0.0000  -0.0000   0.0000   0.0000   0.0000  -0.0000   0.0000   0.0000   0.0000
    70  -0.0000  -0.0000  -0.0000   0.0000   0.0000   0.0000  -0.0000   0.0000  -0.0000  -0.0000
    71  -0.0000  -0.0000  -0.0000   0.0000   0.0000   0.0000   0.0000  -0.0000  -0.0000  -0.0000
    72   0.0000   0.0000   0.0001  -0.0000  -0.0000   0.0000  -0.0000  -0.0000   0.0000   0.0000
    73  -0.0000  -0.0000  -0.0000   0.0000   0.0000   0.0000  -0.0000   0.0000  -0.0000   0.0000
    74   0.0000   0.0000   0.0000  -0.0000  -0.0000  -0.0000   0.0000   0.0000  -0.0000  -0.0000
    75   0.0000   0.0000   0.0000  -0.0000  -0.0000  -0.0000   0.0000   0.0000   0.0000  -0.0000
    76   0.0000  -0.0000  -0.0000   0.0000  -0.0000   0.0000   0.0000   0.0000  -0.0000   0.0000
    77   0.0000  -0.0000  -0.0000   0.0000   0.0000   0.0000   0.0000  -0.0000   0.0000  -0.0000
    78  -0.0000  -0.0000   0.0000   0.0000  -0.0000   0.0000  -0.0000  -0.0000  -0.0000  -0.0000
    79  -0.0000  -0.0000  -0.0000   0.0000   0.0000   0.0000  -0.0001   0.0000  -0.0000  -0.0000
    80  -0.0000  -0.0000  -0.0000   0.0000  -0.0000  -0.0000  -0.0000   0.0000   0.0001   0.0000
    81   0.0000   0.0000   0.0000   0.0000   0.0001   0.0000   0.0000  -0.0000   0.0000  -0.0000
    82   0.0001   0.0000   0.0000  -0.0000   0.0000  -0.0000  -0.0000   0.0000   0.0000  -0.0000
    83  -0.0955   0.9954   0.0000   0.0000  -0.0000   0.0000  -0.0000   0.0000  -0.0000   0.0000
    84  -0.0000   0.0000  -0.0355  -0.9994   0.0000  -0.0003   0.0000  -0.0000   0.0000  -0.0000
    85   0.0000  -0.0000  -0.0000  -0.0000  -0.0005   0.0676  -0.0001  -0.4306   0.0002  -0.9000
    86   0.0000  -0.0000  -0.0000  -0.0003  -0.0067   0.9823  -0.0000  -0.1291  -0.0000   0.1356
    87  -0.0000   0.0000   0.0000   0.0001   0.0012  -0.1746  -0.0002  -0.8933  -0.0001   0.4142
    88   0.0000  -0.0000   0.0000   0.0001   0.0000   0.0000   0.0000   0.0000   0.0000   0.0000
    89  -0.0000  -0.0000  -0.0000   0.0000  -0.0000  -0.0000  -0.0000  -0.0000  -0.0000   0.0000
    90  -0.0000  -0.0000  -0.0000   0.0000  -0.0000  -0.0000   0.0000   0.0000   0.0000  -0.0000
    91  -0.0000  -0.0000  -0.0000   0.0000  -0.0000  -0.0000   0.0000   0.0000  -0.0000   0.0000
    92   0.0000   0.0000  -0.0000  -0.0000   0.0000   0.0000   0.0000   0.0000   0.0000  -0.0000
    93  -0.0000  -0.0000   0.0000   0.0000  -0.0000  -0.0000  -0.0000  -0.0000  -0.0000   0.0000
    94   0.0000   0.0000  -0.0000  -0.0000   0.0000   0.0000  -0.0000  -0.0000  -0.0000   0.0000
    95  -0.0000  -0.0000   0.0000   0.0000  -0.0000  -0.0000  -0.0000  -0.0000  -0.0000   0.0000
    96   0.0000   0.0000  -0.0000  -0.0000   0.0000   0.0000  -0.0000  -0.0000   0.0000  -0.0000
    97   0.0000  -0.0000  -0.0000   0.0000  -0.0000   0.0000  -0.0000  -0.0000  -0.0000   0.0000
    98   0.0000   0.0000   0.0000  -0.0000   0.0000  -0.0000  -0.0000  -0.0000  -0.0000   0.0000
    99  -0.0000  -0.0000  -0.0000   0.0000  -0.0000   0.0000   0.0000   0.0000  -0.0000   0.0000
   100  -0.0000  -0.0000  -0.0000   0.0000  -0.0000   0.0000  -0.0000  -0.0000  -0.0000   0.0000
   101  -0.0000   0.0000   0.0000   0.0000   0.0000  -0.0000  -0.0000   0.0000  -0.0000  -0.0000
   102  -0.0000   0.0000   0.0000   0.0000   0.0000  -0.0000   0.0000  -0.0000   0.0000   0.0000
   103   0.0000  -0.0000  -0.0000  -0.0000  -0.0000   0.0000   0.0000  -0.0000  -0.0000  -0.0000
   104  -0.0000   0.0000   0.0000   0.0000   0.0000  -0.0000   0.0000   0.0000   0.0000   0.0000
   105  -0.0000  -0.0000  -0.0000   0.0000  -0.0000   0.0000   0.0000  -0.0000  -0.0000  -0.0000
   106   0.0000   0.0000   0.0000  -0.0000   0.0000  -0.0000  -0.0000   0.0000  -0.0000  -0.0000
   107  -0.0000  -0.0000  -0.0000   0.0000  -0.0000   0.0000  -0.0000   0.0000  -0.0000  -0.0000
   108   0.0000   0.0000   0.0000  -0.0000   0.0000  -0.0000  -0.0000   0.0000   0.0000   0.0000
   109  -0.0000  -0.0000  -0.0000   0.0000  -0.0000   0.0000   0.0000  -0.0000  -0.0000  -0.0000
   110  -0.0000  -0.0000  -0.0000   0.0000  -0.0000   0.0000  -0.0000  -0.0000   0.0000  -0.0000
   111   0.0000   0.0000   0.0000  -0.0000   0.0000  -0.0000   0.0000   0.0000   0.0000  -0.0000
   112   0.0000   0.0000   0.0000  -0.0000   0.0000  -0.0000   0.0000   0.0000  -0.0000   0.0000
   113   0.0000   0.0000   0.0000  -0.0000   0.0000  -0.0000  -0.0000  -0.0000   0.0000  -0.0000
   114  -0.0000  -0.0000  -0.0000   0.0000  -0.0000   0.0000  -0.0000  -0.0000  -0.0000   0.0000
[...]
  132   -1.06909134955195E-15  5.71476056504633E-17  8.63299685610727E-17 -4.28568059010567E-16
  133   -3.34348671516378E-16  5.25918425418917E-16  1.14227159131252E-15 -3.54070281695570E-16
  134   -2.61442423407544E-16 -3.20882603139090E-16 -2.13628637762345E-16 -1.71025719399316E-16
  135    5.41588033258080E-16 -1.37863413367355E-16 -5.28165160872765E-17  6.55514165668673E-18
  136    3.62053711566459E-16  7.34780494872020E-16 -4.33031062374760E-16 -2.52559742745282E-16
  137   -1.92139365568389E-16 -3.76524276853564E-16  3.91443402334521E-16 -7.45123931828298E-17
  138   -1.23056946577105E-17 -1.07769695945059E-16  1.45499931547555E-15 -7.16549215795670E-16

 column         125                   126                   127                   128
 row
  125    1.00000000000000E+00
  126    6.91788417809287E-17  9.99999999999998E-01
  127    3.06865683552244E-16 -9.68300090052800E-16  1.00000000000000E+00
  128    2.19919994830411E-16  1.05904142316038E-15  1.10238256837365E-16  1.00000000000000E+00
  129    5.12912674987504E-16 -2.76123033013233E-16  8.18929055808893E-17  2.92342016578536E-16
  130   -4.82430937066027E-16 -2.72534238788139E-16  2.00587202345716E-16 -5.52902423916359E-16
  131    7.01548421118474E-18 -2.42915144366436E-16  6.04360237944875E-16  1.77871914480697E-16
  132   -3.15388998906105E-16 -5.32311387149575E-17 -4.15249372504944E-16 -1.89447327771531E-16
  133    5.45005056191147E-16 -7.12583425941394E-16  6.63759650700316E-16 -2.37750039352391E-16
  134    9.08578831040386E-16 -1.74213187097895E-16 -1.91277443370109E-17  7.14073171400362E-16
  135   -1.88831150179893E-16 -6.88333460993714E-16 -6.27672835411760E-16  3.67521960831834E-15
  136   -4.21722203073237E-17 -3.10720887485671E-15 -6.00894347042374E-16 -1.96655107156025E-15
  137   -9.71041680931433E-17  7.90810484389154E-16  9.01697581699006E-16 -5.14919663721332E-16
  138   -4.55907013530155E-17 -3.05941524284675E-16  8.07459567958579E-17  2.59273397022752E-16

 column         129                   130                   131                   132
 row
  129    1.00000000000001E+00
  130   -7.60159527648225E-17  9.99999999999999E-01
  131    1.49505020959528E-15  5.50108896021425E-16  1.00000000000000E+00
  132   -1.96427575742983E-16  1.20974595485619E-16 -3.62127383580535E-16  9.99999999999999E-01
  133   -4.38896648074849E-16 -1.13029614758380E-15  5.25759735988278E-16 -1.26695277278324E-15
  134   -3.35754569398964E-16  5.62668012349042E-16 -2.97609936161915E-16  1.09928405733251E-15
  135    2.96798988141702E-17  3.41449648359388E-16 -6.43904335874092E-16 -1.51848992735152E-16
  136    1.77948294684099E-16  3.91487347958924E-16  1.79655398599423E-17  1.93770698085242E-17
  137    1.00555470011180E-16 -3.48193268081729E-16  4.97173131922682E-16  1.16598280649621E-16
  138    8.62580406407742E-15 -4.90791218429876E-16 -8.74490367272496E-16 -1.32706345912226E-16

 column         133                   134                   135                   136
 row
  133    1.00000000000000E+00
  134    8.72144502494040E-17  9.99999999999999E-01
  135   -1.78936713658500E-16 -7.97158302324291E-16  1.00000000000000E+00
  136    2.23618056150605E-16  3.75956438869742E-16 -3.87020863198328E-16  1.00000000000001E+00
  137   -2.66992035988106E-16 -1.00286437788753E-16  2.27173930562213E-15  1.49296805702714E-15
  138    5.85613168743206E-17  4.34683756003751E-16  2.29312147612473E-16  1.43087581713774E-16

 column         137                   138
 row
  137    1.00000000000001E+00
  138   -2.38931053761493E-16  1.00000000000000E+00


 SFO contributions (%) per orbital
 (multiplication by the orbital occupation yields the SFO Gross Populations)

 Orb.:       31     32     33     34     35     36     37     38     39     40     41     42     43     44
 occup:     2.00   2.00   2.00   2.00   2.00   2.00   2.00   2.00   2.00   2.00   0.00   0.00   0.00   0.00
 CF+SFO     ----   ----   ----   ----   ----   ----   ----   ----   ----   ----   ----   ----   ----   ----
 ------
     17:   49.93  49.77   0.11   0.00   0.00  -0.00   0.00   0.04   0.00   0.00  -0.00   0.02   0.00   0.00
     18:    0.99   0.52  79.01   0.00   0.00   0.00   0.00  17.30   0.00   0.00   0.85  -0.09   0.00   0.00
     19:    0.00   0.00   0.00  84.69   5.87   8.79   0.00   0.00   0.14   0.01   0.00  -0.00   0.07   0.04
     20:    0.00  -0.00   0.00   5.87  84.69   0.00   8.79   0.00   0.01   0.14   0.00  -0.00   0.04   0.07
     21:    0.00   0.00   0.00   1.38   1.33  30.69  10.50   0.00  30.05  25.63   0.00   0.00   0.01   0.07
     22:   -0.00   0.00   0.00   1.33   1.38  10.50  30.69   0.00  25.63  30.05   0.00   0.00   0.07   0.01
     23:    0.30   0.13   2.65   0.00   0.00   0.00   0.00  32.59  -0.00   0.00  63.25   0.43  -0.00  -0.00
     24:   -0.32   0.10   0.03  -0.00   0.00   0.00  -0.00  -0.59   0.00   0.00  -0.38 112.39  -0.00  -0.00
     26:   -0.00  -0.00   0.00   0.02   0.00   0.07   0.02  -0.00   0.17   0.02  -0.00   0.00  48.67   0.46
     27:    0.00   0.00   0.00   0.00   0.02   0.02   0.07  -0.00   0.02   0.17  -0.00   0.00   0.46  48.67
     36:   -0.07   0.02   0.01  -0.00  -0.00  -0.00  -0.00  -0.30  -0.00   0.00  -0.33  -1.71   0.00   0.00
     97:   48.27  49.44   1.49   0.00   0.00  -0.00   0.00   0.05   0.00   0.00   0.51  -0.63  -0.00  -0.00
     98:    0.01   0.02   7.64   1.84   1.30   8.47  16.26  25.23  12.10   9.67  17.48  -1.07   0.10   0.01
     99:    0.00   0.00   0.05   2.95   3.33  35.09  14.37   0.15  21.77  21.79   0.11  -0.01   0.03   0.19
    100:    0.01   0.02   7.54   1.51   1.67   6.06  18.98  24.92   9.82  12.23  17.26  -1.05   0.09   0.02
    101:    0.02   0.00   0.25  -0.07  -0.02   0.08   0.06   0.14   0.10   0.03  -0.00  -0.33  23.44   0.28
    102:    0.01   0.00   0.21  -0.04  -0.05   0.04   0.13   0.11   0.07   0.09  -0.00  -0.28  22.93   5.55
    103:    0.00   0.00   0.01  -0.07  -0.10   0.19   0.11   0.01   0.11   0.16  -0.00  -0.02   4.28  44.81
    104:    0.00   0.03  -0.06   0.00  -0.00  -0.00   0.00   0.03  -0.00   0.00   0.13  -6.06   0.00   0.00


 Summation over all MOs, multiplied by occupation: Total SFO Gross Populations in this Irrep
 ===========================================================================================

     2.00    2.00    2.00    2.00    2.00    2.00    2.00    2.00    2.00    2.00    2.00    2.00
     2.00    2.00    2.00    2.00    2.00    1.96    1.99    1.99    1.99    1.99    0.71   -0.01
     0.00    0.01    0.01   -0.00   -0.00    0.00    0.00   -0.00   -0.00   -0.00   -0.00   -0.01
     0.00    0.00    0.00    0.00    0.00    0.00    0.00    0.00    0.00    0.00    0.00    0.00
    -0.00    0.00    0.00   -0.00   -0.00    0.00    0.00    0.00    0.00    0.00    0.00    0.00
     0.00    0.00    0.00    0.00    0.00    0.00    0.00    0.00    0.00    0.00   -0.00    0.00
     0.00    0.00    0.00    0.00   -0.00    0.00    0.00    0.00    0.00   -0.00    2.00    2.00
     2.00    2.00    2.00    2.00    2.00    2.00    2.00    2.00    2.00    2.00    2.00    2.00
     2.00    1.66    1.99    1.66    0.01    0.01    0.01   -0.00    0.01    0.01    0.01    0.01
     0.00    0.00    0.00    0.00    0.00    0.00    0.00    0.00   -0.00   -0.00   -0.00   -0.00
    -0.00   -0.00   -0.00   -0.00   -0.00   -0.00   -0.00   -0.00    0.00   -0.00   -0.00   -0.00
    -0.00   -0.00    0.00    0.00   -0.00   -0.00



 List of all MOs, ordered by energy, with the most significant SFO gross populations
 ===================================================================================

 Each percentage contribution in the table below corresponds to the indicated SFO.
 In general, a SFO may be a linear combination of several Fragment Orbitals on the same,
 or on symmetry-related Fragments. Only the first 'member' of such a combination is
 specified here. A full definition of all SFOs is given in an earlier part of the output.
 The numbering of the SFOs in this table does NOT include the Core Orbitals, and starts
 from one for each symmetry representation, as in the SFO definition list earlier.

       E(eV)  Occ       MO           %     SFO (first member)   E(eV)  Occ   Fragment
 -------------------------------------------------------------------------------------

     -13.850  2.00    31 A         49.93%    17 A             -20.287  2.00     1 FBr
                                   48.27%    15 A             -10.500  2.00     2 Br
     -13.492  2.00    32 A         49.77%    17 A             -20.287  2.00     1 FBr
                                   49.44%    15 A             -10.500  2.00     2 Br
      -6.228  2.00    33 A         79.01%    18 A             -11.365  2.00     1 FBr
                                    7.64%    16 A               0.447  2.00     2 Br
                                    7.54%    18 A               0.447  2.00     2 Br
                                    2.65%    23 A              -7.312  0.00     1 FBr
                                    1.49%    15 A             -10.500  2.00     2 Br
      -4.356  2.00    34 A         84.69%    19 A              -9.606  2.00     1 FBr
                                    5.87%    20 A              -9.606  2.00     1 FBr
                                    2.95%    17 A               0.447  2.00     2 Br
                                    1.84%    16 A               0.447  2.00     2 Br
                                    1.51%    18 A               0.447  2.00     2 Br
                                    1.38%    21 A              -8.152  2.00     1 FBr
                                    1.33%    22 A              -8.152  2.00     1 FBr
      -4.356  2.00    35 A         84.69%    20 A              -9.606  2.00     1 FBr
                                    5.87%    19 A              -9.606  2.00     1 FBr
                                    3.33%    17 A               0.447  2.00     2 Br
                                    1.67%    18 A               0.447  2.00     2 Br
                                    1.38%    22 A              -8.152  2.00     1 FBr
                                    1.33%    21 A              -8.152  2.00     1 FBr
                                    1.30%    16 A               0.447  2.00     2 Br
      -2.285  2.00    36 A         35.09%    17 A               0.447  2.00     2 Br
                                   30.69%    21 A              -8.152  2.00     1 FBr
                                   10.50%    22 A              -8.152  2.00     1 FBr
                                    8.79%    19 A              -9.606  2.00     1 FBr
                                    8.47%    16 A               0.447  2.00     2 Br
                                    6.06%    18 A               0.447  2.00     2 Br
      -2.285  2.00    37 A         30.69%    22 A              -8.152  2.00     1 FBr
                                   18.98%    18 A               0.447  2.00     2 Br
                                   16.26%    16 A               0.447  2.00     2 Br
                                   14.37%    17 A               0.447  2.00     2 Br
                                   10.50%    21 A              -8.152  2.00     1 FBr
                                    8.79%    20 A              -9.606  2.00     1 FBr
      -2.169  2.00    38 A         32.59%    23 A              -7.312  0.00     1 FBr
                                   25.23%    16 A               0.447  2.00     2 Br
                                   24.92%    18 A               0.447  2.00     2 Br
                                   17.30%    18 A             -11.365  2.00     1 FBr
      -1.971  2.00    39 A         30.05%    21 A              -8.152  2.00     1 FBr
                                   25.63%    22 A              -8.152  2.00     1 FBr
                                   21.77%    17 A               0.447  2.00     2 Br
                                   12.10%    16 A               0.447  2.00     2 Br
                                    9.82%    18 A               0.447  2.00     2 Br
      -1.971  2.00    40 A         30.05%    22 A              -8.152  2.00     1 FBr
                                   25.63%    21 A              -8.152  2.00     1 FBr
                                   21.79%    17 A               0.447  2.00     2 Br
                                   12.23%    18 A               0.447  2.00     2 Br
                                    9.67%    16 A               0.447  2.00     2 Br
      -0.286  0.00    41 A         63.25%    23 A              -7.312  0.00     1 FBr
                                   17.48%    16 A               0.447  2.00     2 Br
                                   17.26%    18 A               0.447  2.00     2 Br



 =======================================================================
 Electrostatic potential at the Nuclei due to electrons and other nuclei
 =======================================================================
  
         Atom                  Potential
         ----                  ---------
     1)   F                  26.79167930
     2)   Br                176.13855276
     3)   Br                176.13855303
 
 
 ========================
 No memory problems found
 ========================
 
 Maximum number of active allocate calls:         680
 
 *******************************************************************************

                             A D F   E X I T
 NORMAL TERMINATION



 =================
 Timing Statistics
 =================
  
 Total Used :                     CPU=        6.63      System=        0.19     Elapsed=        7.12

 Calls  Section                     ( Mean, Percentage )
 ---------------------------------------------------------------------------------------------------
     3  ><      ................      0.00    0.02             0.00    0.00             0.00    0.02
     1  INIT    ................      0.43    6.49             0.02   10.26             0.46    6.40
     1  GEOMET  ................      0.03    0.50             0.01    3.59             0.25    3.53
     1  FRAGM   ................      0.01    0.15             0.01    4.62             0.03    0.42
     1  INPUTA  ................      0.00    0.00             0.00    0.00             0.00    0.01
     1  ATDEN   ................      0.01    0.08             0.00    0.00             0.01    0.08
     1  MAINSY  ................      0.01    0.09             0.00    2.05             0.01    0.18
     1  SYMFIT  ................      0.00    0.05             0.00    0.00             0.00    0.03
     1  CORORT  ................      0.00    0.00             0.00    0.00             0.00    0.01
     1  SYMORB  ................      0.00    0.05             0.00    0.51             0.00    0.05
     1  CLSMAT  ................      0.01    0.12             0.00    0.00             0.01    0.12
     1  ORTHON  ................      0.01    0.18             0.00    1.03             0.01    0.19
     1  GENPT   ................      0.13    1.99             0.01    3.59             0.14    1.97
     1  PTBAS   ................      0.05    0.69             0.00    0.00             0.05    0.65
    18  FOCKY   ................      0.13   35.28             0.00    8.72             0.13   33.19
    18  FOCKTR  ................      0.00    0.62             0.00    0.00             0.00    0.59
    18  SDIIS   ................      0.00    1.01             0.00    1.03             0.00    1.03
     1  COREPS  ................      0.10    1.57             0.00    0.51             0.11    1.49
     1  TOTEN   ................      0.35    5.29             0.00    1.03             0.35    4.98
     1  POPAN   ................      0.00    0.06             0.00    0.51             0.01    0.13
     1  DEBYE   ................      0.01    0.11             0.00    0.00             0.01    0.11
     1  INPUTE  ................      0.00    0.02             0.00    0.00             0.00    0.02
     1  SYMORE  ................      0.00    0.00             0.00    0.00             0.00    0.02
     1  METS    ................      0.00    0.03             0.00    0.00             0.00    0.01
     1  CETS    ................      0.02    0.24             0.00    2.56             0.04    0.51
     1  POPUL   ................      2.98   44.97             0.11   58.46             3.12   43.84
     1  EXIT PROCEDURE .........      0.03    0.42             0.00    1.54             0.03    0.44


 Currently Open Files (EXIT00)
 ====================

 Unit    Access Format  Status   Type       Ident (file)
 -------------------------------------------------------
   3      SEQ    FORM   TRANSP  NORMAL      LOGFILE
                                          ( logfile )


 Buffered I/O statistics
 =======================
 Memory available:                     67108864
 Number of records fitting in memory:     16131
 Input :   1.1% of                        60218  *4k bytes
 Output:  14.0% of                         4708  *4k bytes
 Records from serial files evicted:           0
                    others evicted:           0
 Hash table lookups:     172671 with          0 conflicts (  0.00%)

 ***************************************************************************************************
 (LOGFILE)
 <May09-2019> <17:11:57>  ADF 2017  RunTime: May09-2019 17:11:57  Nodes: 1  Procs: 12
 <May09-2019> <17:11:57>  *** (NO TITLE) ***
 <May09-2019> <17:11:57>  RunType   : SINGLE POINT
 <May09-2019> <17:11:57>  Net Charge: -1 (Nuclei minus Electrons)
 <May09-2019> <17:11:57>  Symmetry  : NOSYM
 <May09-2019> <17:11:57>  >>>> FRAGM
  Coordinates
    Atom         X           Y           Z   (Angstrom)
    1.F        -4.925127    3.099639   -0.045734
    2.Br       -3.822993    1.183548    0.096782
    3.Br       -6.027261    5.015732   -0.188250
 <May09-2019> <17:11:57>  >>>> CORORT
 <May09-2019> <17:11:57>  >>>> CLSMAT
 <May09-2019> <17:11:57>  >>>> ORTHON
 <May09-2019> <17:11:57>  >>>> GENPT
 <May09-2019> <17:11:57>  Block Length= 128
 <May09-2019> <17:11:58>  >>>> PTBAS
 <May09-2019> <17:11:58>  >>>> CYCLE
 <May09-2019> <17:11:58>              |Error|         MaxErr       Wt(A-DIIS)
 <May09-2019> <17:11:58>      1      1.16608699      0.60635539
 <May09-2019> <17:11:58>      2      0.97513900      0.25071050    100.0
 <May09-2019> <17:11:58>      3      0.54724074      0.18164241    100.0
 <May09-2019> <17:11:58>      4      0.57850500      0.23459230    100.0
 <May09-2019> <17:11:58>      5      1.51361837      0.41103206    100.0
 <May09-2019> <17:11:58>      6      0.51555366      0.14904110    100.0
 <May09-2019> <17:11:59>      7      0.12285269      0.03982254     39.2
 <May09-2019> <17:11:59>      8      0.14010638      0.05246052    100.0
 <May09-2019> <17:11:59>      9      0.01753410      0.00469447      3.7
 <May09-2019> <17:11:59>     10      0.00682737      0.00229886      1.3
 <May09-2019> <17:11:59>     11      0.00142957      0.00056597      0.0
 <May09-2019> <17:11:59>     12      0.00088652      0.00033976      0.0
 <May09-2019> <17:11:59>     13      0.00053517      0.00022641      0.0
 <May09-2019> <17:12:00>     14      0.00015460      0.00006411      0.0
 <May09-2019> <17:12:00>     15      0.00001210      0.00000458      0.0
 <May09-2019> <17:12:00>     16      0.00000408      0.00000139      0.0
 <May09-2019> <17:12:00>     17      0.00000027      0.00000010      0.0
 <May09-2019> <17:12:00>  SCF converged
 <May09-2019> <17:12:00>     18      0.00000010      0.00000003      0.0
 <May09-2019> <17:12:00>  >>>> TOTEN
 <May09-2019> <17:12:00>  >>>> POPAN
 <May09-2019> <17:12:00>  >>>> DEBYE
 <May09-2019> <17:12:00>  >>>> AMETS
 <May09-2019> <17:12:04>   Bond Energy          -0.07121852 a.u.
 <May09-2019> <17:12:04>   Bond Energy          -1.93795452 eV
 <May09-2019> <17:12:04>   Bond Energy         -44.69       kcal/mol
 <May09-2019> <17:12:04>  >>>> POPUL
 <May09-2019> <17:12:04>  NORMAL TERMINATION
 <May09-2019> <17:12:04>  END
