

 Parallel Execution: Process Information
 ==============================================================================
 Rank   Node Name                              NodeID   MyNodeRank  NodeMaster
    0   BAZIS-cn026                               0          0          0
    1   BAZIS-cn026                               0          1         -1
    2   BAZIS-cn026                               0          2         -1
    3   BAZIS-cn026                               0          3         -1
    4   BAZIS-cn026                               0          4         -1
    5   BAZIS-cn026                               0          5         -1
    6   BAZIS-cn026                               0          6         -1
    7   BAZIS-cn026                               0          7         -1
    8   BAZIS-cn026                               0          8         -1
    9   BAZIS-cn026                               0          9         -1
   10   BAZIS-cn026                               0         10         -1
   11   BAZIS-cn026                               0         11         -1
 ==============================================================================


May use up to 30771MB of RAM as shared memory on node 0


XC
    GGA BP86
END

SCF
    iterations 250
END

EPRINT
    SFO Eig Ovl
END

ZLMFIT
    Quality normal
END

BECKEGRID
    Quality good
End

SYMMETRY nosym
CHARGE -1

ATOMS
1.F        -4.902145    3.055663   -0.042659 f=FF
2.F        -3.941090    1.389194    0.082546 f=FF
3.Br       -5.932146    4.854061   -0.177088 f=Br
END

Fragments
FF /home/tcst25/advanced_comp_chemistry/exercise2/halogen/FFBr/frag1_FF.t21
Br /home/tcst25/advanced_comp_chemistry/exercise2/halogen/FFBr/frag2_Br.t21
End
end input

 *******************************************************************************
 *                                                                             *
 *  -------------------------------------                                      *
 *   Amsterdam Density Functional  (ADF)         2017                          *
 *  -------------------------------------                                      *
 *                                               r58813 2017-04-12             *
 *                                                                             *
 *                                                                             *
 *                              =================                              *
 *                              |               |                              *
 *                              |     A D F     |                              *
 *                              |               |                              *
 *                              =================                              *
 *                                                                             *
 *                                                                             *
 *   Online information and documentation:  https://www.scm.com/support/       *
 *   E-mail:  support@scm.com   info@scm.com                                   *
 *                                                                             *
 *   Scientific publications using ADF results must be properly referenced     *
 *   See the User Manuals (or the web site) for recommended citations          *
 *   The terms and conditions of the End User License Agreement apply to       *
 *   the use of ADF, https://www.scm.com/license-terms/                        *
 *                                                                             *
 **********************  x86_64_linux_intel / intelmpi  ************************
 
 Licensed to: VU/FEW (+ SARA) / ALGEMEEN / Amsterdam / THE NETHERLANDS
 SCM User ID: u7668
  
 ADF 2017  RunTime: May09-2019 17:12:14  Nodes: 1  Procs: 12

 Temporary files are created in /local/datastore0/tcst25/189789/kid_0.31k9BN


Communication costs MPI_COMM_WORLD:      3.933 usec per message,   0.0185 usec per 8-byte item
Communication costs for intra-node:      3.928 usec per message,   0.0181 usec per 8-byte item

 *** (NO TITLE) ***



 ===========================
 A T T A C H E D   F I L E S
 ===========================
  



 ===============================
 M O D E L   P A R A M E T E R S
 ===============================
  
 DENSITY FUNCTIONAL POTENTIAL (scf)
    LDA:                               VWN                                      
    Gradient Corrections:              Becke88 Perdew86                        == Not Default ==

 SPIN  (restricted / unrestr.)
    Molecule:                          Restricted                               
    Fragments:                         Restricted                               

 OTHER ASPECTS
    Relativistic Corrections:          ---                                      

    Nuclear Charge Density Model:      Point Charge Nuclei                      
    Core Treatment:                    Frozen Orbital(s)                        

    Hyperfine or Zeeman Interaction:   ---                                      


 Fragment File(s)
 ----------------
 FF:
         file : /home/tcst25/advanced_comp_chemistry/exercise2/halogen/FFBr/frag1_FF.t21
         jobid: ADF 2017  RunTime: May09-2019 16:32:32  Nodes: 1  Procs: 12
         title: *** (NO TITLE) ***
 Br:
         file : /home/tcst25/advanced_comp_chemistry/exercise2/halogen/FFBr/frag2_Br.t21
         jobid: ADF 2017  RunTime: May09-2019 16:32:34  Nodes: 1  Procs: 12
         title: *** (NO TITLE) ***



                                        ************************************
                                        *  R U N   T Y P E : SINGLE POINT  *
                                        ************************************
  



 ===============
 G E O M E T R Y  ***  Planar Molecule  ***
 ===============
  

 ATOMS
 =====                            X Y Z                    CHARGE
                                (Angstrom)             Nucl     +Core       At.Mass
                       --------------------------    ----------------       -------
    1  F              -4.9021    3.0557   -0.0427      9.00      9.00       18.9984
    2  F              -3.9411    1.3892    0.0825      9.00      9.00       18.9984
    3  Br             -5.9321    4.8541   -0.1771     35.00     35.00       78.9183


 FRAGMENTS
 =========                                     Atoms in this Fragment     Cart. coord.s (Angstrom)
                                               -------------------------------------------------------
    1  FF                                                1  F           -4.9021    3.0557   -0.0427
                                                         2  F           -3.9411    1.3892    0.0825
    2  Br                                                3  Br          -5.9321    4.8541   -0.1771


 Interatomic Distance Matrix (Angstrom)
 --------------------------------------

   1)     0.000
   2)     1.928   0.000
   3)     2.077   4.005   0.000

 Min. Distance =    1.9278
 Max. Distance =    4.0046



 =====================================
 S Y M M E T R Y ,   E L E C T R O N S
 =====================================
  
 Symmetry: NOSYM

 Irreducible Representations, including subspecies
 -------------------------------------------------
 A


 Configuration of Valence Electrons
 ==================================
 ( determined in the SCF procedure )

 Total:   54

 Net Charge: -1 (Nuclei minus Electrons)

 Aufbau principle for MO occupations will be applied through SCF cycle no.     125
 Thereafter, the program will assign electrons to MOs that are spatially
 similar to the occupied MOs in a "reference" cycle ("KeepOrbitals").
 The reference cycle is always the PREVIOUS cycle: it will evolve with
 the SCF procedure.
1
 ***************************************************************************************************



                                      ****************************************
                                      *  B U I L D : (Fragments, Functions)  *
                                      ****************************************
  

 The individual fragments are copies of the corresponding 'Master' fragments defined on the fragment files.
 However, they may have been rotated (and translated) with respect to the Master. The local coordinate axes
 of each fragment (which define for instance the spatial orientation in the current molecule of a fragment
 P:x orbital) are not necessarily those of the molecule.
 The local frame (if different from the molecular one) is printed to enable an interpretation of the expan-
 sion of an MO in Fragment Orbitals.



                                              ************************
                                              *  Fragment Type : FF  *
                                              ************************
  

 Fragment no.    1   (in the list of all fragments)
 -----------------
 The local coordinate frame is identical to the molecular frame.

 Check Atomic Coordinates:

                  Master (on file)          After Computed Tranformation               As specified on Input
           ----------------------------     ----------------------------     ---------------------------------
     1)    -4.90214   3.05566  -0.04266     -4.90214   3.05566  -0.04266       1  -4.90214   3.05566  -0.04266
     2)    -3.94109   1.38919   0.08255     -3.94109   1.38919   0.08255       2  -3.94109   1.38919   0.08255



                                              ************************
                                              *  Fragment Type : Br  *
                                              ************************
  

 Fragment no.    2   (in the list of all fragments)
 -----------------
 The local coordinate frame is identical to the molecular frame.

 Check Atomic Coordinates:

                  Master (on file)          After Computed Tranformation               As specified on Input
           ----------------------------     ----------------------------     ---------------------------------
     1)    -5.93215   4.85406  -0.17709     -5.93215   4.85406  -0.17709       3  -5.93215   4.85406  -0.17709



 =======
 S F O s  ***  (Symmetrized Fragment Orbitals)  ***
 =======
  
 SFOs are linear combinations of (valence) Fragment Orbitals (FOs), such that the SFOs transform as the
 irreducible representations of the (molecular) symmetry group. Each SFO is therefore characterized by
 an irrep of the molecule and by a few (or only one) generating FOs.
 The SFOs constitute a symmetry-adapted basis for the Fock matrix. The MO eigenvector coefficients in
 this basis provide a direct interpretation of the MOs in terms of Frontier Orbital Theory.

 The SFOs are combined with auxiliary Core Functions (CFs) to ensure orthogonalization on the (frozen)
 Core Orbitals (COs). The Core-orthogonalized SFOs (CSFOs) constitute the true Fock basis.

 The FOs, and hence also the (C)SFOs are combinations of the elementary basis functions (BAS). The basis
 functions that participate in the description of the SFOs depend on the irrep. The indices of the
 involved functions are printed below for each irrep.
 (The complete list of primitive basis functions is printed in another section)

 Total nr. of (C)SFOs (summation over all irreps) :   108

 NOTE: a (C)SFO that is defined as a combination of more than one FO is usually NOT normalized.



                                       === A ===
 Nr. of SFOs :  108
 Cartesian basis functions that participate in this irrep (total number =   123) :
      1     2     3     4     5     6     9    12     7    10
     13     8    11    14    15    16    17    18    19    20
     21    22    23    24    25    26    27    28    29    30
     31    32    33    34    35    36    39    42    37    40
     43    38    41    44    45    46    47    48    49    50
     51    52    53    54    55    56    57    58    59    60
     61    62    63    70    71    96    97    98    64    67
     72    75    99   102   105    65    68    73    76   100
    103   106    66    69    74    77   101   104   107    78
     84    90   108    79    85    91   109    80    86    92
    110    81    87    93   111    82    88    94   112    83
     89    95   113   114   115   116   117   118   119   120
    121   122   123

    SFO  (index         Fragment          Generating    Expansion in Fragment Orbitals
  indx  incl.CFs)   Occup   Orb.Energy   FragmentType  Coeff.   Orbital     on Fragment
 --------------------------------------------------------------------------------------
     1       1      2.000     -24.406 au  FF            1.00      1 A               1
                        (    -664.133 eV)
     2       2      2.000     -24.406 au  FF            1.00      2 A               1
                        (    -664.133 eV)
     3       3      2.000      -1.131 au  FF            1.00      3 A               1
                        (     -30.769 eV)
     4       4      2.000      -1.083 au  FF            1.00      4 A               1
                        (     -29.480 eV)
     5       5      2.000      -0.499 au  FF            1.00      5 A               1
                        (     -13.570 eV)
     6       6      2.000      -0.427 au  FF            1.00      6 A               1
                        (     -11.608 eV)
     7       7      2.000      -0.427 au  FF            1.00      7 A               1
                        (     -11.608 eV)
     8       8      2.000      -0.394 au  FF            1.00      8 A               1
                        (     -10.727 eV)
     9       9      2.000      -0.394 au  FF            1.00      9 A               1
                        (     -10.727 eV)
    10      10       --        -0.380 au  FF            1.00     10 A               1
                        (     -10.350 eV)
    11      11       --         0.021 au  FF            1.00     11 A               1
                        (       0.570 eV)
    12      12       --         0.073 au  FF            1.00     12 A               1
                        (       1.985 eV)
    13      13       --         0.371 au  FF            1.00     13 A               1
                        (      10.107 eV)
    14      14       --         0.371 au  FF            1.00     14 A               1
                        (      10.107 eV)
    15      15       --         0.514 au  FF            1.00     15 A               1
                        (      13.984 eV)
    16      16       --         0.537 au  FF            1.00     16 A               1
                        (      14.621 eV)
    17      17       --         0.537 au  FF            1.00     17 A               1
                        (      14.621 eV)
    18      18       --         0.746 au  FF            1.00     18 A               1
                        (      20.295 eV)
    19      19       --         0.958 au  FF            1.00     19 A               1
                        (      26.062 eV)
    20      20       --         0.958 au  FF            1.00     20 A               1
                        (      26.062 eV)
    21      21       --         1.049 au  FF            1.00     21 A               1
                        (      28.546 eV)
    22      22       --         1.049 au  FF            1.00     22 A               1
                        (      28.546 eV)
    23      23       --         1.074 au  FF            1.00     23 A               1
                        (      29.225 eV)
    24      24       --         1.200 au  FF            1.00     24 A               1
                        (      32.667 eV)
    25      25       --         1.201 au  FF            1.00     25 A               1
                        (      32.667 eV)
    26      26       --         1.358 au  FF            1.00     26 A               1
                        (      36.955 eV)
    27      27       --         1.489 au  FF            1.00     27 A               1
                        (      40.518 eV)
    28      28       --         1.489 au  FF            1.00     28 A               1
                        (      40.518 eV)
    29      29       --         1.583 au  FF            1.00     29 A               1
                        (      43.088 eV)
    30      30       --         2.419 au  FF            1.00     30 A               1
                        (      65.823 eV)
    31      31       --         3.162 au  FF            1.00     31 A               1
                        (      86.050 eV)
    32      32       --         3.162 au  FF            1.00     32 A               1
                        (      86.050 eV)
    33      33       --         3.216 au  FF            1.00     33 A               1
                        (      87.511 eV)
    34      34       --         3.228 au  FF            1.00     34 A               1
                        (      87.827 eV)
    35      35       --         3.228 au  FF            1.00     35 A               1
                        (      87.827 eV)
    36      36       --         3.389 au  FF            1.00     36 A               1
                        (      92.208 eV)
    37      37       --         3.389 au  FF            1.00     37 A               1
                        (      92.208 eV)
    38      38       --         3.463 au  FF            1.00     38 A               1
                        (      94.241 eV)
    39      39       --         3.463 au  FF            1.00     39 A               1
                        (      94.242 eV)
    40      40       --         3.638 au  FF            1.00     40 A               1
                        (      98.987 eV)
    41      41       --         3.638 au  FF            1.00     41 A               1
                        (      98.987 eV)
    42      42       --         3.994 au  FF            1.00     42 A               1
                        (     108.685 eV)
    43      43       --         3.994 au  FF            1.00     43 A               1
                        (     108.685 eV)
    44      44       --         4.172 au  FF            1.00     44 A               1
                        (     113.529 eV)
    45      45       --         4.503 au  FF            1.00     45 A               1
                        (     122.527 eV)
    46      46       --         4.503 au  FF            1.00     46 A               1
                        (     122.528 eV)
    47      47       --         4.764 au  FF            1.00     47 A               1
                        (     129.633 eV)
    48      48       --         4.764 au  FF            1.00     48 A               1
                        (     129.634 eV)
    49      49       --         4.900 au  FF            1.00     49 A               1
                        (     133.324 eV)
    50      50       --         5.248 au  FF            1.00     50 A               1
                        (     142.804 eV)
    51      51       --        48.269 au  FF            1.00     51 A               1
                        (    1313.469 eV)
    52      52       --        49.975 au  FF            1.00     52 A               1
                        (    1359.878 eV)
    53      53      2.000    -480.688 au  Br            1.00      1 A               2
                        (  -13080.195 eV)
    54      54      2.000     -61.445 au  Br            1.00      2 A               2
                        (   -1672.008 eV)
    55      55      2.000     -55.375 au  Br            1.00      3 A               2
                        (   -1506.824 eV)
    56      56      2.000     -55.375 au  Br            1.00      4 A               2
                        (   -1506.824 eV)
    57      57      2.000     -55.375 au  Br            1.00      5 A               2
                        (   -1506.824 eV)
    58      58      2.000      -8.066 au  Br            1.00      6 A               2
                        (    -219.480 eV)
    59      59      2.000      -5.966 au  Br            1.00      7 A               2
                        (    -162.330 eV)
    60      60      2.000      -5.966 au  Br            1.00      8 A               2
                        (    -162.330 eV)
    61      61      2.000      -5.966 au  Br            1.00      9 A               2
                        (    -162.330 eV)
    62      62      2.000      -2.173 au  Br            1.00     10 A               2
                        (     -59.143 eV)
    63      63      2.000      -2.173 au  Br            1.00     11 A               2
                        (     -59.143 eV)
    64      64      2.000      -2.173 au  Br            1.00     12 A               2
                        (     -59.143 eV)
    65      65      2.000      -2.173 au  Br            1.00     13 A               2
                        (     -59.143 eV)
    66      66      2.000      -2.173 au  Br            1.00     14 A               2
                        (     -59.143 eV)
    67      67      2.000      -0.386 au  Br            1.00     15 A               2
                        (     -10.500 eV)
    68      68      2.000       0.016 au  Br            1.00     16 A               2
                        (       0.447 eV)
    69      69      2.000       0.016 au  Br            1.00     17 A               2
                        (       0.447 eV)
    70      70      2.000       0.016 au  Br            1.00     18 A               2
                        (       0.447 eV)
    71      71       --         0.352 au  Br            1.00     19 A               2
                        (       9.589 eV)
    72      72       --         0.352 au  Br            1.00     20 A               2
                        (       9.589 eV)
    73      73       --         0.352 au  Br            1.00     21 A               2
                        (       9.589 eV)
    74      74       --         0.501 au  Br            1.00     22 A               2
                        (      13.634 eV)
    75      75       --         0.551 au  Br            1.00     23 A               2
                        (      15.005 eV)
    76      76       --         0.551 au  Br            1.00     24 A               2
                        (      15.005 eV)
    77      77       --         0.551 au  Br            1.00     25 A               2
                        (      15.005 eV)
    78      78       --         0.551 au  Br            1.00     26 A               2
                        (      15.005 eV)
    79      79       --         0.551 au  Br            1.00     27 A               2
                        (      15.005 eV)
    80      80       --         1.141 au  Br            1.00     28 A               2
                        (      31.038 eV)
    81      81       --         1.141 au  Br            1.00     29 A               2
                        (      31.038 eV)
    82      82       --         1.141 au  Br            1.00     30 A               2
                        (      31.038 eV)
    83      83       --         1.141 au  Br            1.00     31 A               2
                        (      31.038 eV)
    84      84       --         1.141 au  Br            1.00     32 A               2
                        (      31.038 eV)
    85      85       --         1.141 au  Br            1.00     33 A               2
                        (      31.038 eV)
    86      86       --         1.141 au  Br            1.00     34 A               2
                        (      31.038 eV)
    87      87       --         1.505 au  Br            1.00     35 A               2
                        (      40.949 eV)
    88      88       --         1.505 au  Br            1.00     36 A               2
                        (      40.949 eV)
    89      89       --         1.505 au  Br            1.00     37 A               2
                        (      40.949 eV)
    90      90       --         2.776 au  Br            1.00     38 A               2
                        (      75.551 eV)
    91      91       --         3.002 au  Br            1.00     39 A               2
                        (      81.690 eV)
    92      92       --         3.002 au  Br            1.00     40 A               2
                        (      81.690 eV)
    93      93       --         3.002 au  Br            1.00     41 A               2
                        (      81.690 eV)
    94      94       --         3.002 au  Br            1.00     42 A               2
                        (      81.690 eV)
    95      95       --         3.002 au  Br            1.00     43 A               2
                        (      81.690 eV)
    96      96       --         9.163 au  Br            1.00     44 A               2
                        (     249.341 eV)
    97      97       --         9.163 au  Br            1.00     45 A               2
                        (     249.341 eV)
    98      98       --         9.163 au  Br            1.00     46 A               2
                        (     249.341 eV)
    99      99       --        14.623 au  Br            1.00     47 A               2
                        (     397.911 eV)
   100     100       --        20.941 au  Br            1.00     48 A               2
                        (     569.821 eV)
   101     101       --        20.941 au  Br            1.00     49 A               2
                        (     569.821 eV)
   102     102       --        20.941 au  Br            1.00     50 A               2
                        (     569.821 eV)
   103     103       --        20.941 au  Br            1.00     51 A               2
                        (     569.821 eV)
   104     104       --        20.941 au  Br            1.00     52 A               2
                        (     569.821 eV)
   105     105       --       101.209 au  Br            1.00     53 A               2
                        (    2754.029 eV)
   106     106       --       101.209 au  Br            1.00     54 A               2
                        (    2754.029 eV)
   107     107       --       101.209 au  Br            1.00     55 A               2
                        (    2754.029 eV)
   108     108       --       746.807 au  Br            1.00     56 A               2
                        (   20321.657 eV)



 ================================
 (Slater-type)  F U N C T I O N S  ***  (Basis and Fit)  ***
 ================================
  

 Atom Type    1  (F)
 ==============

 Valence Basis Sets:  10
 -----------------------
   1 S   10.880000
   1 S    7.700000
   2 S    3.240000
   2 S    1.940000
   2 S    0.740000
   2 P    4.540000
   2 P    2.300000
   2 P    1.240000
   3 D    2.000000
   4 F    3.000000

 Atom Type    2  (Br)
 ==============

 Valence Basis Sets:  20
 -----------------------
   1 S   41.300000
   1 S   32.800000
   2 S   13.900000
   2 P   19.450000
   2 P   13.100000
   3 S    7.200000
   3 S    4.950000
   3 P    7.900000
   3 P    5.050000
   3 D   10.900000
   3 D    6.050000
   3 D    3.500000
   4 S    4.500000
   4 S    2.800000
   4 S    1.800000
   4 P    3.250000
   4 P    1.950000
   4 P    1.200000
   4 D    1.800000
   4 F    1.800000


 BAS: List of all Elementary Cartesian Basis Functions
 =====================================================

 The numbering in the list below (to the right of the function characteristics) is referred
 to in print-outs of MO eigenvectors and Mulliken populations in the BAS representation
 (as contrasted to the SFO representation).

 Notes:
 1. The functions are characterized by a polynomial prefactor (powers of x,y,z and r) and
    an exponential decay factor alpha.
 2. Since the basis sets are specific for an atom TYPE, the individual functions occur on
    all atoms of that type.
 3. The word 'Core' in the left margin signals that it is a Core Function (CF) : not a
    degree of freedom in the valence set, but only used to ensure orthogonalization of
    the other valence basis functions on the frozen Core Orbitals.


 (power of) X  Y  Z  R     Alpha  on Atom
            ==========     =====     ==========

 F                                    1    2
                                  ---------------------------------------------------------------------------
            0  0  0  0    10.880      1   31
            0  0  0  0     7.700      2   32
            0  0  0  1     3.240      3   33
            0  0  0  1     1.940      4   34
            0  0  0  1     0.740      5   35
            1  0  0  0     4.540      6   36
            0  1  0  0     4.540      7   37
            0  0  1  0     4.540      8   38
            1  0  0  0     2.300      9   39
            0  1  0  0     2.300     10   40
            0  0  1  0     2.300     11   41
            1  0  0  0     1.240     12   42
            0  1  0  0     1.240     13   43
            0  0  1  0     1.240     14   44
            2  0  0  0     2.000     15   45
            1  1  0  0     2.000     16   46
            1  0  1  0     2.000     17   47
            0  2  0  0     2.000     18   48
            0  1  1  0     2.000     19   49
            0  0  2  0     2.000     20   50
            3  0  0  0     3.000     21   51
            2  1  0  0     3.000     22   52
            2  0  1  0     3.000     23   53
            1  2  0  0     3.000     24   54
            1  1  1  0     3.000     25   55
            1  0  2  0     3.000     26   56
            0  3  0  0     3.000     27   57
            0  2  1  0     3.000     28   58
            0  1  2  0     3.000     29   59
            0  0  3  0     3.000     30   60

 Br                                   3
                                  ---------------------------------------------------------------------------
            0  0  0  0    41.300     61
            0  0  0  0    32.800     62
            0  0  0  1    13.900     63
            1  0  0  0    19.450     64
            0  1  0  0    19.450     65
            0  0  1  0    19.450     66
            1  0  0  0    13.100     67
            0  1  0  0    13.100     68
            0  0  1  0    13.100     69
            0  0  0  2     7.200     70
            0  0  0  2     4.950     71
            1  0  0  1     7.900     72
            0  1  0  1     7.900     73
            0  0  1  1     7.900     74
            1  0  0  1     5.050     75
            0  1  0  1     5.050     76
            0  0  1  1     5.050     77
            2  0  0  0    10.900     78
            1  1  0  0    10.900     79
            1  0  1  0    10.900     80
            0  2  0  0    10.900     81
            0  1  1  0    10.900     82
            0  0  2  0    10.900     83
            2  0  0  0     6.050     84
            1  1  0  0     6.050     85
            1  0  1  0     6.050     86
            0  2  0  0     6.050     87
            0  1  1  0     6.050     88
            0  0  2  0     6.050     89
            2  0  0  0     3.500     90
            1  1  0  0     3.500     91
            1  0  1  0     3.500     92
            0  2  0  0     3.500     93
            0  1  1  0     3.500     94
            0  0  2  0     3.500     95
            0  0  0  3     4.500     96
            0  0  0  3     2.800     97
            0  0  0  3     1.800     98
            1  0  0  2     3.250     99
            0  1  0  2     3.250    100
            0  0  1  2     3.250    101
            1  0  0  2     1.950    102
            0  1  0  2     1.950    103
            0  0  1  2     1.950    104
            1  0  0  2     1.200    105
            0  1  0  2     1.200    106
            0  0  1  2     1.200    107
            2  0  0  1     1.800    108
            1  1  0  1     1.800    109
            1  0  1  1     1.800    110
            0  2  0  1     1.800    111
            0  1  1  1     1.800    112
            0  0  2  1     1.800    113
            3  0  0  0     1.800    114
            2  1  0  0     1.800    115
            2  0  1  0     1.800    116
            1  2  0  0     1.800    117
            1  1  1  0     1.800    118
            1  0  2  0     1.800    119
            0  3  0  0     1.800    120
            0  2  1  0     1.800    121
            0  1  2  0     1.800    122
            0  0  3  0     1.800    123

 Total number of charge fitting functions (nprimf)       340
 Total number of Cartesian basis functions (naos)        123
 Total number of Cartesian core functions  (ncos)          0

1
 ***************************************************************************************************



                                              ***********************
                                              *  T E C H N I C A L  *
                                              ***********************
  



 =============================================================
 P A R A L L E L I Z A T I O N  and  V E C T O R I Z A T I O N
 =============================================================
  
 Nr of parallel processes:                               12
 Maximum vector length in NumInt loops:                 128

 IO buffersize (Mb):                                     64.000000



 =====================
 S C F   U P D A T E S
 =====================
  
 Max. nr. of cycles:                               250
 Convergence criterion:                              0.0000010000
   secondary criterion:                              0.0010000000

 Mix parameter (when DIIS does not apply):           0.2000000000
 Mixed ADIIS+DIIS will be used
    Max number of expansion vectors:                10
    Pure ADIIS when Max([F,P]) is above              0.1000000000
    Pure DIIS when Max([F,P]) is below               0.0010000000
 Automatic ElectronSmearing (in case of problematic SCF convergence) disabled



 =================
 P R E C I S I O N  ***  (General: NumInt, NeglectFunctionTails, ...)  ***
 =================
  

 NumInt:           Target precision:                 6.0000000000
 -------           Initial precision:                6.0000000000
                   Min. precision (optimization):    6.0000000000

 Neglect Functions:          Basis functions:        0.1000000000E-07
 ------------------          Fit functions:          0.1000000000E-07



 ===========================
 L I N E A R   S C A L I N G
 ===========================
  

 Cut-off radii density fit:                        0.1000000000E-09
 Overlap cut-off criterion AO matrix elements:     0.1000000000E-07
 Cut-offs for Coulomb potential and fitted density:0.1000000000E-09
 Cut-off criterion for Coulomb multipole terms:    0.1000000000E-09
 Progressive Convergence parameter:                 0.000000000    
1
 ***************************************************************************************************



                                            ***************************
                                            *  C O M P U T A T I O N  *
                                            ***************************
  

 Number of elements of the density matrix on this node (used, total):      2016      7626



 ===========================================
 Numerical Integration : Fuzzy Cells (Becke)
 ===========================================
  
 Becke grid quality: GOOD           
  
 Lebedev angular grid order:             min:  11 max:  31
 Nr. of radial points:                   min:  65 max:  90

 Total nr. of points:      47646
 Nr. of blocks:              373
 Block length:               128
 Nr. of dummy points:         98


 Test of Precision of the Numerical Integration Grid
 ===================================================

 Integral of the Total Core Density:                   0.00000000000000



 ========================
 Density Fitting (zlmFit)
 ========================
  
 ZlmFit Fit Quality: NORMAL         
  
 Max L-expansion:                        min:   7 max:   7
 Nr. of radial interpolation points:     min:  51 max:  72



 =====
 S C F  ***  ScaSCF  ***
 =====
  
 Initial density matrix is calculated as sum of fragments

 CYCLE    1
 SCF Error: norm([F,P])=      1.366099897758, max([F,P])=      0.775270164109
 orbitals (Q,E):
 ---------------
 A :18...37          ( 2.00    -0.8946)  ( 2.00    -0.4258)  ( 2.00    -0.3411)  ( 2.00    -0.2888)
                     ( 2.00    -0.2888)  ( 2.00    -0.2091)  ( 2.00    -0.1947)  ( 2.00    -0.1947)
                     ( 2.00    -0.0017)  ( 2.00    -0.0017)  ( 0.00     0.0468)  ( 0.00     0.1636)
                     ( 0.00     0.2408)  ( 0.00     0.3437)  ( 0.00     0.3437)  ( 0.00     0.3500)
                     ( 0.00     0.5100)  ( 0.00     0.5100)  ( 0.00     0.5269)  ( 0.00     0.5269)

 CYCLE    2
  SDIIS (wt  0.000):  0.5117  0.4883
 A-DIIS (wt  1.000):  0.8424  0.1576
  DIIS coefficients:  0.8424  0.1576
 SCF Error: norm([F,P])=      1.398971594230, max([F,P])=      0.442655362043
 orbitals (Q,E):
 ---------------
 A :18...28          ( 2.00    -0.8207)  ( 2.00    -0.4777)  ( 2.00    -0.2456)  ( 2.00    -0.1711)
                     ( 2.00    -0.1711)  ( 2.00    -0.1378)  ( 2.00    -0.1322)  ( 2.00    -0.1322)
                     ( 2.00    -0.0487)  ( 2.00    -0.0487)  ( 0.00     0.0159)

 CYCLE    3
  SDIIS (wt  0.000):  0.1282 -0.4595  1.3313
 A-DIIS (wt  1.000):  0.7347  0.0000  0.2653
  DIIS coefficients:  0.7347  0.0000  0.2653
 SCF Error: norm([F,P])=      0.690845174022, max([F,P])=      0.304894147462
 orbitals (Q,E):
 ---------------
 A :18...28          ( 2.00    -0.8123)  ( 2.00    -0.4886)  ( 2.00    -0.2491)  ( 2.00    -0.1726)
                     ( 2.00    -0.1726)  ( 2.00    -0.1248)  ( 2.00    -0.1248)  ( 2.00    -0.1240)
                     ( 2.00    -0.0596)  ( 2.00    -0.0596)  ( 0.00     0.0013)

 CYCLE    4
  SDIIS (wt  0.000): -0.6791 -0.0396  1.7187
 A-DIIS (wt  1.000):  0.0000  0.0000  1.0000
  DIIS coefficients:  0.0000  0.0000  1.0000
 SCF Error: norm([F,P])=      0.669271956245, max([F,P])=      0.353569162433
 orbitals (Q,E):
 ---------------
 A :18...28          ( 2.00    -0.6558)  ( 2.00    -0.4142)  ( 2.00    -0.2630)  ( 2.00    -0.2434)
                     ( 2.00    -0.2434)  ( 2.00    -0.0104)  ( 2.00    -0.0104)  ( 2.00     0.0089)
                     ( 2.00     0.1523)  ( 2.00     0.2292)  ( 0.00     0.2292)

 CYCLE    5
  SDIIS (wt  0.000): -0.6035  0.0271  1.5480  0.0284
 A-DIIS (wt  1.000):  0.0000  0.0000  0.9581  0.0419
  DIIS coefficients:  0.0000  0.0000  0.9581  0.0419
 SCF Error: norm([F,P])=      4.425628731836, max([F,P])=      1.592360427226
 orbitals (Q,E):
 ---------------
 A :18...28          ( 2.00    -0.6238)  ( 2.00    -0.5695)  ( 2.00    -0.2303)  ( 2.00    -0.2014)
                     ( 2.00    -0.2003)  ( 2.00    -0.0279)  ( 2.00    -0.0277)  ( 2.00    -0.0155)
                     ( 2.00     0.0972)  ( 2.00     0.0973)  ( 0.00     0.1361)

 CYCLE    6
  SDIIS (wt  0.000): -0.2633  0.3166  0.7666 -0.0049  0.1850
 A-DIIS (wt  1.000):  0.0000  0.3654  0.3738  0.0000  0.2608
  DIIS coefficients:  0.0000  0.3654  0.3738  0.0000  0.2608
 SCF Error: norm([F,P])=      1.829674201368, max([F,P])=      0.606872396147
 orbitals (Q,E):
 ---------------
 A :18...28          ( 2.00    -0.7130)  ( 2.00    -0.5324)  ( 2.00    -0.1893)  ( 2.00    -0.1282)
                     ( 2.00    -0.1282)  ( 2.00    -0.0688)  ( 2.00    -0.0688)  ( 2.00    -0.0603)
                     ( 2.00    -0.0295)  ( 2.00    -0.0294)  ( 0.00     0.0355)

 CYCLE    7
  SDIIS (wt  0.000): -0.0595 -0.6195  1.1650 -0.0002  0.0167  0.4975
 A-DIIS (wt  1.000):  0.0000  0.0000  0.4316  0.0000  0.0000  0.5684
  DIIS coefficients:  0.0000  0.0000  0.4316  0.0000  0.0000  0.5684
 SCF Error: norm([F,P])=      0.616928349915, max([F,P])=      0.278105744832
 orbitals (Q,E):
 ---------------
 A :18...28          ( 2.00    -0.7019)  ( 2.00    -0.5176)  ( 2.00    -0.2608)  ( 2.00    -0.2048)
                     ( 2.00    -0.2048)  ( 2.00    -0.0891)  ( 2.00    -0.0891)  ( 2.00    -0.0587)
                     ( 2.00    -0.0204)  ( 2.00    -0.0204)  ( 0.00     0.0036)

 CYCLE    8
  SDIIS (wt  0.000): -0.1760 -0.1048  0.7632  0.0011 -0.0788  0.4420  0.1533
 A-DIIS (wt  1.000):  0.0000  0.0000  0.4335  0.0000  0.0000  0.4696  0.0969
  DIIS coefficients:  0.0000  0.0000  0.4335  0.0000  0.0000  0.4696  0.0969
 SCF Error: norm([F,P])=      1.332753836123, max([F,P])=      0.643545190391
 orbitals (Q,E):
 ---------------
 A :18...28          ( 2.00    -0.7354)  ( 2.00    -0.5099)  ( 2.00    -0.2291)  ( 2.00    -0.1631)
                     ( 2.00    -0.1631)  ( 2.00    -0.0812)  ( 2.00    -0.0812)  ( 2.00    -0.0685)
                     ( 2.00    -0.0511)  ( 2.00    -0.0511)  ( 0.00     0.0020)

 CYCLE    9
  SDIIS (wt  0.000): -0.0327  0.1262  0.0225  0.0004 -0.0138  0.1399 -0.0864  0.8440
 A-DIIS (wt  1.000):  0.0000  0.0955  0.0000  0.0000  0.0000  0.0458  0.0000  0.8588
  DIIS coefficients:  0.0000  0.0955  0.0000  0.0000  0.0000  0.0458  0.0000  0.8588
 SCF Error: norm([F,P])=      0.222640396792, max([F,P])=      0.101219932109
 orbitals (Q,E):
 ---------------
 A :18...28          ( 2.00    -0.7662)  ( 2.00    -0.5045)  ( 2.00    -0.2003)  ( 2.00    -0.1231)
                     ( 2.00    -0.1231)  ( 2.00    -0.0958)  ( 2.00    -0.0949)  ( 2.00    -0.0949)
                     ( 2.00    -0.0572)  ( 2.00    -0.0572)  ( 0.00     0.0193)

 CYCLE   10
  SDIIS (wt  0.000): -0.0298 -0.0748  0.1543 -0.0002  0.0006  0.0364 -0.0454  0.7769  0.1820
 A-DIIS (wt  1.000):  0.0000  0.0000  0.0000  0.0000  0.0000  0.0000  0.0000  0.7914  0.2086
  DIIS coefficients:  0.0000  0.0000  0.0000  0.0000  0.0000  0.0000  0.0000  0.7914  0.2086
 SCF Error: norm([F,P])=      0.647452649836, max([F,P])=      0.227140192525
 orbitals (Q,E):
 ---------------
 A :18...28          ( 2.00    -0.7590)  ( 2.00    -0.5047)  ( 2.00    -0.2179)  ( 2.00    -0.1451)
                     ( 2.00    -0.1451)  ( 2.00    -0.0841)  ( 2.00    -0.0821)  ( 2.00    -0.0821)
                     ( 2.00    -0.0658)  ( 2.00    -0.0658)  ( 0.00     0.0055)

 CYCLE   11
  SDIIS (wt  0.000): -0.0235 -0.0084  0.0381 -0.0002 -0.0026  0.0605 -0.0215  0.6131  0.0399  0.3045
 A-DIIS (wt  1.000):  0.0000  0.0000  0.0000  0.0000  0.0000  0.0000  0.0000  0.5995  0.0000  0.4005
  DIIS coefficients:  0.0000  0.0000  0.0000  0.0000  0.0000  0.0000  0.0000  0.5995  0.0000  0.4005
 SCF Error: norm([F,P])=      0.275256454137, max([F,P])=      0.094577520603
 orbitals (Q,E):
 ---------------
 A :18...28          ( 2.00    -0.7360)  ( 2.00    -0.5177)  ( 2.00    -0.2097)  ( 2.00    -0.1367)
                     ( 2.00    -0.1367)  ( 2.00    -0.0815)  ( 2.00    -0.0815)  ( 2.00    -0.0723)
                     ( 2.00    -0.0502)  ( 2.00    -0.0502)  ( 0.00     0.0117)

 CYCLE   12
  SDIIS (wt  0.000): -0.0281  0.0049  0.0000 -0.0035 -0.0015  0.0030  0.3401 -0.0977  0.5209  0.2619
 A-DIIS (wt  1.000):  0.0000  0.0000  0.0000  0.0000  0.0000  0.0000  0.4868  0.0000  0.3487  0.1645
  DIIS coefficients:  0.0000  0.0000  0.0000  0.0000  0.0000  0.0000  0.4868  0.0000  0.3487  0.1645
 SCF Error: norm([F,P])=      0.254053824947, max([F,P])=      0.117173263289
 orbitals (Q,E):
 ---------------
 A :18...28          ( 2.00    -0.7439)  ( 2.00    -0.5115)  ( 2.00    -0.2200)  ( 2.00    -0.1488)
                     ( 2.00    -0.1488)  ( 2.00    -0.0813)  ( 2.00    -0.0813)  ( 2.00    -0.0751)
                     ( 2.00    -0.0576)  ( 2.00    -0.0576)  ( 0.00     0.0044)

 CYCLE   13
  SDIIS (wt  0.853):  0.0009 -0.0000  0.0008  0.0007 -0.0044  0.1459 -0.0101  0.0303 -0.0666  0.9025
 A-DIIS (wt  0.147):  0.0000  0.0000  0.0000  0.0000  0.0000  0.0680  0.0000  0.0000  0.0000  0.9320
  DIIS coefficients:  0.0007 -0.0000  0.0007  0.0006 -0.0038  0.1345 -0.0087  0.0259 -0.0568  0.9069
 SCF Error: norm([F,P])=      0.041967279150, max([F,P])=      0.015529273344
 orbitals (Q,E):
 ---------------
 A :18...28          ( 2.00    -0.7432)  ( 2.00    -0.5104)  ( 2.00    -0.2230)  ( 2.00    -0.1528)
                     ( 2.00    -0.1528)  ( 2.00    -0.0810)  ( 2.00    -0.0810)  ( 2.00    -0.0743)
                     ( 2.00    -0.0572)  ( 2.00    -0.0572)  ( 0.00     0.0029)

 CYCLE   14
  SDIIS (wt  0.954): -0.0000  0.0003 -0.0027 -0.0015  0.0160  0.0029  0.0013  0.0170  0.2310  0.7359
 A-DIIS (wt  0.046):  0.0000  0.0000  0.0000  0.0000  0.0000  0.0000  0.0000  0.0000  0.2225  0.7775
  DIIS coefficients: -0.0000  0.0003 -0.0026 -0.0015  0.0152  0.0027  0.0012  0.0162  0.2306  0.7378
 SCF Error: norm([F,P])=      0.016448527881, max([F,P])=      0.005525892680
 orbitals (Q,E):
 ---------------
 A :18...28          ( 2.00    -0.7432)  ( 2.00    -0.5108)  ( 2.00    -0.2221)  ( 2.00    -0.1516)
                     ( 2.00    -0.1516)  ( 2.00    -0.0811)  ( 2.00    -0.0811)  ( 2.00    -0.0744)
                     ( 2.00    -0.0571)  ( 2.00    -0.0571)  ( 0.00     0.0034)

 CYCLE   15
  SDIIS (wt  0.999):  0.0000 -0.0008 -0.0002 -0.0021 -0.0004  0.0047  0.0024  0.0536  0.2018  0.7410
 A-DIIS (wt  0.001):  0.0000  0.0000  0.0000  0.0000  0.0000  0.0000  0.0000  0.0000  0.0000  1.0000
  DIIS coefficients:  0.0000 -0.0008 -0.0002 -0.0021 -0.0004  0.0046  0.0024  0.0535  0.2016  0.7413
 SCF Error: norm([F,P])=      0.002293505336, max([F,P])=      0.001134910734
 orbitals (Q,E):
 ---------------
 A :18...28          ( 2.00    -0.7433)  ( 2.00    -0.5107)  ( 2.00    -0.2221)  ( 2.00    -0.1516)
                     ( 2.00    -0.1516)  ( 2.00    -0.0811)  ( 2.00    -0.0811)  ( 2.00    -0.0745)
                     ( 2.00    -0.0572)  ( 2.00    -0.0572)  ( 0.00     0.0034)

 CYCLE   16
  SDIIS (wt  1.000): -0.0000  0.0000 -0.0016 -0.0001  0.0006 -0.0005 -0.0020  0.0054  0.0403  0.9578
  DIIS coefficients: -0.0000  0.0000 -0.0016 -0.0001  0.0006 -0.0005 -0.0020  0.0054  0.0403  0.9578
 SCF Error: norm([F,P])=      0.000341448312, max([F,P])=      0.000158476875
 orbitals (Q,E):
 ---------------
 A :18...28          ( 2.00    -0.7433)  ( 2.00    -0.5107)  ( 2.00    -0.2221)  ( 2.00    -0.1516)
                     ( 2.00    -0.1516)  ( 2.00    -0.0811)  ( 2.00    -0.0811)  ( 2.00    -0.0745)
                     ( 2.00    -0.0572)  ( 2.00    -0.0572)  ( 0.00     0.0034)

 CYCLE   17
  SDIIS (wt  1.000): -0.0000 -0.0003 -0.0000  0.0002 -0.0001  0.0014  0.0062 -0.0155  0.4714  0.5367
  DIIS coefficients: -0.0000 -0.0003 -0.0000  0.0002 -0.0001  0.0014  0.0062 -0.0155  0.4714  0.5367
 SCF Error: norm([F,P])=      0.000040831993, max([F,P])=      0.000017327671
 orbitals (Q,E):
 ---------------
 A :18...28          ( 2.00    -0.7433)  ( 2.00    -0.5107)  ( 2.00    -0.2221)  ( 2.00    -0.1516)
                     ( 2.00    -0.1516)  ( 2.00    -0.0811)  ( 2.00    -0.0811)  ( 2.00    -0.0745)
                     ( 2.00    -0.0572)  ( 2.00    -0.0572)  ( 0.00     0.0034)

 CYCLE   18
  SDIIS (wt  1.000): -0.0001  0.0000  0.0000 -0.0000  0.0006  0.0015 -0.0105  0.1624  0.2017  0.6445
  DIIS coefficients: -0.0001  0.0000  0.0000 -0.0000  0.0006  0.0015 -0.0105  0.1624  0.2017  0.6445
 SCF Error: norm([F,P])=      0.000006627536, max([F,P])=      0.000002345806
 orbitals (Q,E):
 ---------------
 A :18...28          ( 2.00    -0.7433)  ( 2.00    -0.5107)  ( 2.00    -0.2221)  ( 2.00    -0.1516)
                     ( 2.00    -0.1516)  ( 2.00    -0.0811)  ( 2.00    -0.0811)  ( 2.00    -0.0745)
                     ( 2.00    -0.0572)  ( 2.00    -0.0572)  ( 0.00     0.0034)

 CYCLE   19
  SDIIS (wt  1.000):  0.0000 -0.0000 -0.0000  0.0001  0.0000 -0.0031  0.0205  0.0356  0.2546  0.6922
  DIIS coefficients:  0.0000 -0.0000 -0.0000  0.0001  0.0000 -0.0031  0.0205  0.0356  0.2546  0.6922
 SCF Error: norm([F,P])=      0.000004151179, max([F,P])=      0.000001695273
 orbitals (Q,E):
 ---------------
 A :18...28          ( 2.00    -0.7433)  ( 2.00    -0.5107)  ( 2.00    -0.2221)  ( 2.00    -0.1516)
                     ( 2.00    -0.1516)  ( 2.00    -0.0811)  ( 2.00    -0.0811)  ( 2.00    -0.0745)
                     ( 2.00    -0.0572)  ( 2.00    -0.0572)  ( 0.00     0.0034)

 CYCLE   20
  SDIIS (wt  1.000):  0.0000 -0.0000 -0.0000 -0.0000 -0.0010  0.0039  0.0097  0.0476  0.1478  0.7921
  DIIS coefficients:  0.0000 -0.0000 -0.0000 -0.0000 -0.0010  0.0039  0.0097  0.0476  0.1478  0.7921
 SCF Error: norm([F,P])=      0.000001032075, max([F,P])=      0.000000522833
 orbitals (Q,E):
 ---------------
 A :18...28          ( 2.00    -0.7433)  ( 2.00    -0.5107)  ( 2.00    -0.2221)  ( 2.00    -0.1516)
                     ( 2.00    -0.1516)  ( 2.00    -0.0811)  ( 2.00    -0.0811)  ( 2.00    -0.0745)
                     ( 2.00    -0.0572)  ( 2.00    -0.0572)  ( 0.00     0.0034)

 SCF CONVERGED

 CYCLE   21
1
 ***************************************************************************************************



                                                *******************
                                                *  R E S U L T S  *
                                                *******************
  
 *** Setting up for NEW gradients in Focky
 *** Using FIT density in Focky

 Orbital Energies, per Irrep and Spin:
 ======================================
                        Occup              E (au)              E (eV)       Diff (eV) with prev. cycle
                        -----      --------------------        ------       --------------------------
 A
              18        2.000     -0.74328850165692E+00       -20.226              -1.44E-07
              19        2.000     -0.51072174131788E+00       -13.897              -4.85E-09
              20        2.000     -0.22210697042597E+00        -6.044              -9.35E-08
              21        2.000     -0.15159858785287E+00        -4.125              -1.00E-07
              22        2.000     -0.15159720227402E+00        -4.125              -1.00E-07
              23        2.000     -0.81108005762012E-01        -2.207              -2.40E-08
              24        2.000     -0.81104958631399E-01        -2.207              -2.41E-08
              25        2.000     -0.74477015236988E-01        -2.027              -8.97E-08
              26        2.000     -0.57240397815043E-01        -1.558              -1.27E-07
              27        2.000     -0.57239927358174E-01        -1.558              -1.27E-07
              28        0.000      0.33838016534094E-02         0.092
              29        0.000      0.21482067303736E+00         5.846
              30        0.000      0.25188874977854E+00         6.854
              31        0.000      0.30028858694187E+00         8.171
              32        0.000      0.30029447938045E+00         8.171
              33        0.000      0.32048013483078E+00         8.721
              34        0.000      0.44825383825008E+00        12.198
              35        0.000      0.44826038470191E+00        12.198
              36        0.000      0.44834530474796E+00        12.200
              37        0.000      0.44834761669034E+00        12.200
  
 HOMO :       27 A                -0.57239927358174E-01
 LUMO :       28 A                 0.33838016534094E-02
  


 All Electron Calculation, thus no Orbital Energies of the Core Orbitals are calculated


 Fit test: (difference of exact and fit density, squared integrated, result summed over spins)
         Sum-of-Fragments:                             0.00078650539691
         Orthogonalized Fragments:                     0.00080268659792
         SCF:                                          0.00079706065875



 ==========================
 Electron Density at Nuclei
 ==========================
  
 The electron density is calculated at points on a small sphere around the center of a nucleus.
 The printed electron density is the average electron density on these points.
 The radius of the sphere is the printed approximate finite nuclear radius.

         Atom        Nuclear Radius (Angstrom)             Electron Density (a.u.)
         ----        -------------------------             -----------------------
     1)   F                 0.0000361580                              448.32732
     2)   F                 0.0000361580                              447.58809
     3)   Br                0.0000536685                            29313.76218



 =======================================
 M U L L I K E N   P O P U L A T I O N S
 =======================================
  
 The survey below gives for each atom:
 a) the total charge (Z minus electrons)
 b) the net spin polarization (nr of electrons spin-A minus spin-B)
 c) for each spin the atomic electron valence density (integrated) per L-value.

 Atom              Charge    Spin density          S         P         D         F
 ----              ------    ------------       ------    ------    ------    ------
 1 F              -0.2154                       3.9667    5.2230    0.0240    0.0016
 2 F              -0.4991                       3.9953    5.4972    0.0059    0.0006
 3 Br             -0.2855                       7.9885   17.2213   10.0592    0.0165

 Populations of individual BAS functions
 ----------------------------------------
 1 F            0.5755  1.4002  1.1301  0.8779 -0.0171  0.3789  0.2946  0.4197  0.9646  0.8203
                1.0344  0.4577  0.3365  0.5163 -0.0007  0.0096  0.0011  0.0178  0.0034 -0.0071
               -0.0011 -0.0016  0.0003  0.0039  0.0002 -0.0021  0.0056  0.0041 -0.0034 -0.0042
 2 F            0.5757  1.4010  1.0962  0.9129  0.0096  0.3880  0.3343  0.4145  0.9134  0.8200
                0.9593  0.5727  0.4738  0.6212 -0.0004  0.0023  0.0003  0.0058  0.0009 -0.0029
               -0.0005 -0.0009  0.0002  0.0018  0.0001 -0.0011  0.0028  0.0021 -0.0017 -0.0022
 3 Br           0.3611  1.5681  2.0732  0.7131  0.7127  0.7133  1.2649  1.2657  1.2645  1.4372
                0.5960  1.1371  1.1286  1.1412  0.8913  0.8986  0.8878  0.2677  0.4015  0.4017
                0.2676  0.4015  0.2678  0.7771  1.1649  1.1658  0.7756  1.1652  0.7778  0.2880
                0.4341  0.4325  0.2927  0.4334  0.2859  0.2708  1.2291  0.4529  0.5858  0.4702
                0.6412  0.9388  0.7446  1.0318  0.2778  0.1949  0.3176  0.0052  0.0171  0.0045
                0.0200  0.0133 -0.0021 -0.0028  0.0010  0.0005  0.0112  0.0024 -0.0036  0.0124
                0.0084 -0.0068 -0.0062

 Gross Charges per Atom (Z minus electrons)
 ==========================================
            -0.2154   -0.4991   -0.2855
 Net Total: -1.00000000


 Atom-Atom Population Matrix (off-diagonal elements not doubled)
 ===============================================================

     1 :     9.2199
     2 :    -0.0022    9.4800
     3 :    -0.0024    0.0214   35.2665


 Frag-Frag Population Matrix (off-diagonal elements not doubled)
 ===============================================================

     1 :    18.6955
     2 :     0.0190   35.2665



 =================================================
 H I R S H F E L D   C H A R G E   A N A L Y S I S
 =================================================
  
 For each fragment: the (numerical) integral of rho(scf) * rho(fragment)/rho(sum-of-fragments)
 (nuclear charges are included, electrons are counted negative)

 The fragments and their ordering are defined in the early G E O M E T R Y output section.
 If you use single-atom fragments, this usually implies that all atoms of the same
 chemical type are grouped together. This may not be the order in which you listed them
 in the input file!

    1  FF                       -0.5653
    2  Br                       -0.4347

 Sum of these charges (accuracy NumInt/Tails) =          -1.00000056



 =============================
 V O R O N O I   C H A R G E S
 =============================
  
 For each atom: the (numerical) integral of the total electronic charge density in its Voronoi cell,
 i.e. the region of space that is closer to that atom than to any other atom.
 (cf. Wigner-Seitz cells in crystals)

 Within the Voronoi cell the subintegrals over the atomic sphere and the remaining part are evaluated
 separately to give the numbers of electrons (negative charge) in these regions.
 The net total charge in the cell (including the nuclear charge) is also given.

 Values are provided for
    a) the Initial (sum-of-fragments) density
    b) the Orthogonalized-Fragments density
    c) the SCF density
    d) the Voronoi Deformation Density (VDD): the difference SCF-Initial for the complete atomic cell
 ---------------------------------------------------------------------------------------------------
 Total NetCharge:              -1.000                     -1.000                     -1.000   -0.000
 (accuracy NumInt/Tails)

 Remark: the 'NetTotal' Voronoi charges often do not match the Mulliken and/or Hirshfeld charges very
 well. This is caused by the fact that chemically different atoms are not treated in accordance with
 their relative sizes. (Voronoi cells are defined by boundary planes halfway between the atoms.)
 However, the CHANGES in charge, comparing 'Initial' to 'SCF' for instance, do give a fair indication
 of the flow of charge caused by the relaxation from sum-of-fragments to self-consistency.

 Warning: the absolute accuracy of the VDD charges obtained using the Fuzzy Cells (Becke) integration
 scheme is much poorer than the one obtained with an 'equivalent' Voronoi integration grid. 



 =================================================================
 M U L T I P O L E   D E R I V E D   C H A R G E   A N A L Y S I S
 =================================================================

 This charge analysis uses the atomic multipoles (obtained from the fitted density) up to some level X,
 and reconstructs these multipoles exactly (up to level X) by distributing charges over all atoms.
 This is achieved by using Lagrange multipliers and a weight function to keep the multipoles local.

 Dummy atoms can be included (by setting INCDUM in MDC-block to 1) to obtain a fractional charge.
 This is generally useful and necessary only for small symmetrical molecules, when there are not
 enough degrees of freedom to reconstruct the multipoles.

 Since the atomic multipoles are reconstructed up to level X,
 the molecular multipoles are represented also up to level X.
 The recommended level is to reconstruct up to quadrupole : -> MDC-q charges.

 See: M. Swart, P.Th. van Duijnen, J.G. Snijders, J.Comput.Chem., (2001), p. 79-88.

 ------------------------------------------------------------- 
 Atomic electronic multipole moments from SCF equations (a.u.)
 ------------------------------------------------------------- 

   atom        charge        dip-x     dip-y     dip-z      quad-xx   quad-xy   quad-xz   quad-yy   quad-yz   quad-zz
 --------------------------------------------------------------------------------------------------------------------
    1 F     -0.595133     0.300797 -0.524365  0.039200    -0.010985 -0.038120  0.002873  0.054554 -0.004952 -0.043569
    2 F     -0.482369    -0.059057  0.102543 -0.007676    -0.059668 -0.203096  0.015254  0.292226 -0.026412 -0.232558
    3 Br     0.077503     0.563352 -0.983144  0.073583    -0.374958 -1.226634  0.091714  1.785325 -0.160175 -1.410367

 --------------------------------------- 
 Multipole derived atomic charges (a.u.)
 --------------------------------------- 

 The MDC-m charges are just the Monopole terms in the multipole expansion, while for the MDC-d charges
 also the Dipoles are reconstructed. The usually preferred charges are the MDC-q charges.
 These reconstruct the Monopoles, Dipoles and Quadrupoles (both atomic AND molecular).

        Atom    Level:     MDC-m        MDC-d        MDC-q
 ---------------------------------------------------------
     1     F           -0.595133    -0.247418    -0.054692
     2     F           -0.482369    -0.448271    -0.544084
     3     Br           0.077503    -0.304311    -0.401224

 ------------------------------------------------ 
 Average absolute deviations in atomic multipoles
 ------------------------------------------------ 

 Stated here are the average differences between the atomic multipoles
 and the reconstructed atomic multipoles (from the distributed charges).
 If these values are not zero, this means there are not enough degrees of freedom,
 to be able to reconstruct the atomic multipoles. (This usually happens only
 for small and/or highly symmetric molecules). If this is the case, one could add
 dummy atoms as extra point charges (and setting INCDUM in MDC-block to 1).

 Level:                                 MDC-d        MDC-q
 ---------------------------------------------------------
 Charge   (a.u.)                       0.0000       0.0000
 Dipole   (Debye)                      0.0000       0.0129
 Quad.    (a.u.)                       0.5186       0.1404

 --------------------------------------- 
 Represented molecular multipole moments
 --------------------------------------- 

 Given here are the Molecular multipole moments from the atomic charges, and from the Fit Density.
 Note that the atomic charges represent the latter, NOT the ones from the Exact density.

            Q (a.u.)             Dipole moment (Debye)                                          Quadrupole moment (a.u.)
                                 x         y         z              xx        xy        xz        yy        yz        zz
------------------------------------------------------------------------------------------------------------------------
MDC-m        -1.0000       20.9359  -10.1464   -0.1352        -59.7611   49.9446    0.6101   17.4006   -0.2376   42.3605
MDC-d        -1.0000       22.9822  -13.7175    0.1318        -65.8430   79.9367   -1.2084    5.2484    1.2986   60.5947
MDC-q        -1.0000       23.0194  -13.7877    0.1368        -65.5969   82.2308   -1.3709    3.3429    1.5514   62.2540
 
Fit.Dens.    -1.0000       22.9822  -13.7175    0.1319        -65.7246   81.2734   -1.3094    4.6697    1.4735   61.0549



 =============
 Dipole Moment  ***  (Debye)  ***
 =============
  
 Vector   :        22.99085447    -13.73254600      0.13313401
 Magnitude:        26.78021534

 This molecular dipole moment is calculated with analytic integration
 ************************************************************************************
 Since the molecule is NOT NEUTRAL, the dipole moment depends on the choice of origin
 ************************************************************************************



 =========================================
 Quadrupole Moment (Buckingham convention)  ***  (a.u.)  ***
 =========================================
  
      quad-xx        quad-xy        quad-xz        quad-yy        quad-yz        quad-zz
    -65.75187342    80.65746746    -1.26194696     4.62661969     1.38346856    61.12525372

 This molecular quadrupole moment is calculated with analytic integration
1



                                             *************************
                                             *  SFO MO coefficients  *
                                             *************************
  


                                       === A ===
 MOs expanded in CFs+SFOs
 ========================

 The SFOs have been characterized in an earlier part of output.
 To deduce the bonding / antibonding nature of SFO combinations in an MO, consider the products
 of the coefficients AND THE OVERLAP between the SFOs (may be NEGATIVE). The SFO overlap matrix
 is printed later, in the SFO Populations section.

 (The CF coefficients are not printed)

 MOs :      1        2        3        4        5        6        7        8        9       10
 occup:   2.00     2.00     2.00     2.00     2.00     2.00     2.00     2.00     2.00     2.00
 CF+SFO
     1  -0.0000  -0.0000  -0.0000  -0.0000   0.0000   0.7134   0.7008  -0.0004  -0.0001   0.0000
     2   0.0000   0.0000   0.0000   0.0000  -0.0000  -0.7008   0.7134   0.0005   0.0001  -0.0000
     3  -0.0000   0.0000  -0.0000  -0.0000   0.0000  -0.0001   0.0001  -0.0038  -0.0005   0.0000
     4   0.0000  -0.0000   0.0000   0.0000  -0.0000   0.0001  -0.0000   0.0035   0.0005  -0.0000
     5   0.0000  -0.0000   0.0000   0.0000  -0.0000  -0.0001  -0.0000   0.0019   0.0005  -0.0000
     6   0.0000  -0.0000   0.0000  -0.0000  -0.0000   0.0000  -0.0000   0.0000   0.0000  -0.0000
     7   0.0000  -0.0000   0.0000  -0.0000   0.0000   0.0000  -0.0000   0.0000   0.0000  -0.0000
     8  -0.0000   0.0000  -0.0000   0.0000   0.0000  -0.0000   0.0000  -0.0000  -0.0000  -0.0000
     9   0.0000  -0.0000   0.0000  -0.0000   0.0000   0.0000  -0.0000   0.0000   0.0000  -0.0001
    10  -0.0000   0.0000  -0.0000  -0.0000   0.0000   0.0001   0.0001  -0.0021  -0.0005   0.0000
    11  -0.0000  -0.0000  -0.0000  -0.0000   0.0000  -0.0001   0.0001  -0.0057  -0.0003   0.0000
    12  -0.0000  -0.0000  -0.0000  -0.0000   0.0000  -0.0001   0.0001  -0.0059  -0.0005   0.0000
    13   0.0000  -0.0000   0.0000   0.0000  -0.0000   0.0000  -0.0000   0.0000   0.0000  -0.0000
    14   0.0000  -0.0000   0.0000  -0.0000  -0.0000   0.0000  -0.0000   0.0000   0.0000  -0.0000
    15  -0.0000   0.0000  -0.0000  -0.0000   0.0000  -0.0002   0.0001  -0.0020  -0.0005   0.0000
    16  -0.0000   0.0000  -0.0000  -0.0000   0.0000  -0.0000   0.0000  -0.0000  -0.0000   0.0000
    17   0.0000  -0.0000   0.0000  -0.0000  -0.0000   0.0000  -0.0000   0.0000   0.0000  -0.0001
    18   0.0000  -0.0000   0.0000   0.0000  -0.0000   0.0002  -0.0001   0.0011   0.0005   0.0000
    19   0.0000  -0.0000   0.0000   0.0000  -0.0000   0.0000  -0.0000   0.0000   0.0000  -0.0000
    20  -0.0000   0.0000  -0.0000   0.0000   0.0000  -0.0000   0.0000  -0.0000  -0.0000   0.0001
    21   0.0000  -0.0000  -0.0000   0.0000   0.0000   0.0000   0.0000   0.0000  -0.0000   0.0000
    22  -0.0000   0.0000  -0.0000  -0.0000   0.0000  -0.0000   0.0000  -0.0000  -0.0000   0.0000
    23   0.0000  -0.0000   0.0000   0.0000  -0.0000  -0.0000  -0.0000   0.0003   0.0002   0.0000
    24   0.0000   0.0000   0.0000  -0.0000  -0.0000  -0.0000   0.0000  -0.0000   0.0000  -0.0000
    25   0.0000   0.0000   0.0000  -0.0000   0.0000  -0.0000  -0.0000  -0.0000   0.0000   0.0000
    26  -0.0000   0.0000  -0.0000  -0.0000   0.0000   0.0000   0.0001  -0.0008  -0.0002   0.0000
    27  -0.0000  -0.0000   0.0000   0.0000  -0.0000   0.0000  -0.0000  -0.0000   0.0000  -0.0000
    28  -0.0000  -0.0000   0.0000  -0.0000  -0.0000   0.0000  -0.0000  -0.0000   0.0000  -0.0001
    29   0.0000  -0.0000   0.0000   0.0000  -0.0000  -0.0000   0.0000   0.0012   0.0003  -0.0000
    30   0.0000   0.0000  -0.0000  -0.0000  -0.0000   0.0001   0.0001  -0.0001  -0.0001  -0.0000
    31  -0.0000  -0.0000   0.0000   0.0000   0.0000   0.0000  -0.0000  -0.0000  -0.0000   0.0000
    32  -0.0000  -0.0000   0.0000   0.0000  -0.0000   0.0000  -0.0000  -0.0000  -0.0000  -0.0000
    33  -0.0000  -0.0000   0.0000  -0.0000   0.0000   0.0001  -0.0000  -0.0003   0.0000   0.0000
    34   0.0000   0.0000  -0.0000   0.0000   0.0000  -0.0000   0.0000   0.0000  -0.0000   0.0000
    35  -0.0000  -0.0000   0.0000   0.0000  -0.0000   0.0000  -0.0000  -0.0000  -0.0000  -0.0000
    36   0.0000   0.0000   0.0000   0.0000   0.0000  -0.0000  -0.0000   0.0000  -0.0000  -0.0000
    37   0.0000  -0.0000  -0.0000   0.0000  -0.0000   0.0000   0.0000   0.0000   0.0000   0.0000
    38  -0.0000  -0.0000  -0.0000  -0.0000  -0.0000   0.0000  -0.0000  -0.0000   0.0000   0.0000
    39   0.0000   0.0000  -0.0000  -0.0000   0.0000  -0.0000   0.0000   0.0000  -0.0000  -0.0000
    40  -0.0000  -0.0000  -0.0000   0.0000   0.0000   0.0000   0.0000   0.0000  -0.0000   0.0000
    41  -0.0000  -0.0000  -0.0000   0.0000  -0.0000   0.0000   0.0000  -0.0000  -0.0000  -0.0000
    42   0.0000   0.0000  -0.0000  -0.0000   0.0000  -0.0000   0.0000   0.0000   0.0000   0.0000
    43  -0.0000  -0.0000   0.0000  -0.0000  -0.0000   0.0000  -0.0000  -0.0000  -0.0000  -0.0000
    44   0.0000   0.0000  -0.0000   0.0000  -0.0000  -0.0000  -0.0000   0.0003   0.0000  -0.0000
    45   0.0000   0.0000  -0.0000  -0.0000  -0.0000   0.0000  -0.0000   0.0000  -0.0000   0.0000
    46  -0.0000  -0.0000   0.0000  -0.0000   0.0000  -0.0000   0.0000  -0.0000   0.0000  -0.0000
    47  -0.0000  -0.0000   0.0000   0.0000   0.0000  -0.0000  -0.0000  -0.0000   0.0000  -0.0000
    48  -0.0000  -0.0000  -0.0000  -0.0000   0.0000  -0.0000  -0.0000  -0.0000   0.0000  -0.0000
    49  -0.0000  -0.0000  -0.0000   0.0000  -0.0000   0.0002  -0.0001  -0.0002   0.0000   0.0000
    50   0.0000   0.0000   0.0000   0.0000  -0.0000  -0.0002  -0.0001  -0.0000  -0.0000   0.0000
    51  -0.0000   0.0000  -0.0000  -0.0000   0.0000  -0.0001   0.0001  -0.0000  -0.0000   0.0000
    52  -0.0000  -0.0000   0.0000   0.0000  -0.0000   0.0001   0.0001   0.0000   0.0000  -0.0000
    53   1.0000   0.0000  -0.0000   0.0000   0.0000  -0.0000   0.0000  -0.0000  -0.0000   0.0000
    54  -0.0000   1.0000  -0.0005   0.0000   0.0000  -0.0000   0.0000  -0.0002  -0.0000   0.0000
    55  -0.0000  -0.0000  -0.0728  -0.4065  -0.9107   0.0000  -0.0000   0.0000  -0.0000  -0.0000
    56  -0.0000  -0.0003  -0.6424   0.7176  -0.2690   0.0000  -0.0000   0.0000  -0.0000  -0.0000
    57   0.0000   0.0004   0.7629   0.5655  -0.3134  -0.0000   0.0000  -0.0000   0.0000  -0.0000
    58  -0.0000   0.0001  -0.0000  -0.0000   0.0000   0.0000  -0.0000  -0.9989  -0.0028   0.0000
    59  -0.0000   0.0000   0.0000  -0.0000   0.0000  -0.0000   0.0000   0.0022  -0.8816  -0.1869
    60   0.0000  -0.0000  -0.0000  -0.0000   0.0000   0.0000  -0.0000  -0.0012   0.4659  -0.4936
    61  -0.0000   0.0000   0.0000   0.0000   0.0000  -0.0000   0.0000   0.0002  -0.0768  -0.8493
    62   0.0000  -0.0000  -0.0000   0.0000   0.0000   0.0000  -0.0000  -0.0007   0.0006  -0.0007
    63  -0.0000   0.0000   0.0000  -0.0000   0.0000  -0.0000   0.0000   0.0009  -0.0008  -0.0007
    64  -0.0000   0.0000   0.0000   0.0000   0.0000  -0.0000   0.0000   0.0001  -0.0001  -0.0005
    65   0.0000  -0.0000  -0.0000  -0.0000   0.0000   0.0000  -0.0000  -0.0009   0.0007  -0.0004
    66   0.0000  -0.0000  -0.0000  -0.0000  -0.0000   0.0000  -0.0000  -0.0004   0.0004   0.0003
    67   0.0000  -0.0000   0.0000   0.0000  -0.0000   0.0001  -0.0001   0.0056   0.0007  -0.0000
    68  -0.0000   0.0000  -0.0000  -0.0000   0.0000  -0.0001   0.0001  -0.0049  -0.0006   0.0000
    69  -0.0000   0.0000  -0.0000   0.0000   0.0000  -0.0000   0.0000  -0.0000  -0.0000   0.0004
    70  -0.0000   0.0000  -0.0000   0.0000  -0.0000  -0.0000   0.0000  -0.0001  -0.0000  -0.0001
    71  -0.0000  -0.0000  -0.0000  -0.0000   0.0000  -0.0000   0.0000  -0.0007  -0.0001   0.0001
    72   0.0000   0.0000   0.0000  -0.0000   0.0000   0.0000  -0.0000   0.0036   0.0003   0.0000
    73  -0.0000  -0.0000  -0.0000  -0.0000  -0.0000  -0.0000   0.0000  -0.0001  -0.0000  -0.0002
    74  -0.0000  -0.0000  -0.0000  -0.0000  -0.0000  -0.0001   0.0001  -0.0048  -0.0005   0.0000
    75   0.0000  -0.0000   0.0000   0.0000  -0.0000   0.0001  -0.0000   0.0013   0.0003  -0.0000
    76   0.0000  -0.0000   0.0000   0.0000  -0.0000   0.0000  -0.0000   0.0005   0.0001  -0.0000
    77   0.0000  -0.0000   0.0000  -0.0000   0.0000   0.0001  -0.0000   0.0013   0.0003   0.0000
    78   0.0000  -0.0000   0.0000   0.0000   0.0000   0.0001  -0.0000   0.0012   0.0003   0.0000
    79   0.0000  -0.0000   0.0000  -0.0000  -0.0000   0.0000  -0.0000   0.0002   0.0000  -0.0000
    80   0.0000  -0.0000   0.0000  -0.0000  -0.0000   0.0000  -0.0000   0.0001   0.0001   0.0000
    81   0.0000  -0.0000   0.0000   0.0000  -0.0000   0.0000  -0.0000   0.0000   0.0000   0.0001
    82  -0.0000   0.0000  -0.0000  -0.0000   0.0000  -0.0000   0.0000  -0.0000  -0.0000  -0.0001
    83  -0.0000   0.0000  -0.0000   0.0000   0.0000  -0.0000   0.0000  -0.0000  -0.0000  -0.0000
    84  -0.0000   0.0000  -0.0000  -0.0000  -0.0000  -0.0001   0.0000  -0.0007  -0.0005   0.0000
    85   0.0000  -0.0000   0.0000  -0.0000  -0.0000   0.0000  -0.0000   0.0001   0.0001   0.0002
    86   0.0000  -0.0000   0.0000   0.0000   0.0000   0.0000  -0.0000   0.0001   0.0001   0.0000
    87   0.0000  -0.0000   0.0000  -0.0000   0.0000   0.0000  -0.0000   0.0004   0.0003  -0.0003
    88  -0.0000   0.0000  -0.0000  -0.0000   0.0000  -0.0001   0.0000  -0.0008  -0.0005  -0.0001
    89  -0.0000   0.0000  -0.0000   0.0000   0.0000  -0.0000   0.0000  -0.0001  -0.0001  -0.0005
    90   0.0000  -0.0000  -0.0000  -0.0000  -0.0000  -0.0000   0.0000   0.0011   0.0000  -0.0000
    91  -0.0000   0.0000   0.0000   0.0000   0.0000  -0.0000   0.0000  -0.0006  -0.0001   0.0000
    92   0.0000  -0.0000  -0.0000   0.0000  -0.0000   0.0000  -0.0000   0.0000   0.0000  -0.0000
    93  -0.0000   0.0000   0.0000  -0.0000  -0.0000  -0.0000   0.0000  -0.0006  -0.0001   0.0000
    94  -0.0000   0.0000   0.0000  -0.0000  -0.0000  -0.0000   0.0000  -0.0001  -0.0000  -0.0000
    95   0.0000  -0.0000  -0.0000  -0.0000   0.0000   0.0000  -0.0000   0.0002   0.0000   0.0000
    96   0.0000  -0.0000   0.0000  -0.0000   0.0000  -0.0000   0.0000   0.0000  -0.0003  -0.0000
    97  -0.0000   0.0000  -0.0000  -0.0000  -0.0000   0.0000  -0.0000  -0.0000   0.0001  -0.0000
    98   0.0000  -0.0000   0.0000  -0.0000  -0.0000  -0.0000   0.0000   0.0000  -0.0001   0.0000
    99  -0.0000   0.0001  -0.0000   0.0000   0.0000  -0.0000  -0.0000   0.0003  -0.0000  -0.0000
   100   0.0000   0.0000   0.0000   0.0000   0.0000   0.0000  -0.0000  -0.0000   0.0000   0.0000
   101  -0.0000  -0.0000  -0.0000   0.0000  -0.0000  -0.0000   0.0000   0.0000  -0.0001  -0.0000
   102   0.0000   0.0000   0.0000  -0.0000   0.0000   0.0000  -0.0000  -0.0000   0.0000   0.0000
   103  -0.0000  -0.0000  -0.0000   0.0000   0.0000  -0.0000   0.0000   0.0000  -0.0000   0.0001
   104  -0.0000  -0.0000  -0.0000  -0.0000   0.0000  -0.0000   0.0000   0.0000  -0.0001   0.0000
   105   0.0000  -0.0000  -0.0000  -0.0000   0.0000   0.0000  -0.0000   0.0000  -0.0001   0.0001
   106   0.0000  -0.0000  -0.0000  -0.0000  -0.0001   0.0000  -0.0000   0.0000  -0.0000  -0.0001
   107   0.0000  -0.0000  -0.0001   0.0000  -0.0000   0.0000  -0.0000   0.0000  -0.0001  -0.0000
   108   0.0001  -0.0000   0.0000  -0.0000  -0.0000   0.0000  -0.0000   0.0000   0.0000  -0.0000

 MOs :     11       12       13       14       15       16       17       18       19       20
 occup:   2.00     2.00     2.00     2.00     2.00     2.00     2.00     2.00     2.00     2.00
 CF+SFO
     1  -0.0000   0.0000   0.0000   0.0000   0.0000   0.0000   0.0009   0.0003   0.0037  -0.0056
     2   0.0000  -0.0000  -0.0000  -0.0000  -0.0000  -0.0000  -0.0009  -0.0004  -0.0037   0.0059
     3  -0.0000  -0.0014  -0.0000   0.0000   0.0000   0.0000  -0.8279   0.5430   0.1120  -0.1011
     4   0.0000   0.0014   0.0000  -0.0000  -0.0000  -0.0000   0.5189   0.8359  -0.1485   0.1130
     5   0.0000   0.0012   0.0000  -0.0000   0.0000  -0.0000   0.0470   0.0118   0.0849  -0.7571
     6   0.0000   0.0000   0.0002   0.0001  -0.0000   0.0000   0.0000   0.0000   0.0002  -0.0011
     7  -0.0000   0.0000   0.0001  -0.0002   0.0000   0.0000   0.0000   0.0000   0.0001  -0.0005
     8  -0.0001  -0.0000  -0.0002  -0.0001   0.0000  -0.0000  -0.0000  -0.0000  -0.0002   0.0008
     9   0.0000   0.0000   0.0001  -0.0002   0.0000   0.0000   0.0000   0.0000   0.0001  -0.0006
    10  -0.0000  -0.0011  -0.0000   0.0000  -0.0000   0.0000  -0.0306  -0.0240  -0.0580   0.2963
    11  -0.0000  -0.0006   0.0000   0.0000   0.0000   0.0000  -0.0076   0.0115   0.0087  -0.0248
    12  -0.0000  -0.0005   0.0000   0.0000   0.0000   0.0000  -0.0012  -0.0109   0.0113  -0.0328
    13   0.0000   0.0000   0.0001   0.0000  -0.0000   0.0000  -0.0000  -0.0000  -0.0000   0.0000
    14  -0.0000   0.0000   0.0000  -0.0001   0.0000   0.0000  -0.0000  -0.0000  -0.0000   0.0000
    15  -0.0000  -0.0004   0.0000   0.0000   0.0000   0.0000   0.0011  -0.0037   0.0015   0.0127
    16  -0.0001  -0.0000  -0.0002  -0.0000   0.0000  -0.0000  -0.0000  -0.0000   0.0000  -0.0000
    17  -0.0000   0.0000   0.0000  -0.0002   0.0000   0.0000  -0.0000   0.0000  -0.0000   0.0000
    18  -0.0000   0.0005  -0.0000  -0.0000   0.0000  -0.0000   0.0030   0.0024  -0.0011   0.0033
    19   0.0001   0.0000   0.0002   0.0000  -0.0000   0.0000   0.0000   0.0000   0.0000  -0.0000
    20   0.0000  -0.0000  -0.0000   0.0002   0.0000  -0.0000  -0.0000  -0.0000  -0.0000   0.0000
    21   0.0000   0.0000   0.0000   0.0000  -0.0000  -0.0000  -0.0000   0.0000  -0.0000  -0.0000
    22  -0.0000  -0.0000  -0.0000   0.0000   0.0000  -0.0000  -0.0000  -0.0000  -0.0000   0.0000
    23  -0.0000   0.0004  -0.0000  -0.0000   0.0000  -0.0000   0.0026   0.0007   0.0049  -0.0090
    24  -0.0000  -0.0000  -0.0000  -0.0000   0.0000  -0.0000   0.0000   0.0000   0.0000  -0.0000
    25  -0.0000   0.0000  -0.0000   0.0000  -0.0000  -0.0000  -0.0000   0.0000  -0.0000   0.0000
    26  -0.0000   0.0000  -0.0000   0.0000   0.0000   0.0000  -0.0004  -0.0089   0.0078  -0.0146
    27   0.0001   0.0000   0.0002   0.0000  -0.0000   0.0000   0.0000   0.0000   0.0000  -0.0000
    28  -0.0000   0.0000   0.0000  -0.0002  -0.0000   0.0000   0.0000   0.0000   0.0000  -0.0000
    29   0.0000   0.0002   0.0000  -0.0000  -0.0000  -0.0000   0.0050  -0.0078  -0.0054   0.0089
    30   0.0000  -0.0002   0.0000  -0.0000  -0.0000   0.0000  -0.0019  -0.0027  -0.0007   0.0010
    31   0.0000   0.0000   0.0001   0.0000   0.0000   0.0000   0.0000   0.0000   0.0000  -0.0000
    32   0.0000   0.0000   0.0000  -0.0001  -0.0000   0.0000   0.0000   0.0000   0.0000  -0.0000
    33  -0.0000   0.0001  -0.0000   0.0000   0.0000  -0.0000   0.0021   0.0002   0.0007  -0.0003
    34   0.0000  -0.0000   0.0000   0.0000  -0.0000   0.0000  -0.0000  -0.0000  -0.0000   0.0000
    35   0.0000   0.0000   0.0000  -0.0000   0.0000   0.0000   0.0000   0.0000   0.0000  -0.0000
    36   0.0000   0.0000  -0.0000  -0.0000   0.0000  -0.0000   0.0000   0.0000  -0.0000   0.0000
    37  -0.0000   0.0000  -0.0000   0.0000   0.0000   0.0000  -0.0000  -0.0000   0.0000   0.0000
    38  -0.0000  -0.0000   0.0000   0.0000  -0.0000   0.0000  -0.0000   0.0000   0.0000  -0.0000
    39  -0.0000  -0.0000   0.0000  -0.0000  -0.0000  -0.0000   0.0000  -0.0000  -0.0000   0.0000
    40   0.0000   0.0000   0.0000   0.0000  -0.0000   0.0000   0.0000   0.0000  -0.0000  -0.0000
    41   0.0000  -0.0000   0.0000  -0.0000   0.0000   0.0000   0.0000   0.0000   0.0000  -0.0000
    42  -0.0000  -0.0000  -0.0001  -0.0000  -0.0000  -0.0000  -0.0000  -0.0000  -0.0000   0.0000
    43  -0.0000   0.0000   0.0000  -0.0001  -0.0000  -0.0000   0.0000   0.0000   0.0000  -0.0000
    44   0.0000  -0.0000   0.0000  -0.0000  -0.0000  -0.0000  -0.0006  -0.0002  -0.0004   0.0004
    45   0.0000  -0.0000  -0.0000   0.0000  -0.0000  -0.0000  -0.0000  -0.0000   0.0000   0.0000
    46   0.0000   0.0000   0.0000   0.0000  -0.0000   0.0000   0.0000   0.0000  -0.0000  -0.0000
    47  -0.0000   0.0000  -0.0000   0.0000  -0.0000  -0.0000   0.0000   0.0000  -0.0000  -0.0000
    48   0.0000   0.0000  -0.0000  -0.0000  -0.0000   0.0000   0.0000   0.0000   0.0000  -0.0000
    49  -0.0000   0.0001   0.0000  -0.0000   0.0000  -0.0000   0.0005   0.0003  -0.0000  -0.0017
    50  -0.0000  -0.0001  -0.0000   0.0000  -0.0000   0.0000  -0.0009  -0.0004   0.0001   0.0005
    51  -0.0000  -0.0000   0.0000   0.0000   0.0000   0.0000   0.0001  -0.0000   0.0002  -0.0004
    52   0.0000   0.0000  -0.0000  -0.0000  -0.0000  -0.0000  -0.0001  -0.0001  -0.0002   0.0003
    53  -0.0000  -0.0000   0.0000   0.0000   0.0000   0.0000  -0.0002  -0.0001   0.0000   0.0004
    54  -0.0000  -0.0001   0.0000   0.0000   0.0000   0.0000  -0.0011  -0.0005  -0.0001   0.0025
    55  -0.0000   0.0000   0.0000   0.0000  -0.0000   0.0000   0.0000   0.0000   0.0000  -0.0000
    56   0.0000   0.0000  -0.0000   0.0000  -0.0000  -0.0000   0.0002   0.0001   0.0000  -0.0003
[...]
  107    1.44829770494780E-16 -9.62767691049086E-17 -4.57442856317094E-16  2.91252633877272E-16
  108   -5.23940699853620E-17  2.73869468769838E-15  3.15611252410530E-16  5.00291539966280E-16

 column          93                    94                    95                    96
 row
   93    1.00000000000000E+00
   94    1.72940500242311E-15  1.00000000000000E+00
   95   -1.49106094911151E-16  1.31085412710034E-16  1.00000000000000E+00
   96    1.07260347902351E-15 -2.33502639632583E-16  3.93559912676583E-17  1.00000000000000E+00
   97   -1.84600027875275E-16 -6.84751964569574E-17  4.27974103626084E-16  1.01628861263932E-15
   98   -7.16718359341686E-16 -3.44371174389104E-16  5.74315684415876E-16  7.92923142551103E-17
   99   -9.32472048913098E-16 -1.16195059879504E-15  1.22841903440643E-15  9.90687291947972E-15
  100   -2.66241698851797E-16  9.47267028646182E-16  9.63841050538102E-16 -9.25763242741198E-16
  101    3.59195438590619E-17 -3.56640072537651E-16  7.29113553287313E-16 -3.52981231003924E-16
  102   -7.49780528543053E-17  2.37570742009260E-16 -7.28040799294506E-17  5.22249314024296E-17
  103   -2.08758664018318E-16  8.06229956016406E-16 -2.35739463084548E-16 -5.49665766888679E-16
  104   -8.46577203824008E-16  2.13911159646202E-16 -8.24248819764344E-16  1.14122884102169E-15
  105   -6.63737472540528E-16  2.04802139620878E-16 -5.04527871854396E-16  2.90278309310876E-16
  106   -2.57284466882468E-16 -6.04488689374632E-16 -5.39662273970598E-16  7.15522267549668E-17
  107    6.77038493776989E-16  2.02502237133159E-16  1.13810460300913E-16 -3.78193605084673E-15
  108    2.25839312528731E-16 -3.86111498676400E-17  1.86347248395946E-16  2.56711969390255E-16

 column          97                    98                    99                   100
 row
   97    1.00000000000000E+00
   98   -1.73783354180053E-15  1.00000000000000E+00
   99    1.12650292507949E-15 -2.58079189754965E-16  1.00000000000004E+00
  100   -1.10744521233468E-15 -2.65365921171461E-16  1.73368414008075E-16  1.00000000000000E+00
  101   -6.56312456171152E-16  4.39004644775624E-16  1.02329142444352E-14 -5.13680153012165E-17
  102    6.13159904001632E-16  6.75606543427420E-16 -4.74163617568139E-17  8.83685256503618E-16
  103   -1.66074334694498E-16 -1.99959479432376E-16  3.18475638251097E-16  4.77719796992258E-16
  104    1.07146705197587E-15 -8.75683126974211E-16 -3.58831479121095E-16 -4.60062897967797E-16
  105    5.58922511341839E-15 -1.68792694102230E-15  2.33153521437610E-16  3.40101214920751E-16
  106    1.32466161815287E-15  8.40021350029437E-16  4.63483643834006E-16  4.46281427794291E-16
  107   -6.38681011251897E-16  6.24561334946662E-16  3.23834122531022E-16 -6.06417938640516E-16
  108   -3.35065905143067E-16  6.56247246214742E-17  1.41716065965580E-14  1.20170258292862E-16

 column         101                   102                   103                   104
 row
  101    9.99999999999999E-01
  102   -5.43798527034160E-17  1.00000000000000E+00
  103    3.41862391839512E-16 -8.54295459753040E-16  1.00000000000000E+00
  104   -1.63232050137621E-16 -4.66219378273902E-16  3.71055470668162E-16  1.00000000000000E+00
  105   -1.89544572778704E-16  8.25974722599859E-16 -2.23020385846292E-16 -1.45963958364501E-16
  106    2.56487212837296E-16  1.14195510394515E-15  3.16674610251965E-16 -3.84854877115878E-16
  107   -2.83779870057999E-16 -4.52107351114586E-16 -2.85701304018059E-17 -4.28903836436620E-16
  108    4.41324494310225E-16  4.80003406813645E-16  1.81287073569049E-16  2.52971471895180E-16

 column         105                   106                   107                   108
 row
  105    1.00000000000000E+00
  106   -2.19722083180877E-15  1.00000000000001E+00
  107    2.35237042162482E-16  5.18522743975990E-16  1.00000000000000E+00
  108   -5.56229595802954E-16  1.31656872090578E-16 -4.88243343324535E-16  1.00000000000000E+00


 SFO contributions (%) per orbital
 (multiplication by the orbital occupation yields the SFO Gross Populations)

 Orb.:       18     19     20     21     22     23     24     25     26     27     28     29     30     31
 occup:     2.00   2.00   2.00   2.00   2.00   2.00   2.00   2.00   2.00   2.00   0.00   0.00   0.00   0.00
 CF+SFO     ----   ----   ----   ----   ----   ----   ----   ----   ----   ----   ----   ----   ----   ----
 ------
      3:   29.26   0.62   0.44  -0.00  -0.00   0.00   0.00   0.04   0.00   0.00   0.07  -0.32   0.17  -0.00
      4:   70.26   1.28   0.63  -0.00  -0.00   0.00   0.00   0.25   0.00   0.00  -0.07   0.03  -0.12  -0.00
      5:    0.02   1.54  60.97   0.00   0.00   0.00   0.00  35.42   0.00   0.00   0.18   0.00   0.02   0.00
      6:    0.00   0.00   0.00  10.54  46.26   5.75  16.84   0.00   4.15  15.82   0.00   0.00  -0.00  -0.00
      7:    0.00   0.00   0.00  46.26  10.54  16.84   5.76   0.00  15.82   4.15   0.00   0.00  -0.00  -0.02
      8:    0.00   0.00   0.00   1.43  24.60  -0.01  -0.06   0.00  29.09  44.17   0.00   0.00  -0.00  -0.00
      9:    0.00   0.00   0.00  24.60   1.43  -0.06  -0.01   0.00  44.17  29.09   0.00   0.00  -0.00  -0.05
     10:    0.07   0.94  10.27   0.00   0.00   0.00   0.00  29.30   0.00   0.00  57.55  -0.06   0.06   0.00
     11:    0.00  -0.20   0.01  -0.00  -0.00  -0.00  -0.00  -0.38  -0.00  -0.00  -0.80  89.52  20.20  -0.00
     12:    0.03  -0.38   0.13   0.00   0.00  -0.00  -0.00  -0.04   0.00   0.00  -1.13  17.53  55.36   0.00
     15:    0.01  -0.04   0.08   0.00   0.00  -0.00  -0.00  -0.36   0.00  -0.00   0.14  -1.07   0.01   0.00
     18:    0.00  -0.02  -0.04   0.00   0.00   0.00   0.00   0.27   0.00   0.00  -0.54  -1.28   0.02   0.00
     67:    0.22  96.03   1.85   0.00   0.00   0.00   0.00   0.07   0.00   0.00   1.02  -1.14  -0.16  -0.00
     68:    0.08   0.01  24.07   0.00   0.00   0.01   0.02  34.82   0.00   0.00  41.19  -3.31   0.24   0.00
     69:    0.00   0.00   0.00   9.58   6.71  38.85  38.05   0.00   6.04   0.31   0.00  -0.00   0.00   0.65
     70:    0.00   0.00   0.01   6.71   9.58  38.04  38.83   0.02   0.31   6.04   0.01  -0.00   0.00   0.03
     71:    0.00   0.00   0.04  -0.16  -0.08   0.49   0.16   0.01   0.00   0.05  -0.00   0.26   0.95  21.01
     72:    0.01   0.02   1.02  -0.01  -0.00   0.02   0.01   0.25   0.00   0.00  -0.07   6.49  23.23   0.50
     73:    0.00   0.00   0.00  -0.08  -0.16   0.17   0.51   0.00   0.05   0.00  -0.00   0.00   0.02  77.82
     74:   -0.01   0.07  -0.03   0.00   0.00   0.00   0.00   0.09   0.00   0.00  -0.02  -7.50  -0.03   0.00


 Summation over all MOs, multiplied by occupation: Total SFO Gross Populations in this Irrep
 ===========================================================================================

     2.00    2.00    2.00    2.00    1.96    1.99    1.99    1.98    1.98    0.81   -0.01   -0.00
     0.00    0.00   -0.01    0.00    0.00    0.00    0.00    0.00    0.00    0.00    0.00    0.00
     0.00    0.00    0.00    0.00   -0.00    0.00    0.00    0.00    0.00    0.00    0.00    0.00
     0.00    0.00    0.00    0.00    0.00    0.00    0.00    0.00    0.00    0.00    0.00    0.00
     0.00   -0.00   -0.00    0.00    2.00    2.00    2.00    2.00    2.00    2.00    2.00    2.00
     2.00    2.00    2.00    2.00    2.00    2.00    1.99    1.20    1.99    1.99    0.01    0.02
     0.01    0.00    0.01    0.01    0.02    0.01    0.01    0.00    0.00    0.00    0.00    0.01
     0.00    0.00   -0.00   -0.00   -0.00   -0.00   -0.00   -0.00   -0.00   -0.00   -0.00   -0.00
    -0.00   -0.00   -0.00   -0.00   -0.00   -0.00   -0.00   -0.00    0.00    0.00   -0.00    0.00



 List of all MOs, ordered by energy, with the most significant SFO gross populations
 ===================================================================================

 Each percentage contribution in the table below corresponds to the indicated SFO.
 In general, a SFO may be a linear combination of several Fragment Orbitals on the same,
 or on symmetry-related Fragments. Only the first 'member' of such a combination is
 specified here. A full definition of all SFOs is given in an earlier part of the output.
 The numbering of the SFOs in this table does NOT include the Core Orbitals, and starts
 from one for each symmetry representation, as in the SFO definition list earlier.

       E(eV)  Occ       MO           %     SFO (first member)   E(eV)  Occ   Fragment
 -------------------------------------------------------------------------------------

     -20.226  2.00    18 A         70.26%     4 A             -29.480  2.00     1 FF
                                   29.26%     3 A             -30.769  2.00     1 FF
     -13.897  2.00    19 A         96.03%    15 A             -10.500  2.00     2 Br
                                    1.54%     5 A             -13.570  2.00     1 FF
                                    1.28%     4 A             -29.480  2.00     1 FF
      -6.044  2.00    20 A         60.97%     5 A             -13.570  2.00     1 FF
                                   24.07%    16 A               0.447  2.00     2 Br
                                   10.27%    10 A             -10.350  0.00     1 FF
                                    1.85%    15 A             -10.500  2.00     2 Br
                                    1.02%    20 A               9.589  0.00     2 Br
      -4.125  2.00    21 A         46.26%     7 A             -11.608  2.00     1 FF
                                   24.60%     9 A             -10.727  2.00     1 FF
                                   10.54%     6 A             -11.608  2.00     1 FF
                                    9.58%    17 A               0.447  2.00     2 Br
                                    6.71%    18 A               0.447  2.00     2 Br
                                    1.43%     8 A             -10.727  2.00     1 FF
      -4.125  2.00    22 A         46.26%     6 A             -11.608  2.00     1 FF
                                   24.60%     8 A             -10.727  2.00     1 FF
                                   10.54%     7 A             -11.608  2.00     1 FF
                                    9.58%    18 A               0.447  2.00     2 Br
                                    6.71%    17 A               0.447  2.00     2 Br
                                    1.43%     9 A             -10.727  2.00     1 FF
      -2.207  2.00    23 A         38.85%    17 A               0.447  2.00     2 Br
                                   38.04%    18 A               0.447  2.00     2 Br
                                   16.84%     7 A             -11.608  2.00     1 FF
                                    5.75%     6 A             -11.608  2.00     1 FF
      -2.207  2.00    24 A         38.83%    18 A               0.447  2.00     2 Br
                                   38.05%    17 A               0.447  2.00     2 Br
                                   16.84%     6 A             -11.608  2.00     1 FF
                                    5.76%     7 A             -11.608  2.00     1 FF
      -2.027  2.00    25 A         35.42%     5 A             -13.570  2.00     1 FF
                                   34.82%    16 A               0.447  2.00     2 Br
                                   29.30%    10 A             -10.350  0.00     1 FF
      -1.558  2.00    26 A         44.17%     9 A             -10.727  2.00     1 FF
                                   29.09%     8 A             -10.727  2.00     1 FF
                                   15.82%     7 A             -11.608  2.00     1 FF
                                    6.04%    17 A               0.447  2.00     2 Br
                                    4.15%     6 A             -11.608  2.00     1 FF
      -1.558  2.00    27 A         44.17%     8 A             -10.727  2.00     1 FF
                                   29.09%     9 A             -10.727  2.00     1 FF
                                   15.82%     6 A             -11.608  2.00     1 FF
                                    6.04%    18 A               0.447  2.00     2 Br
                                    4.15%     7 A             -11.608  2.00     1 FF
       0.092  0.00    28 A         57.55%    10 A             -10.350  0.00     1 FF
                                   41.19%    16 A               0.447  2.00     2 Br
                                   -1.13%    12 A               1.985  0.00     1 FF
                                    1.02%    15 A             -10.500  2.00     2 Br



 =======================================================================
 Electrostatic potential at the Nuclei due to electrons and other nuclei
 =======================================================================
  
         Atom                  Potential
         ----                  ---------
     1)   F                  26.79857856
     2)   F                  26.88566177
     3)   Br                176.12655646
 
 
 ========================
 No memory problems found
 ========================
 
 Maximum number of active allocate calls:         620
 
 *******************************************************************************

                             A D F   E X I T
 NORMAL TERMINATION



 =================
 Timing Statistics
 =================
  
 Total Used :                     CPU=        6.09      System=        0.18     Elapsed=        6.56

 Calls  Section                     ( Mean, Percentage )
 ---------------------------------------------------------------------------------------------------
     3  ><      ................      0.00    0.03             0.00    0.00             0.00    0.02
     1  INIT    ................      0.45    7.45             0.02   13.12             0.48    7.34
     1  GEOMET  ................      0.03    0.49             0.01    5.46             0.24    3.72
     1  FRAGM   ................      0.01    0.18             0.01    3.28             0.03    0.47
     1  INPUTA  ................      0.00    0.00             0.00    0.00             0.00    0.01
     1  ATDEN   ................      0.00    0.08             0.00    0.00             0.00    0.07
     1  MAINSY  ................      0.01    0.10             0.00    1.64             0.01    0.19
     1  SYMFIT  ................      0.00    0.05             0.00    0.00             0.00    0.03
     1  CORORT  ................      0.00    0.00             0.00    0.00             0.00    0.01
     1  SYMORB  ................      0.00    0.05             0.00    0.55             0.00    0.05
     1  CLSMAT  ................      0.01    0.18             0.00    0.00             0.01    0.18
     1  ORTHON  ................      0.01    0.16             0.00    0.00             0.01    0.15
     1  GENPT   ................      0.10    1.61             0.01    3.28             0.11    1.62
     1  PTBAS   ................      0.03    0.56             0.00    1.09             0.03    0.53
    21  FOCKY   ................      0.11   39.20             0.00    9.84             0.12   36.89
    21  FOCKTR  ................      0.00    0.61             0.00    0.00             0.00    0.63
    21  SDIIS   ................      0.00    1.38             0.00    1.09             0.00    1.27
     1  COREPS  ................      0.10    1.66             0.00    0.00             0.10    1.55
     1  TOTEN   ................      0.30    4.91             0.00    1.64             0.30    4.63
     1  POPAN   ................      0.00    0.05             0.00    0.55             0.01    0.13
     1  DEBYE   ................      0.00    0.03             0.00    0.00             0.00    0.03
     1  INPUTE  ................      0.00    0.02             0.00    0.00             0.00    0.02
     1  SYMORE  ................      0.00    0.02             0.00    0.00             0.00    0.02
     1  METS    ................      0.00    0.02             0.00    0.00             0.00    0.01
     1  CETS    ................      0.00    0.08             0.01    3.83             0.02    0.38
     1  POPUL   ................      2.48   40.65             0.10   53.55             2.59   39.57
     1  EXIT PROCEDURE .........      0.03    0.44             0.00    1.09             0.03    0.46


 Currently Open Files (EXIT00)
 ====================

 Unit    Access Format  Status   Type       Ident (file)
 -------------------------------------------------------
   3      SEQ    FORM   TRANSP  NORMAL      LOGFILE
                                          ( logfile )


 Buffered I/O statistics
 =======================
 Memory available:                     67108864
 Number of records fitting in memory:     16131
 Input :   1.0% of                        58187  *4k bytes
 Output:  11.0% of                         4365  *4k bytes
 Records from serial files evicted:           0
                    others evicted:           0
 Hash table lookups:     166436 with          0 conflicts (  0.00%)

 ***************************************************************************************************
 (LOGFILE)
 <May09-2019> <17:12:14>  ADF 2017  RunTime: May09-2019 17:12:14  Nodes: 1  Procs: 12
 <May09-2019> <17:12:14>  *** (NO TITLE) ***
 <May09-2019> <17:12:14>  RunType   : SINGLE POINT
 <May09-2019> <17:12:14>  Net Charge: -1 (Nuclei minus Electrons)
 <May09-2019> <17:12:14>  Symmetry  : NOSYM
 <May09-2019> <17:12:14>  >>>> FRAGM
  Coordinates
    Atom         X           Y           Z   (Angstrom)
    1.F        -4.902145    3.055663   -0.042659
    2.F        -3.941090    1.389194    0.082546
    3.Br       -5.932146    4.854061   -0.177088
 <May09-2019> <17:12:14>  >>>> CORORT
 <May09-2019> <17:12:14>  >>>> CLSMAT
 <May09-2019> <17:12:14>  >>>> ORTHON
 <May09-2019> <17:12:14>  >>>> GENPT
 <May09-2019> <17:12:14>  Block Length= 128
 <May09-2019> <17:12:14>  >>>> PTBAS
 <May09-2019> <17:12:14>  >>>> CYCLE
 <May09-2019> <17:12:15>              |Error|         MaxErr       Wt(A-DIIS)
 <May09-2019> <17:12:15>      1      1.36609990      0.77527016
 <May09-2019> <17:12:15>      2      1.39897159      0.44265536    100.0
 <May09-2019> <17:12:15>      3      0.69084517      0.30489415    100.0
 <May09-2019> <17:12:15>      4      0.66927196      0.35356916    100.0
 <May09-2019> <17:12:15>      5      4.42562873      1.59236043    100.0
 <May09-2019> <17:12:15>      6      1.82967420      0.60687240    100.0
 <May09-2019> <17:12:15>      7      0.61692835      0.27810574    100.0
 <May09-2019> <17:12:15>      8      1.33275384      0.64354519    100.0
 <May09-2019> <17:12:16>      9      0.22264040      0.10121993    100.0
 <May09-2019> <17:12:16>     10      0.64745265      0.22714019    100.0
 <May09-2019> <17:12:16>     11      0.27525645      0.09457752    100.0
 <May09-2019> <17:12:16>     12      0.25405382      0.11717326    100.0
 <May09-2019> <17:12:16>     13      0.04196728      0.01552927     14.7
 <May09-2019> <17:12:16>     14      0.01644853      0.00552589      4.6
 <May09-2019> <17:12:16>     15      0.00229351      0.00113491      0.1
 <May09-2019> <17:12:16>     16      0.00034145      0.00015848      0.0
 <May09-2019> <17:12:17>     17      0.00004083      0.00001733      0.0
 <May09-2019> <17:12:17>     18      0.00000663      0.00000235      0.0
 <May09-2019> <17:12:17>     19      0.00000415      0.00000170      0.0
 <May09-2019> <17:12:17>     20      0.00000103      0.00000052      0.0
 <May09-2019> <17:12:17>  SCF converged
 <May09-2019> <17:12:17>     21      0.00000007      0.00000004      0.0
 <May09-2019> <17:12:17>  >>>> TOTEN
 <May09-2019> <17:12:17>  >>>> POPAN
 <May09-2019> <17:12:17>  >>>> DEBYE
 <May09-2019> <17:12:17>  >>>> AMETS
 <May09-2019> <17:12:20>   Bond Energy          -0.13416153 a.u.
 <May09-2019> <17:12:20>   Bond Energy          -3.65072091 eV
 <May09-2019> <17:12:20>   Bond Energy         -84.19       kcal/mol
 <May09-2019> <17:12:20>  >>>> POPUL
 <May09-2019> <17:12:20>  NORMAL TERMINATION
 <May09-2019> <17:12:20>  END
