

 Parallel Execution: Process Information
 ==============================================================================
 Rank   Node Name                              NodeID   MyNodeRank  NodeMaster
    0   BAZIS-cn076                               0          0          0
    1   BAZIS-cn076                               0          1         -1
    2   BAZIS-cn076                               0          2         -1
    3   BAZIS-cn076                               0          3         -1
    4   BAZIS-cn076                               0          4         -1
    5   BAZIS-cn076                               0          5         -1
    6   BAZIS-cn076                               0          6         -1
    7   BAZIS-cn076                               0          7         -1
    8   BAZIS-cn076                               0          8         -1
    9   BAZIS-cn076                               0          9         -1
   10   BAZIS-cn076                               0         10         -1
   11   BAZIS-cn076                               0         11         -1
 ==============================================================================


May use up to 30736MB of RAM as shared memory on node 0


XC
    GGA BP86
END

SCF
    iterations 250
END

EPRINT
    SFO Eig Ovl
END

ZLMFIT
    Quality normal
END

BECKEGRID
    Quality good
End

SYMMETRY nosym
CHARGE -1

ATOMS
1.Cl       -4.925130    3.099645   -0.045734 f=ClF
2.F        -3.939304    1.432629    0.048467 f=ClF
3.F        -5.910947    4.766645   -0.139935 f=F
END

Fragments
ClF /home/tcst25/advanced_comp_chemistry/exercise2/halogen/FClF/frag1_ClF.t21
F /home/tcst25/advanced_comp_chemistry/exercise2/halogen/FClF/frag2_F.t21
End
end input

 *******************************************************************************
 *                                                                             *
 *  -------------------------------------                                      *
 *   Amsterdam Density Functional  (ADF)         2017                          *
 *  -------------------------------------                                      *
 *                                               r58813 2017-04-12             *
 *                                                                             *
 *                                                                             *
 *                              =================                              *
 *                              |               |                              *
 *                              |     A D F     |                              *
 *                              |               |                              *
 *                              =================                              *
 *                                                                             *
 *                                                                             *
 *   Online information and documentation:  https://www.scm.com/support/       *
 *   E-mail:  support@scm.com   info@scm.com                                   *
 *                                                                             *
 *   Scientific publications using ADF results must be properly referenced     *
 *   See the User Manuals (or the web site) for recommended citations          *
 *   The terms and conditions of the End User License Agreement apply to       *
 *   the use of ADF, https://www.scm.com/license-terms/                        *
 *                                                                             *
 **********************  x86_64_linux_intel / intelmpi  ************************
 
 Licensed to: VU/FEW (+ SARA) / ALGEMEEN / Amsterdam / THE NETHERLANDS
 SCM User ID: u7668
  
 ADF 2017  RunTime: May09-2019 17:12:13  Nodes: 1  Procs: 12

 Temporary files are created in /local/datastore0/tcst25/189788/kid_0.358W7i


Communication costs MPI_COMM_WORLD:      2.461 usec per message,   0.0111 usec per 8-byte item
Communication costs for intra-node:      2.464 usec per message,   0.0110 usec per 8-byte item

 *** (NO TITLE) ***



 ===========================
 A T T A C H E D   F I L E S
 ===========================
  



 ===============================
 M O D E L   P A R A M E T E R S
 ===============================
  
 DENSITY FUNCTIONAL POTENTIAL (scf)
    LDA:                               VWN                                      
    Gradient Corrections:              Becke88 Perdew86                        == Not Default ==

 SPIN  (restricted / unrestr.)
    Molecule:                          Restricted                               
    Fragments:                         Restricted                               

 OTHER ASPECTS
    Relativistic Corrections:          ---                                      

    Nuclear Charge Density Model:      Point Charge Nuclei                      
    Core Treatment:                    Frozen Orbital(s)                        

    Hyperfine or Zeeman Interaction:   ---                                      


 Fragment File(s)
 ----------------
 ClF:
         file : /home/tcst25/advanced_comp_chemistry/exercise2/halogen/FClF/frag1_ClF.t21
         jobid: ADF 2017  RunTime: May09-2019 16:32:33  Nodes: 1  Procs: 12
         title: *** (NO TITLE) ***
 F:
         file : /home/tcst25/advanced_comp_chemistry/exercise2/halogen/FClF/frag2_F.t21
         jobid: ADF 2017  RunTime: May09-2019 16:32:31  Nodes: 1  Procs: 12
         title: *** (NO TITLE) ***



                                        ************************************
                                        *  R U N   T Y P E : SINGLE POINT  *
                                        ************************************
  



 ===============
 G E O M E T R Y  ***  Linear Molecule  ***
 ===============
  

 ATOMS
 =====                            X Y Z                    CHARGE
                                (Angstrom)             Nucl     +Core       At.Mass
                       --------------------------    ----------------       -------
    1  Cl             -4.9251    3.0996   -0.0457     17.00     17.00       34.9689
    2  F              -3.9393    1.4326    0.0485      9.00      9.00       18.9984
    3  F              -5.9109    4.7666   -0.1399      9.00      9.00       18.9984


 FRAGMENTS
 =========                                     Atoms in this Fragment     Cart. coord.s (Angstrom)
                                               -------------------------------------------------------
    1  ClF                                               1  Cl          -4.9251    3.0996   -0.0457
                                                         2  F           -3.9393    1.4326    0.0485
    2  F                                                 3  F           -5.9109    4.7666   -0.1399


 Interatomic Distance Matrix (Angstrom)
 --------------------------------------

   1)     0.000
   2)     1.939   0.000
   3)     1.939   3.878   0.000

 Min. Distance =    1.9390
 Max. Distance =    3.8780



 =====================================
 S Y M M E T R Y ,   E L E C T R O N S
 =====================================
  
 Symmetry: NOSYM

 Irreducible Representations, including subspecies
 -------------------------------------------------
 A


 Configuration of Valence Electrons
 ==================================
 ( determined in the SCF procedure )

 Total:   36

 Net Charge: -1 (Nuclei minus Electrons)

 Aufbau principle for MO occupations will be applied through SCF cycle no.     125
 Thereafter, the program will assign electrons to MOs that are spatially
 similar to the occupied MOs in a "reference" cycle ("KeepOrbitals").
 The reference cycle is always the PREVIOUS cycle: it will evolve with
 the SCF procedure.
1
 ***************************************************************************************************



                                      ****************************************
                                      *  B U I L D : (Fragments, Functions)  *
                                      ****************************************
  

 The individual fragments are copies of the corresponding 'Master' fragments defined on the fragment files.
 However, they may have been rotated (and translated) with respect to the Master. The local coordinate axes
 of each fragment (which define for instance the spatial orientation in the current molecule of a fragment
 P:x orbital) are not necessarily those of the molecule.
 The local frame (if different from the molecular one) is printed to enable an interpretation of the expan-
 sion of an MO in Fragment Orbitals.



                                             *************************
                                             *  Fragment Type : ClF  *
                                             *************************
  

 Fragment no.    1   (in the list of all fragments)
 -----------------
 The local coordinate frame is identical to the molecular frame.

 Check Atomic Coordinates:

                  Master (on file)          After Computed Tranformation               As specified on Input
           ----------------------------     ----------------------------     ---------------------------------
     1)    -4.92513   3.09965  -0.04573     -4.92513   3.09964  -0.04573       1  -4.92513   3.09964  -0.04573
     2)    -3.93930   1.43263   0.04847     -3.93930   1.43263   0.04847       2  -3.93930   1.43263   0.04847



                                              ***********************
                                              *  Fragment Type : F  *
                                              ***********************
  

 Fragment no.    2   (in the list of all fragments)
 -----------------
 The local coordinate frame is identical to the molecular frame.

 Check Atomic Coordinates:

                  Master (on file)          After Computed Tranformation               As specified on Input
           ----------------------------     ----------------------------     ---------------------------------
     1)    -5.91095   4.76664  -0.13994     -5.91095   4.76665  -0.13993       3  -5.91095   4.76665  -0.13993



 =======
 S F O s  ***  (Symmetrized Fragment Orbitals)  ***
 =======
  
 SFOs are linear combinations of (valence) Fragment Orbitals (FOs), such that the SFOs transform as the
 irreducible representations of the (molecular) symmetry group. Each SFO is therefore characterized by
 an irrep of the molecule and by a few (or only one) generating FOs.
 The SFOs constitute a symmetry-adapted basis for the Fock matrix. The MO eigenvector coefficients in
 this basis provide a direct interpretation of the MOs in terms of Frontier Orbital Theory.

 The SFOs are combined with auxiliary Core Functions (CFs) to ensure orthogonalization on the (frozen)
 Core Orbitals (COs). The Core-orthogonalized SFOs (CSFOs) constitute the true Fock basis.

 The FOs, and hence also the (C)SFOs are combinations of the elementary basis functions (BAS). The basis
 functions that participate in the description of the SFOs depend on the irrep. The indices of the
 involved functions are printed below for each irrep.
 (The complete list of primitive basis functions is printed in another section)

 Total nr. of (C)SFOs (summation over all irreps) :    86

 NOTE: a (C)SFO that is defined as a combination of more than one FO is usually NOT normalized.



                                       === A ===
 Nr. of SFOs :   86
 Cartesian basis functions that participate in this irrep (total number =    98) :
      1     2     3     4    11    12    13     5     8    14
     17    20     6     9    15    18    21     7    10    16
     19    22    23    24    25    26    27    28    29    30
     31    32    33    34    35    36    37    38    39    40
     41    42    43    44    47    50    45    48    51    46
     49    52    53    54    55    56    57    58    59    60
     61    62    63    64    65    66    67    68    69    70
     71    72    73    74    77    80    75    78    81    76
     79    82    83    84    85    86    87    88    89    90
     91    92    93    94    95    96    97    98

    SFO  (index         Fragment          Generating    Expansion in Fragment Orbitals
  indx  incl.CFs)   Occup   Orb.Energy   FragmentType  Coeff.   Orbital     on Fragment
 --------------------------------------------------------------------------------------
     1       1      2.000    -100.818 au  ClF           1.00      1 A               1
                        (   -2743.387 eV)
     2       2      2.000     -24.332 au  ClF           1.00      2 A               1
                        (    -662.110 eV)
     3       3      2.000      -9.265 au  ClF           1.00      3 A               1
                        (    -252.117 eV)
     4       4      2.000      -7.102 au  ClF           1.00      4 A               1
                        (    -193.262 eV)
     5       5      2.000      -7.080 au  ClF           1.00      5 A               1
                        (    -192.663 eV)
     6       6      2.000      -7.080 au  ClF           1.00      6 A               1
                        (    -192.663 eV)
     7       7      2.000      -1.072 au  ClF           1.00      7 A               1
                        (     -29.173 eV)
     8       8      2.000      -0.780 au  ClF           1.00      8 A               1
                        (     -21.212 eV)
     9       9      2.000      -0.458 au  ClF           1.00      9 A               1
                        (     -12.460 eV)
    10      10      2.000      -0.384 au  ClF           1.00     10 A               1
                        (     -10.443 eV)
    11      11      2.000      -0.384 au  ClF           1.00     11 A               1
                        (     -10.443 eV)
    12      12      2.000      -0.313 au  ClF           1.00     12 A               1
                        (      -8.504 eV)
    13      13      2.000      -0.313 au  ClF           1.00     13 A               1
                        (      -8.504 eV)
    14      14       --        -0.255 au  ClF           1.00     14 A               1
                        (      -6.933 eV)
    15      15       --         0.036 au  ClF           1.00     15 A               1
                        (       0.976 eV)
    16      16       --         0.188 au  ClF           1.00     16 A               1
                        (       5.115 eV)
    17      17       --         0.219 au  ClF           1.00     17 A               1
                        (       5.957 eV)
    18      18       --         0.219 au  ClF           1.00     18 A               1
                        (       5.957 eV)
    19      19       --         0.273 au  ClF           1.00     19 A               1
                        (       7.421 eV)
    20      20       --         0.320 au  ClF           1.00     20 A               1
                        (       8.717 eV)
    21      21       --         0.320 au  ClF           1.00     21 A               1
                        (       8.717 eV)
    22      22       --         0.369 au  ClF           1.00     22 A               1
                        (      10.030 eV)
    23      23       --         0.369 au  ClF           1.00     23 A               1
                        (      10.030 eV)
    24      24       --         0.485 au  ClF           1.00     24 A               1
                        (      13.210 eV)
    25      25       --         0.559 au  ClF           1.00     25 A               1
                        (      15.223 eV)
    26      26       --         0.559 au  ClF           1.00     26 A               1
                        (      15.223 eV)
    27      27       --         0.699 au  ClF           1.00     27 A               1
                        (      19.008 eV)
    28      28       --         1.023 au  ClF           1.00     28 A               1
                        (      27.848 eV)
    29      29       --         1.023 au  ClF           1.00     29 A               1
                        (      27.848 eV)
    30      30       --         1.064 au  ClF           1.00     30 A               1
                        (      28.956 eV)
    31      31       --         1.064 au  ClF           1.00     31 A               1
                        (      28.956 eV)
    32      32       --         1.180 au  ClF           1.00     32 A               1
                        (      32.105 eV)
    33      33       --         1.180 au  ClF           1.00     33 A               1
                        (      32.105 eV)
    34      34       --         1.307 au  ClF           1.00     34 A               1
                        (      35.576 eV)
    35      35       --         1.343 au  ClF           1.00     35 A               1
                        (      36.543 eV)
    36      36       --         1.343 au  ClF           1.00     36 A               1
                        (      36.543 eV)
    37      37       --         1.400 au  ClF           1.00     37 A               1
                        (      38.096 eV)
    38      38       --         1.580 au  ClF           1.00     38 A               1
                        (      42.989 eV)
    39      39       --         1.580 au  ClF           1.00     39 A               1
                        (      42.989 eV)
    40      40       --         1.869 au  ClF           1.00     40 A               1
                        (      50.849 eV)
    41      41       --         2.100 au  ClF           1.00     41 A               1
                        (      57.131 eV)
    42      42       --         2.100 au  ClF           1.00     42 A               1
                        (      57.132 eV)
    43      43       --         2.114 au  ClF           1.00     43 A               1
                        (      57.522 eV)
    44      44       --         2.666 au  ClF           1.00     44 A               1
                        (      72.551 eV)
    45      45       --         3.462 au  ClF           1.00     45 A               1
                        (      94.200 eV)
    46      46       --         3.462 au  ClF           1.00     46 A               1
                        (      94.200 eV)
    47      47       --         3.515 au  ClF           1.00     47 A               1
                        (      95.655 eV)
    48      48       --         3.515 au  ClF           1.00     48 A               1
                        (      95.655 eV)
    49      49       --         3.680 au  ClF           1.00     49 A               1
                        (     100.127 eV)
    50      50       --         3.680 au  ClF           1.00     50 A               1
                        (     100.127 eV)
    51      51       --         3.841 au  ClF           1.00     51 A               1
                        (     104.518 eV)
    52      52       --         4.721 au  ClF           1.00     52 A               1
                        (     128.468 eV)
    53      53       --         4.721 au  ClF           1.00     53 A               1
                        (     128.469 eV)
    54      54       --         5.199 au  ClF           1.00     54 A               1
                        (     141.476 eV)
    55      55       --        13.146 au  ClF           1.00     55 A               1
                        (     357.715 eV)
    56      56       --        18.845 au  ClF           1.00     56 A               1
                        (     512.802 eV)
    57      57       --        18.845 au  ClF           1.00     57 A               1
                        (     512.803 eV)
    58      58       --        19.305 au  ClF           1.00     58 A               1
                        (     525.306 eV)
    59      59       --        49.433 au  ClF           1.00     59 A               1
                        (    1345.137 eV)
    60      60       --       216.286 au  ClF           1.00     60 A               1
                        (    5885.452 eV)
    61      61      2.000     -23.791 au  F             1.00      1 A               2
                        (    -647.398 eV)
    62      62      2.000      -0.555 au  F             1.00      2 A               2
                        (     -15.093 eV)
    63      63      2.000       0.108 au  F             1.00      3 A               2
                        (       2.944 eV)
    64      64      2.000       0.108 au  F             1.00      4 A               2
                        (       2.944 eV)
    65      65      2.000       0.108 au  F             1.00      5 A               2
                        (       2.944 eV)
    66      66       --         0.286 au  F             1.00      6 A               2
                        (       7.773 eV)
    67      67       --         0.812 au  F             1.00      7 A               2
                        (      22.092 eV)
    68      68       --         0.812 au  F             1.00      8 A               2
                        (      22.092 eV)
    69      69       --         0.812 au  F             1.00      9 A               2
                        (      22.092 eV)
    70      70       --         1.566 au  F             1.00     10 A               2
                        (      42.603 eV)
    71      71       --         1.566 au  F             1.00     11 A               2
                        (      42.603 eV)
    72      72       --         1.566 au  F             1.00     12 A               2
                        (      42.603 eV)
    73      73       --         1.566 au  F             1.00     13 A               2
                        (      42.603 eV)
    74      74       --         1.566 au  F             1.00     14 A               2
                        (      42.603 eV)
    75      75       --         2.040 au  F             1.00     15 A               2
                        (      55.515 eV)
    76      76       --         3.896 au  F             1.00     16 A               2
                        (     106.020 eV)
    77      77       --         3.896 au  F             1.00     17 A               2
                        (     106.020 eV)
    78      78       --         3.896 au  F             1.00     18 A               2
                        (     106.020 eV)
    79      79       --         3.896 au  F             1.00     19 A               2
                        (     106.020 eV)
    80      80       --         3.896 au  F             1.00     20 A               2
                        (     106.020 eV)
    81      81       --         3.896 au  F             1.00     21 A               2
                        (     106.020 eV)
    82      82       --         3.896 au  F             1.00     22 A               2
                        (     106.020 eV)
    83      83       --         5.088 au  F             1.00     23 A               2
                        (     138.458 eV)
    84      84       --         5.088 au  F             1.00     24 A               2
                        (     138.458 eV)
    85      85       --         5.088 au  F             1.00     25 A               2
                        (     138.458 eV)
    86      86       --        48.938 au  F             1.00     26 A               2
                        (    1331.672 eV)



 ================================
 (Slater-type)  F U N C T I O N S  ***  (Basis and Fit)  ***
 ================================
  

 Atom Type    1  (Cl)
 ==============

 Valence Basis Sets:  14
 -----------------------
   1 S   20.300000
   1 S   15.250000
   2 S    6.250000
   2 S    4.450000
   2 P    8.850000
   2 P    5.050000
   3 S    3.450000
   3 S    2.300000
   3 S    1.600000
   3 P    3.350000
   3 P    2.050000
   3 P    1.200000
   3 D    2.000000
   4 F    2.000000

 Atom Type    2  (F)
 ==============

 Valence Basis Sets:  10
 -----------------------
   1 S   10.880000
   1 S    7.700000
   2 S    3.240000
   2 S    1.940000
   2 S    0.740000
   2 P    4.540000
   2 P    2.300000
   2 P    1.240000
   3 D    2.000000
   4 F    3.000000

 Atom Type    3  (F)
 ==============

 Valence Basis Sets:  10
 -----------------------
   1 S   10.880000
   1 S    7.700000
   2 S    3.240000
   2 S    1.940000
   2 S    0.740000
   2 P    4.540000
   2 P    2.300000
   2 P    1.240000
   3 D    2.000000
   4 F    3.000000


 BAS: List of all Elementary Cartesian Basis Functions
 =====================================================

 The numbering in the list below (to the right of the function characteristics) is referred
 to in print-outs of MO eigenvectors and Mulliken populations in the BAS representation
 (as contrasted to the SFO representation).

 Notes:
 1. The functions are characterized by a polynomial prefactor (powers of x,y,z and r) and
    an exponential decay factor alpha.
 2. Since the basis sets are specific for an atom TYPE, the individual functions occur on
    all atoms of that type.
 3. The word 'Core' in the left margin signals that it is a Core Function (CF) : not a
    degree of freedom in the valence set, but only used to ensure orthogonalization of
    the other valence basis functions on the frozen Core Orbitals.


 (power of) X  Y  Z  R     Alpha  on Atom
            ==========     =====     ==========

 Cl                                   1
                                  ---------------------------------------------------------------------------
            0  0  0  0    20.300      1
            0  0  0  0    15.250      2
            0  0  0  1     6.250      3
            0  0  0  1     4.450      4
            1  0  0  0     8.850      5
            0  1  0  0     8.850      6
            0  0  1  0     8.850      7
            1  0  0  0     5.050      8
            0  1  0  0     5.050      9
            0  0  1  0     5.050     10
            0  0  0  2     3.450     11
            0  0  0  2     2.300     12
            0  0  0  2     1.600     13
            1  0  0  1     3.350     14
            0  1  0  1     3.350     15
            0  0  1  1     3.350     16
            1  0  0  1     2.050     17
            0  1  0  1     2.050     18
            0  0  1  1     2.050     19
            1  0  0  1     1.200     20
            0  1  0  1     1.200     21
            0  0  1  1     1.200     22
            2  0  0  0     2.000     23
            1  1  0  0     2.000     24
            1  0  1  0     2.000     25
            0  2  0  0     2.000     26
            0  1  1  0     2.000     27
            0  0  2  0     2.000     28
            3  0  0  0     2.000     29
            2  1  0  0     2.000     30
            2  0  1  0     2.000     31
            1  2  0  0     2.000     32
            1  1  1  0     2.000     33
            1  0  2  0     2.000     34
            0  3  0  0     2.000     35
            0  2  1  0     2.000     36
            0  1  2  0     2.000     37
            0  0  3  0     2.000     38

 F                                    2
                                  ---------------------------------------------------------------------------
            0  0  0  0    10.880     39
            0  0  0  0     7.700     40
            0  0  0  1     3.240     41
            0  0  0  1     1.940     42
            0  0  0  1     0.740     43
            1  0  0  0     4.540     44
            0  1  0  0     4.540     45
            0  0  1  0     4.540     46
            1  0  0  0     2.300     47
            0  1  0  0     2.300     48
            0  0  1  0     2.300     49
            1  0  0  0     1.240     50
            0  1  0  0     1.240     51
            0  0  1  0     1.240     52
            2  0  0  0     2.000     53
            1  1  0  0     2.000     54
            1  0  1  0     2.000     55
            0  2  0  0     2.000     56
            0  1  1  0     2.000     57
            0  0  2  0     2.000     58
            3  0  0  0     3.000     59
            2  1  0  0     3.000     60
            2  0  1  0     3.000     61
            1  2  0  0     3.000     62
            1  1  1  0     3.000     63
            1  0  2  0     3.000     64
            0  3  0  0     3.000     65
            0  2  1  0     3.000     66
            0  1  2  0     3.000     67
            0  0  3  0     3.000     68

 F                                    3
                                  ---------------------------------------------------------------------------
            0  0  0  0    10.880     69
            0  0  0  0     7.700     70
            0  0  0  1     3.240     71
            0  0  0  1     1.940     72
            0  0  0  1     0.740     73
            1  0  0  0     4.540     74
            0  1  0  0     4.540     75
            0  0  1  0     4.540     76
            1  0  0  0     2.300     77
            0  1  0  0     2.300     78
            0  0  1  0     2.300     79
            1  0  0  0     1.240     80
            0  1  0  0     1.240     81
            0  0  1  0     1.240     82
            2  0  0  0     2.000     83
            1  1  0  0     2.000     84
            1  0  1  0     2.000     85
            0  2  0  0     2.000     86
            0  1  1  0     2.000     87
            0  0  2  0     2.000     88
            3  0  0  0     3.000     89
            2  1  0  0     3.000     90
            2  0  1  0     3.000     91
            1  2  0  0     3.000     92
            1  1  1  0     3.000     93
            1  0  2  0     3.000     94
            0  3  0  0     3.000     95
            0  2  1  0     3.000     96
            0  1  2  0     3.000     97
            0  0  3  0     3.000     98

 Total number of charge fitting functions (nprimf)       276
 Total number of Cartesian basis functions (naos)         98
 Total number of Cartesian core functions  (ncos)          0

1
 ***************************************************************************************************



                                              ***********************
                                              *  T E C H N I C A L  *
                                              ***********************
  



 =============================================================
 P A R A L L E L I Z A T I O N  and  V E C T O R I Z A T I O N
 =============================================================
  
 Nr of parallel processes:                               12
 Maximum vector length in NumInt loops:                 128

 IO buffersize (Mb):                                     64.000000



 =====================
 S C F   U P D A T E S
 =====================
  
 Max. nr. of cycles:                               250
 Convergence criterion:                              0.0000010000
   secondary criterion:                              0.0010000000

 Mix parameter (when DIIS does not apply):           0.2000000000
 Mixed ADIIS+DIIS will be used
    Max number of expansion vectors:                10
    Pure ADIIS when Max([F,P]) is above              0.1000000000
    Pure DIIS when Max([F,P]) is below               0.0010000000
 Automatic ElectronSmearing (in case of problematic SCF convergence) disabled



 =================
 P R E C I S I O N  ***  (General: NumInt, NeglectFunctionTails, ...)  ***
 =================
  

 NumInt:           Target precision:                 6.0000000000
 -------           Initial precision:                6.0000000000
                   Min. precision (optimization):    6.0000000000

 Neglect Functions:          Basis functions:        0.1000000000E-07
 ------------------          Fit functions:          0.1000000000E-07



 ===========================
 L I N E A R   S C A L I N G
 ===========================
  

 Cut-off radii density fit:                        0.1000000000E-09
 Overlap cut-off criterion AO matrix elements:     0.1000000000E-07
 Cut-offs for Coulomb potential and fitted density:0.1000000000E-09
 Cut-off criterion for Coulomb multipole terms:    0.1000000000E-09
 Progressive Convergence parameter:                 0.000000000    
1
 ***************************************************************************************************



                                            ***************************
                                            *  C O M P U T A T I O N  *
                                            ***************************
  

 Number of elements of the density matrix on this node (used, total):       741      4851



 ===========================================
 Numerical Integration : Fuzzy Cells (Becke)
 ===========================================
  
 Becke grid quality: GOOD           
  
 Lebedev angular grid order:             min:  11 max:  31
 Nr. of radial points:                   min:  65 max:  80

 Total nr. of points:      45490
 Nr. of blocks:              356
 Block length:               128
 Nr. of dummy points:         78


 Test of Precision of the Numerical Integration Grid
 ===================================================

 Integral of the Total Core Density:                   0.00000000000000



 ========================
 Density Fitting (zlmFit)
 ========================
  
 ZlmFit Fit Quality: NORMAL         
  
 Max L-expansion:                        min:   7 max:   7
 Nr. of radial interpolation points:     min:  51 max:  60



 =====
 S C F  ***  ScaSCF  ***
 =====
  
 Initial density matrix is calculated as sum of fragments

 CYCLE    1
 SCF Error: norm([F,P])=      1.257348945754, max([F,P])=      0.673367690202
 orbitals (Q,E):
 ---------------
 A :9...28           ( 2.00    -0.6517)  ( 2.00    -0.5354)  ( 2.00    -0.2868)  ( 2.00    -0.2451)
                     ( 2.00    -0.2451)  ( 2.00    -0.0917)  ( 2.00    -0.0917)  ( 2.00    -0.0696)
                     ( 2.00     0.0480)  ( 2.00     0.0480)  ( 0.00     0.1240)  ( 0.00     0.1750)
                     ( 0.00     0.2745)  ( 0.00     0.4317)  ( 0.00     0.4317)  ( 0.00     0.4766)
                     ( 0.00     0.5424)  ( 0.00     0.5424)  ( 0.00     0.6019)  ( 0.00     0.6019)

 CYCLE    2
  SDIIS (wt  0.000):  0.5964  0.4036
 A-DIIS (wt  1.000):  0.9296  0.0704
  DIIS coefficients:  0.9296  0.0704
 SCF Error: norm([F,P])=      1.551543296400, max([F,P])=      0.635983596173
 orbitals (Q,E):
 ---------------
 A :9...19           ( 2.00    -0.7002)  ( 2.00    -0.5246)  ( 2.00    -0.2563)  ( 2.00    -0.2051)
                     ( 2.00    -0.2051)  ( 2.00    -0.0854)  ( 2.00    -0.0854)  ( 2.00    -0.0811)
                     ( 2.00     0.0041)  ( 2.00     0.0041)  ( 0.00     0.1037)

 CYCLE    3
  SDIIS (wt  0.000):  0.1341 -1.1904  2.0563
 A-DIIS (wt  1.000):  0.8860  0.0000  0.1140
  DIIS coefficients:  0.8860  0.0000  0.1140
 SCF Error: norm([F,P])=      0.978647530882, max([F,P])=      0.410685788272
 orbitals (Q,E):
 ---------------
 A :9...19           ( 2.00    -0.7063)  ( 2.00    -0.5254)  ( 2.00    -0.2498)  ( 2.00    -0.1953)
                     ( 2.00    -0.1953)  ( 2.00    -0.0869)  ( 2.00    -0.0869)  ( 2.00    -0.0826)
                     ( 2.00    -0.0007)  ( 2.00    -0.0007)  ( 0.00     0.1008)

 CYCLE    4
  SDIIS (wt  0.000): -1.1109 -0.8891  3.0000
 A-DIIS (wt  1.000):  0.0000  0.0000  1.0000
  DIIS coefficients:  0.0000  0.0000  1.0000
 SCF Error: norm([F,P])=      0.911050144118, max([F,P])=      0.389243107000
 orbitals (Q,E):
 ---------------
 A :9...19           ( 2.00    -0.5661)  ( 2.00    -0.4891)  ( 2.00    -0.4373)  ( 2.00    -0.4373)
                     ( 2.00    -0.3962)  ( 2.00    -0.0516)  ( 2.00    -0.0516)  ( 2.00    -0.0164)
                     ( 2.00     0.1444)  ( 2.00     0.1841)  ( 0.00     0.1841)

 CYCLE    5
  SDIIS (wt  0.000): -0.8691 -1.1862  3.0000  0.0553
 A-DIIS (wt  1.000):  0.0000  0.0000  0.9231  0.0769
  DIIS coefficients:  0.0000  0.0000  0.9231  0.0769
 SCF Error: norm([F,P])=      3.981467978790, max([F,P])=      1.604702442812
 orbitals (Q,E):
 ---------------
 A :9...19           ( 2.00    -0.6815)  ( 2.00    -0.5103)  ( 2.00    -0.3408)  ( 2.00    -0.3235)
                     ( 2.00    -0.3235)  ( 2.00    -0.0786)  ( 2.00    -0.0610)  ( 2.00    -0.0602)
                     ( 2.00     0.0178)  ( 2.00     0.0198)  ( 0.00     0.1196)

 CYCLE    6
  SDIIS (wt  0.000): -0.4701 -1.7252  3.0000 -0.0121  0.2073
 A-DIIS (wt  1.000):  0.0000  0.0000  0.6595  0.0000  0.3405
  DIIS coefficients:  0.0000  0.0000  0.6595  0.0000  0.3405
 SCF Error: norm([F,P])=      1.736242290601, max([F,P])=      0.522887672687
 orbitals (Q,E):
 ---------------
 A :9...19           ( 2.00    -0.7536)  ( 2.00    -0.4935)  ( 2.00    -0.2089)  ( 2.00    -0.1373)
                     ( 2.00    -0.1373)  ( 2.00    -0.0874)  ( 2.00    -0.0815)  ( 2.00    -0.0814)
                     ( 2.00    -0.0198)  ( 2.00    -0.0198)  ( 0.00     0.1064)

 CYCLE    7
  SDIIS (wt  0.000): -0.0986 -1.3445  1.8188 -0.0042  0.0075  0.6211
 A-DIIS (wt  1.000):  0.0000  0.0000  0.2004  0.0000  0.0000  0.7996
  DIIS coefficients:  0.0000  0.0000  0.2004  0.0000  0.0000  0.7996
 SCF Error: norm([F,P])=      0.324424341021, max([F,P])=      0.113347705455
 orbitals (Q,E):
 ---------------
 A :9...19           ( 2.00    -0.7730)  ( 2.00    -0.5383)  ( 2.00    -0.2264)  ( 2.00    -0.1468)
                     ( 2.00    -0.1468)  ( 2.00    -0.0998)  ( 2.00    -0.0998)  ( 2.00    -0.0997)
                     ( 2.00    -0.0463)  ( 2.00    -0.0463)  ( 0.00     0.0752)

 CYCLE    8
  SDIIS (wt  0.000): -0.1163  0.2249 -0.0802 -0.0030  0.0204  0.4176  0.5366
 A-DIIS (wt  1.000):  0.0000  0.0000  0.0000  0.0000  0.0000  0.4763  0.5237
  DIIS coefficients:  0.0000  0.0000  0.0000  0.0000  0.0000  0.4763  0.5237
 SCF Error: norm([F,P])=      0.350980793298, max([F,P])=      0.139811424451
 orbitals (Q,E):
 ---------------
 A :9...19           ( 2.00    -0.7922)  ( 2.00    -0.5183)  ( 2.00    -0.2173)  ( 2.00    -0.1334)
                     ( 2.00    -0.1334)  ( 2.00    -0.1012)  ( 2.00    -0.1012)  ( 2.00    -0.1004)
                     ( 2.00    -0.0417)  ( 2.00    -0.0417)  ( 0.00     0.0850)

 CYCLE    9
  SDIIS (wt  0.687):  0.0142 -0.4102  0.4148  0.0007 -0.0126  0.2194  0.2463  0.5274
 A-DIIS (wt  0.313):  0.0000  0.0000  0.0000  0.0000  0.0000  0.0000  0.0613  0.9387
  DIIS coefficients:  0.0098 -0.2817  0.2849  0.0005 -0.0087  0.1506  0.1883  0.6563
 SCF Error: norm([F,P])=      0.089889748669, max([F,P])=      0.032017661970
 orbitals (Q,E):
 ---------------
 A :9...19           ( 2.00    -0.7839)  ( 2.00    -0.5198)  ( 2.00    -0.2136)  ( 2.00    -0.1306)
                     ( 2.00    -0.1306)  ( 2.00    -0.0939)  ( 2.00    -0.0939)  ( 2.00    -0.0933)
                     ( 2.00    -0.0392)  ( 2.00    -0.0392)  ( 0.00     0.0874)

 CYCLE   10
  SDIIS (wt  0.755): -0.0024  0.1046 -0.1252 -0.0001 -0.0003  0.0380  0.0574  0.3893  0.5387
 A-DIIS (wt  0.245):  0.0000  0.0000  0.0000  0.0000  0.0000  0.0000  0.0000  0.4493  0.5507
  DIIS coefficients: -0.0018  0.0789 -0.0945 -0.0001 -0.0002  0.0287  0.0433  0.4040  0.5416
 SCF Error: norm([F,P])=      0.071954266206, max([F,P])=      0.025295975503
 orbitals (Q,E):
 ---------------
 A :9...19           ( 2.00    -0.7885)  ( 2.00    -0.5187)  ( 2.00    -0.2149)  ( 2.00    -0.1313)
                     ( 2.00    -0.1313)  ( 2.00    -0.0968)  ( 2.00    -0.0968)  ( 2.00    -0.0961)
                     ( 2.00    -0.0401)  ( 2.00    -0.0401)  ( 0.00     0.0867)

 CYCLE   11
  SDIIS (wt  0.997): -0.0018  0.0289 -0.0297  0.0000 -0.0010  0.0081  0.0147  0.1063  0.1200  0.7546
 A-DIIS (wt  0.003):  0.0000  0.0000  0.0000  0.0000  0.0000  0.0000  0.0000  0.0000  0.0000  1.0000
  DIIS coefficients: -0.0018  0.0288 -0.0296  0.0000 -0.0010  0.0081  0.0146  0.1059  0.1196  0.7554
 SCF Error: norm([F,P])=      0.004201251415, max([F,P])=      0.001322681259
 orbitals (Q,E):
 ---------------
 A :9...19           ( 2.00    -0.7887)  ( 2.00    -0.5188)  ( 2.00    -0.2150)  ( 2.00    -0.1314)
                     ( 2.00    -0.1314)  ( 2.00    -0.0969)  ( 2.00    -0.0969)  ( 2.00    -0.0963)
                     ( 2.00    -0.0402)  ( 2.00    -0.0402)  ( 0.00     0.0866)

 CYCLE   12
  SDIIS (wt  1.000): -0.0025  0.0033 -0.0000 -0.0001 -0.0005 -0.0009 -0.0119 -0.0191 -0.0069  1.0385
  DIIS coefficients: -0.0025  0.0033 -0.0000 -0.0001 -0.0005 -0.0009 -0.0119 -0.0191 -0.0069  1.0385
 SCF Error: norm([F,P])=      0.000277100639, max([F,P])=      0.000109821037
 orbitals (Q,E):
 ---------------
 A :9...19           ( 2.00    -0.7887)  ( 2.00    -0.5188)  ( 2.00    -0.2150)  ( 2.00    -0.1314)
                     ( 2.00    -0.1314)  ( 2.00    -0.0969)  ( 2.00    -0.0969)  ( 2.00    -0.0963)
                     ( 2.00    -0.0402)  ( 2.00    -0.0402)  ( 0.00     0.0866)

 CYCLE   13
  SDIIS (wt  1.000):  0.0000  0.0000 -0.0001  0.0002  0.0004  0.0023  0.0021  0.0071  0.4369  0.5510
  DIIS coefficients:  0.0000  0.0000 -0.0001  0.0002  0.0004  0.0023  0.0021  0.0071  0.4369  0.5510
 SCF Error: norm([F,P])=      0.000185387934, max([F,P])=      0.000054525767
 orbitals (Q,E):
 ---------------
 A :9...19           ( 2.00    -0.7887)  ( 2.00    -0.5188)  ( 2.00    -0.2150)  ( 2.00    -0.1314)
                     ( 2.00    -0.1314)  ( 2.00    -0.0969)  ( 2.00    -0.0969)  ( 2.00    -0.0963)
                     ( 2.00    -0.0402)  ( 2.00    -0.0402)  ( 0.00     0.0866)

 CYCLE   14
  SDIIS (wt  1.000):  0.0000 -0.0000 -0.0000  0.0001  0.0002  0.0004  0.0003  0.1249  0.1246  0.7496
  DIIS coefficients:  0.0000 -0.0000 -0.0000  0.0001  0.0002  0.0004  0.0003  0.1249  0.1246  0.7496
 SCF Error: norm([F,P])=      0.000020107081, max([F,P])=      0.000006266110
 orbitals (Q,E):
 ---------------
 A :9...19           ( 2.00    -0.7887)  ( 2.00    -0.5188)  ( 2.00    -0.2150)  ( 2.00    -0.1314)
                     ( 2.00    -0.1314)  ( 2.00    -0.0969)  ( 2.00    -0.0969)  ( 2.00    -0.0963)
                     ( 2.00    -0.0402)  ( 2.00    -0.0402)  ( 0.00     0.0866)

 CYCLE   15
  SDIIS (wt  1.000): -0.0000 -0.0000  0.0000  0.0000  0.0001 -0.0003  0.0222  0.0192  0.1584  0.8004
  DIIS coefficients: -0.0000 -0.0000  0.0000  0.0000  0.0001 -0.0003  0.0222  0.0192  0.1584  0.8004
 SCF Error: norm([F,P])=      0.000003078713, max([F,P])=      0.000001090135
 orbitals (Q,E):
 ---------------
 A :9...19           ( 2.00    -0.7887)  ( 2.00    -0.5188)  ( 2.00    -0.2150)  ( 2.00    -0.1314)
                     ( 2.00    -0.1314)  ( 2.00    -0.0969)  ( 2.00    -0.0969)  ( 2.00    -0.0963)
                     ( 2.00    -0.0402)  ( 2.00    -0.0402)  ( 0.00     0.0866)

 CYCLE   16
  SDIIS (wt  1.000): -0.0000 -0.0000  0.0000  0.0000 -0.0001  0.0019  0.0015  0.0167  0.1280  0.8520
  DIIS coefficients: -0.0000 -0.0000  0.0000  0.0000 -0.0001  0.0019  0.0015  0.0167  0.1280  0.8520
 SCF Error: norm([F,P])=      0.000000156582, max([F,P])=      0.000000046130
 orbitals (Q,E):
 ---------------
 A :9...19           ( 2.00    -0.7887)  ( 2.00    -0.5188)  ( 2.00    -0.2150)  ( 2.00    -0.1314)
                     ( 2.00    -0.1314)  ( 2.00    -0.0969)  ( 2.00    -0.0969)  ( 2.00    -0.0963)
                     ( 2.00    -0.0402)  ( 2.00    -0.0402)  ( 0.00     0.0866)

 SCF CONVERGED

 CYCLE   17
1
 ***************************************************************************************************



                                                *******************
                                                *  R E S U L T S  *
                                                *******************
  
 *** Setting up for NEW gradients in Focky
 *** Using FIT density in Focky

 Orbital Energies, per Irrep and Spin:
 ======================================
                        Occup              E (au)              E (eV)       Diff (eV) with prev. cycle
                        -----      --------------------        ------       --------------------------
 A
               9        2.000     -0.78868411380232E+00       -21.461              -5.39E-08
              10        2.000     -0.51882691672297E+00       -14.118              -6.94E-08
              11        2.000     -0.21496298239165E+00        -5.849              -5.64E-08
              12        2.000     -0.13139142873920E+00        -3.575              -5.21E-08
              13        2.000     -0.13138783053385E+00        -3.575              -5.11E-08
              14        2.000     -0.96894285364549E-01        -2.637              -5.21E-08
              15        2.000     -0.96893149568378E-01        -2.637              -5.31E-08
              16        2.000     -0.96261133968788E-01        -2.619              -5.81E-08
              17        2.000     -0.40247409142596E-01        -1.095              -6.10E-08
              18        2.000     -0.40245793802917E-01        -1.095              -5.90E-08
              19        0.000      0.86558171746387E-01         2.355
              20        0.000      0.21624064285631E+00         5.884
              21        0.000      0.23350705847905E+00         6.354
              22        0.000      0.43967672391246E+00        11.964
              23        0.000      0.43968479455500E+00        11.964
              24        0.000      0.49205854144801E+00        13.390
              25        0.000      0.55482245568039E+00        15.097
              26        0.000      0.55483056822749E+00        15.098
              27        0.000      0.60127731704019E+00        16.362
              28        0.000      0.61319575021431E+00        16.686
  
 HOMO :       18 A                -0.40245793802917E-01
 LUMO :       19 A                 0.86558171746387E-01
  


 All Electron Calculation, thus no Orbital Energies of the Core Orbitals are calculated


 Fit test: (difference of exact and fit density, squared integrated, result summed over spins)
         Sum-of-Fragments:                             0.00009708988466
         Orthogonalized Fragments:                     0.00010045445695
         SCF:                                          0.00010304926721



 ==========================
 Electron Density at Nuclei
 ==========================
  
 The electron density is calculated at points on a small sphere around the center of a nucleus.
 The printed electron density is the average electron density on these points.
 The radius of the sphere is the printed approximate finite nuclear radius.

         Atom        Nuclear Radius (Angstrom)             Electron Density (a.u.)
         ----        -------------------------             -----------------------
     1)   Cl                0.0000426624                             3212.16208
     2)   F                 0.0000361580                              447.48377
     3)   F                 0.0000361580                              447.48377



 =======================================
 M U L L I K E N   P O P U L A T I O N S
 =======================================
  
 The survey below gives for each atom:
 a) the total charge (Z minus electrons)
 b) the net spin polarization (nr of electrons spin-A minus spin-B)
 c) for each spin the atomic electron valence density (integrated) per L-value.

 Atom              Charge    Spin density          S         P         D         F
 ----              ------    ------------       ------    ------    ------    ------
 1 Cl              0.0596                       5.9989   10.7921    0.1269    0.0225
 2 F              -0.5298                       3.9848    5.5313    0.0125    0.0011
 3 F              -0.5298                       3.9848    5.5313    0.0125    0.0011

 Populations of individual BAS functions
 ----------------------------------------
 1 Cl           0.5054  1.4528  1.7142  0.2450  0.7267  0.7179  0.7314  1.2723  1.2837  1.2662
                0.6522  1.0735  0.3559  0.2678  0.1706  0.3195  1.0228  0.7593  1.1632  0.3978
                0.1778  0.5151  0.0085  0.0512  0.0062  0.0351  0.0178  0.0080 -0.0027  0.0036
                0.0006  0.0121  0.0035 -0.0032  0.0119  0.0079 -0.0063 -0.0047
 2 F            0.5758  1.4010  1.0867  0.9087  0.0126  0.3870  0.3414  0.4113  0.9235  0.8530
                0.9610  0.5643  0.4811  0.6087  0.0000  0.0042  0.0008  0.0096  0.0024 -0.0046
               -0.0008 -0.0014  0.0004  0.0032  0.0001 -0.0019  0.0049  0.0036 -0.0031 -0.0039
 3 F            0.5758  1.4010  1.0867  0.9087  0.0126  0.3870  0.3414  0.4113  0.9235  0.8530
                0.9611  0.5643  0.4811  0.6087  0.0000  0.0042  0.0008  0.0096  0.0024 -0.0046
               -0.0008 -0.0014  0.0004  0.0032  0.0001 -0.0019  0.0049  0.0036 -0.0031 -0.0039

 Gross Charges per Atom (Z minus electrons)
 ==========================================
             0.0596   -0.5298   -0.5298
 Net Total: -1.00000000


 Atom-Atom Population Matrix (off-diagonal elements not doubled)
 ===============================================================

     1 :    16.9249
     2 :     0.0078    9.5177
     3 :     0.0078    0.0043    9.5177


 Frag-Frag Population Matrix (off-diagonal elements not doubled)
 ===============================================================

     1 :    26.4581
     2 :     0.0121    9.5177



 =================================================
 H I R S H F E L D   C H A R G E   A N A L Y S I S
 =================================================
  
 For each fragment: the (numerical) integral of rho(scf) * rho(fragment)/rho(sum-of-fragments)
 (nuclear charges are included, electrons are counted negative)

 The fragments and their ordering are defined in the early G E O M E T R Y output section.
 If you use single-atom fragments, this usually implies that all atoms of the same
 chemical type are grouped together. This may not be the order in which you listed them
 in the input file!

    1  ClF                      -0.3708
    2  F                        -0.6292

 Sum of these charges (accuracy NumInt/Tails) =          -1.00000092



 =============================
 V O R O N O I   C H A R G E S
 =============================
  
 For each atom: the (numerical) integral of the total electronic charge density in its Voronoi cell,
 i.e. the region of space that is closer to that atom than to any other atom.
 (cf. Wigner-Seitz cells in crystals)

 Within the Voronoi cell the subintegrals over the atomic sphere and the remaining part are evaluated
 separately to give the numbers of electrons (negative charge) in these regions.
 The net total charge in the cell (including the nuclear charge) is also given.

 Values are provided for
    a) the Initial (sum-of-fragments) density
    b) the Orthogonalized-Fragments density
    c) the SCF density
    d) the Voronoi Deformation Density (VDD): the difference SCF-Initial for the complete atomic cell
 ---------------------------------------------------------------------------------------------------
 Total NetCharge:              -1.000                     -1.000                     -1.000   -0.000
 (accuracy NumInt/Tails)

 Remark: the 'NetTotal' Voronoi charges often do not match the Mulliken and/or Hirshfeld charges very
 well. This is caused by the fact that chemically different atoms are not treated in accordance with
 their relative sizes. (Voronoi cells are defined by boundary planes halfway between the atoms.)
 However, the CHANGES in charge, comparing 'Initial' to 'SCF' for instance, do give a fair indication
 of the flow of charge caused by the relaxation from sum-of-fragments to self-consistency.

 Warning: the absolute accuracy of the VDD charges obtained using the Fuzzy Cells (Becke) integration
 scheme is much poorer than the one obtained with an 'equivalent' Voronoi integration grid. 



 =================================================================
 M U L T I P O L E   D E R I V E D   C H A R G E   A N A L Y S I S
 =================================================================

 This charge analysis uses the atomic multipoles (obtained from the fitted density) up to some level X,
 and reconstructs these multipoles exactly (up to level X) by distributing charges over all atoms.
 This is achieved by using Lagrange multipliers and a weight function to keep the multipoles local.

 Dummy atoms can be included (by setting INCDUM in MDC-block to 1) to obtain a fractional charge.
 This is generally useful and necessary only for small symmetrical molecules, when there are not
 enough degrees of freedom to reconstruct the multipoles.

 Since the atomic multipoles are reconstructed up to level X,
 the molecular multipoles are represented also up to level X.
 The recommended level is to reconstruct up to quadrupole : -> MDC-q charges.

 See: M. Swart, P.Th. van Duijnen, J.G. Snijders, J.Comput.Chem., (2001), p. 79-88.

 ------------------------------------------------------------- 
 Atomic electronic multipole moments from SCF equations (a.u.)
 ------------------------------------------------------------- 

   atom        charge        dip-x     dip-y     dip-z      quad-xx   quad-xy   quad-xz   quad-yy   quad-yz   quad-zz
 --------------------------------------------------------------------------------------------------------------------
    1 Cl     0.476025    -0.000007  0.000012 -0.000001    -0.355742 -1.385140  0.078286  1.928986 -0.132364 -1.573244
    2 F     -0.738014     0.145469 -0.246020  0.013849    -0.014512 -0.057002  0.003306  0.079195 -0.005607 -0.064684
    3 F     -0.738011    -0.145471  0.246023 -0.013850    -0.014512 -0.057004  0.003306  0.079199 -0.005607 -0.064687

 --------------------------------------- 
 Multipole derived atomic charges (a.u.)
 --------------------------------------- 

 The MDC-m charges are just the Monopole terms in the multipole expansion, while for the MDC-d charges
 also the Dipoles are reconstructed. The usually preferred charges are the MDC-q charges.
 These reconstruct the Monopoles, Dipoles and Quadrupoles (both atomic AND molecular).

        Atom    Level:     MDC-m        MDC-d        MDC-q
 ---------------------------------------------------------
     1     Cl           0.476025     0.297171     0.033271
     2     F           -0.738014    -0.648590    -0.516640
     3     F           -0.738011    -0.648581    -0.516630

 ------------------------------------------------ 
 Average absolute deviations in atomic multipoles
 ------------------------------------------------ 

 Stated here are the average differences between the atomic multipoles
 and the reconstructed atomic multipoles (from the distributed charges).
 If these values are not zero, this means there are not enough degrees of freedom,
 to be able to reconstruct the atomic multipoles. (This usually happens only
 for small and/or highly symmetric molecules). If this is the case, one could add
 dummy atoms as extra point charges (and setting INCDUM in MDC-block to 1).

 Level:                                 MDC-d        MDC-q
 ---------------------------------------------------------
 Charge   (a.u.)                       0.0000       0.0000
 Dipole   (Debye)                      0.0000       0.0000
 Quad.    (a.u.)                       0.4764       0.1390

 --------------------------------------- 
 Represented molecular multipole moments
 --------------------------------------- 

 Given here are the Molecular multipole moments from the atomic charges, and from the Fit Density.
 Note that the atomic charges represent the latter, NOT the ones from the Exact density.

            Q (a.u.)             Dipole moment (Debye)                                          Quadrupole moment (a.u.)
                                 x         y         z              xx        xy        xz        yy        yz        zz
------------------------------------------------------------------------------------------------------------------------
MDC-m        -1.0000       23.6564  -14.8881    0.2197        -67.2394   94.7673   -1.9408   -3.0576    2.0009   70.2970
MDC-d        -1.0000       23.6563  -14.8881    0.2197        -67.5089   93.1926   -1.8518   -1.5958    1.8505   69.1047
MDC-q        -1.0000       23.6563  -14.8881    0.2197        -67.9067   90.8695   -1.7205    0.5610    1.6285   67.3457
 
Fit.Dens.    -1.0000       23.6563  -14.8881    0.2197        -68.0951   90.5181   -1.7008    1.5830    1.5951   66.5121



 =============
 Dipole Moment  ***  (Debye)  ***
 =============
  
 Vector   :        23.65633579    -14.88810844      0.21966434
 Magnitude:        27.95221365

 This molecular dipole moment is calculated with analytic integration
 ************************************************************************************
 Since the molecule is NOT NEUTRAL, the dipole moment depends on the choice of origin
 ************************************************************************************



 =========================================
 Quadrupole Moment (Buckingham convention)  ***  (a.u.)  ***
 =========================================
  
      quad-xx        quad-xy        quad-xz        quad-yy        quad-yz        quad-zz
    -68.09582342    89.76417248    -1.65790813     1.58709300     1.52274693    66.50873042

 This molecular quadrupole moment is calculated with analytic integration
1



                                             *************************
                                             *  SFO MO coefficients  *
                                             *************************
  


                                       === A ===
 MOs expanded in CFs+SFOs
 ========================

 The SFOs have been characterized in an earlier part of output.
 To deduce the bonding / antibonding nature of SFO combinations in an MO, consider the products
 of the coefficients AND THE OVERLAP between the SFOs (may be NEGATIVE). The SFO overlap matrix
 is printed later, in the SFO Populations section.

 (The CF coefficients are not printed)

 MOs :      1        2        3        4        5        6        7        8        9       10
 occup:   2.00     2.00     2.00     2.00     2.00     2.00     2.00     2.00     2.00     2.00
 CF+SFO
     1   1.0000   0.0000   0.0000  -0.0001  -0.0000   0.0000  -0.0000   0.0005   0.0005  -0.0001
     2   0.0000  -0.0391  -0.9992   0.0000   0.0000  -0.0000   0.0000  -0.0000   0.0001   0.0000
     3   0.0001  -0.0000  -0.0000   1.0000   0.0054   0.0000  -0.0000  -0.0050  -0.0050  -0.0003
     4  -0.0000  -0.0000  -0.0000   0.0055  -1.0000  -0.0000  -0.0001  -0.0034  -0.0033   0.0000
     5   0.0000  -0.0000  -0.0000   0.0000   0.0000  -1.0000   0.0009  -0.0000  -0.0000   0.0000
     6  -0.0000  -0.0000  -0.0000  -0.0000   0.0001  -0.0009  -1.0000  -0.0000  -0.0000   0.0000
     7  -0.0000  -0.0000  -0.0001  -0.0001  -0.0001  -0.0000  -0.0000   0.7104  -0.7033   0.0080
     8  -0.0000  -0.0001  -0.0001  -0.0006  -0.0006  -0.0000  -0.0000   0.0942   0.0867  -0.9776
     9  -0.0000  -0.0001  -0.0000  -0.0000  -0.0002  -0.0000  -0.0000   0.0398   0.0255  -0.0064
    10  -0.0000   0.0000   0.0000  -0.0000   0.0000  -0.0001  -0.0000  -0.0000  -0.0000   0.0000
    11   0.0000  -0.0000   0.0000   0.0000  -0.0000  -0.0000   0.0001   0.0000   0.0000  -0.0000
    12  -0.0000   0.0000   0.0000  -0.0000  -0.0000   0.0001  -0.0000   0.0000   0.0000  -0.0000
    13   0.0000   0.0000  -0.0000   0.0000  -0.0000   0.0000   0.0001   0.0000   0.0000  -0.0000
    14  -0.0000   0.0001   0.0002  -0.0002   0.0003   0.0000   0.0000  -0.0182  -0.0364  -0.0029
    15   0.0000   0.0001   0.0001   0.0001   0.0003  -0.0000   0.0000  -0.0045   0.0070   0.0017
    16  -0.0000  -0.0002  -0.0001  -0.0003  -0.0008   0.0000  -0.0000  -0.0070  -0.0011  -0.0010
    17   0.0000   0.0000  -0.0000   0.0000   0.0000  -0.0002   0.0001  -0.0000  -0.0000  -0.0000
    18  -0.0000  -0.0000  -0.0000  -0.0000  -0.0000  -0.0001  -0.0002  -0.0000   0.0000   0.0000
    19   0.0000   0.0001   0.0000   0.0001   0.0003   0.0000   0.0000  -0.0066  -0.0095  -0.0132
    20  -0.0000  -0.0000   0.0000  -0.0000   0.0000   0.0003   0.0001  -0.0000  -0.0000   0.0000
    21   0.0000  -0.0000   0.0000  -0.0000   0.0000  -0.0001   0.0003  -0.0000   0.0000   0.0000
    22  -0.0000   0.0000  -0.0000   0.0000  -0.0000  -0.0000   0.0000   0.0000   0.0000  -0.0000
    23   0.0000  -0.0000   0.0000  -0.0000   0.0000  -0.0000  -0.0000   0.0000   0.0000   0.0000
    24   0.0000  -0.0001   0.0000   0.0003  -0.0005  -0.0000   0.0000   0.0117   0.0074   0.0005
    25  -0.0000  -0.0000   0.0000  -0.0000   0.0000  -0.0000   0.0001  -0.0000   0.0000   0.0000
    26   0.0000  -0.0000  -0.0000  -0.0000   0.0000   0.0001   0.0000   0.0000  -0.0000   0.0000
    27  -0.0000   0.0000   0.0000  -0.0002   0.0002   0.0000  -0.0000  -0.0027   0.0001  -0.0016
    28  -0.0000  -0.0000  -0.0000  -0.0000   0.0000   0.0000  -0.0000  -0.0000  -0.0000  -0.0000
    29  -0.0000   0.0000  -0.0000   0.0000  -0.0000   0.0000   0.0000   0.0000  -0.0000   0.0000
    30   0.0000  -0.0000   0.0000   0.0000  -0.0000  -0.0001  -0.0000   0.0000   0.0000  -0.0000
    31  -0.0000   0.0000   0.0000  -0.0000  -0.0000   0.0000  -0.0001  -0.0000   0.0000   0.0000
    32  -0.0000  -0.0000  -0.0000  -0.0000  -0.0000   0.0000   0.0000   0.0000   0.0000  -0.0000
    33  -0.0000  -0.0000  -0.0000  -0.0000  -0.0000  -0.0000   0.0000   0.0000   0.0000  -0.0000
    34   0.0000  -0.0001  -0.0001   0.0001  -0.0002  -0.0000  -0.0000   0.0023   0.0038  -0.0005
    35  -0.0000   0.0000   0.0000  -0.0000   0.0000   0.0000   0.0000  -0.0000  -0.0000   0.0000
    36   0.0000   0.0000  -0.0000   0.0000   0.0000   0.0000   0.0000   0.0000   0.0000   0.0000
    37  -0.0000  -0.0000   0.0000  -0.0001  -0.0002  -0.0000  -0.0000   0.0039  -0.0049   0.0028
    38   0.0000   0.0000   0.0000   0.0000  -0.0000  -0.0000   0.0001  -0.0000  -0.0000   0.0000
    39   0.0000  -0.0000  -0.0000   0.0000  -0.0000   0.0001   0.0000   0.0000   0.0000  -0.0000
    40  -0.0000  -0.0000  -0.0001   0.0001  -0.0005  -0.0000   0.0000  -0.0031   0.0030   0.0004
    41   0.0000  -0.0000   0.0000   0.0000  -0.0000   0.0005  -0.0000   0.0000  -0.0000  -0.0000
    42  -0.0000   0.0000  -0.0000  -0.0000   0.0000   0.0000   0.0005  -0.0000   0.0000   0.0000
    43  -0.0000   0.0000  -0.0000  -0.0009   0.0002   0.0000  -0.0000  -0.0005   0.0007   0.0010
    44  -0.0000  -0.0000   0.0000  -0.0002  -0.0004  -0.0000  -0.0000  -0.0001  -0.0007   0.0017
    45   0.0000  -0.0000   0.0000   0.0000   0.0000  -0.0000  -0.0000  -0.0000   0.0000  -0.0000
    46  -0.0000   0.0000  -0.0000  -0.0000  -0.0000   0.0000   0.0000   0.0000  -0.0000   0.0000
    47   0.0000  -0.0000   0.0000   0.0000  -0.0000  -0.0000   0.0000   0.0000  -0.0000  -0.0000
    48  -0.0000   0.0000  -0.0000  -0.0000  -0.0000  -0.0000  -0.0000  -0.0000   0.0000   0.0000
    49  -0.0000  -0.0000  -0.0000   0.0000  -0.0000  -0.0000  -0.0000   0.0000  -0.0000   0.0000
    50   0.0000  -0.0000   0.0000   0.0000  -0.0000  -0.0000   0.0000  -0.0000   0.0000   0.0000
    51   0.0000   0.0000  -0.0000   0.0000   0.0001   0.0000   0.0000   0.0002  -0.0002  -0.0006
    52  -0.0000  -0.0000  -0.0000  -0.0000  -0.0000  -0.0000  -0.0000   0.0000  -0.0000  -0.0000
    53  -0.0000  -0.0000  -0.0000  -0.0000   0.0000   0.0000  -0.0000  -0.0000  -0.0000   0.0000
    54  -0.0000  -0.0000   0.0001  -0.0001  -0.0000  -0.0000  -0.0000  -0.0001   0.0003  -0.0001
    55   0.0001   0.0000   0.0000   0.0003   0.0001   0.0000   0.0000   0.0001   0.0001  -0.0002
    56   0.0000  -0.0000   0.0000   0.0000  -0.0000  -0.0005  -0.0001  -0.0000  -0.0000   0.0000
    57   0.0000   0.0000  -0.0000  -0.0000   0.0000   0.0001  -0.0005   0.0000   0.0000  -0.0000
    58  -0.0000   0.0000  -0.0000  -0.0002   0.0005   0.0000  -0.0000   0.0001   0.0000  -0.0001
    59  -0.0000   0.0000   0.0002  -0.0000   0.0000   0.0000   0.0000   0.0001  -0.0001   0.0000
    60   0.0001  -0.0000  -0.0000  -0.0000  -0.0000   0.0000  -0.0000  -0.0000  -0.0000   0.0000
    61  -0.0000   0.9992  -0.0392  -0.0000  -0.0001   0.0000  -0.0000   0.0012   0.0012  -0.0053
    62   0.0000   0.0003   0.0001   0.0002   0.0008  -0.0000   0.0000   0.6721   0.6881   0.2323
    63  -0.0000   0.0000  -0.0000   0.0001  -0.0004   0.0001  -0.0001  -0.0180  -0.0149   0.0518
    64   0.0000  -0.0000   0.0000  -0.0000   0.0000   0.0001   0.0001   0.0011   0.0009  -0.0033
    65  -0.0000   0.0000  -0.0001   0.0002  -0.0006  -0.0000   0.0000  -0.0282  -0.0234   0.0810
    66  -0.0000  -0.0001  -0.0001  -0.0006  -0.0004   0.0000  -0.0000   0.0146   0.0152  -0.0022
    67  -0.0000  -0.0002  -0.0001   0.0001  -0.0004   0.0000  -0.0000   0.0049   0.0050  -0.0125
    68   0.0000   0.0001   0.0000  -0.0000   0.0003   0.0000  -0.0000  -0.0031  -0.0031   0.0078
    69   0.0000   0.0000   0.0000  -0.0000   0.0000   0.0000   0.0000  -0.0006  -0.0006   0.0014
    70   0.0000  -0.0000  -0.0000   0.0002  -0.0001  -0.0000  -0.0000  -0.0024  -0.0020   0.0021
    71  -0.0000   0.0000   0.0000  -0.0003   0.0002   0.0001  -0.0001   0.0045   0.0038  -0.0039
    72   0.0000  -0.0000  -0.0000   0.0002  -0.0001   0.0002   0.0000  -0.0025  -0.0022   0.0022
    73   0.0000  -0.0000  -0.0000   0.0003  -0.0002   0.0000  -0.0001  -0.0045  -0.0039   0.0039
    74  -0.0000   0.0000   0.0000  -0.0001   0.0000  -0.0001  -0.0001   0.0008   0.0007  -0.0007
    75   0.0000  -0.0001   0.0001  -0.0002   0.0004   0.0000   0.0000  -0.0041  -0.0051   0.0041
    76   0.0000  -0.0000  -0.0000   0.0002   0.0000   0.0000   0.0000  -0.0014  -0.0011   0.0016
    77  -0.0000   0.0000   0.0000  -0.0000  -0.0000  -0.0001   0.0001   0.0000   0.0000  -0.0000
    78  -0.0000   0.0000   0.0000  -0.0000  -0.0000   0.0000   0.0000   0.0001   0.0001  -0.0001
    79   0.0000  -0.0000  -0.0000   0.0000   0.0000  -0.0000  -0.0000  -0.0002  -0.0001   0.0002
    80   0.0000  -0.0000  -0.0000   0.0000   0.0000  -0.0001  -0.0000  -0.0000  -0.0000   0.0000
    81  -0.0000   0.0000   0.0000  -0.0000  -0.0000   0.0000   0.0000   0.0000   0.0000  -0.0000
    82  -0.0000   0.0000   0.0000  -0.0000  -0.0000   0.0000  -0.0000   0.0001   0.0001  -0.0001
    83   0.0000  -0.0001  -0.0000   0.0001  -0.0001   0.0000  -0.0000  -0.0004  -0.0002  -0.0004
    84   0.0000  -0.0002  -0.0000   0.0001  -0.0001  -0.0000   0.0000  -0.0005  -0.0003  -0.0005
    85  -0.0000   0.0000   0.0000  -0.0000   0.0000   0.0000   0.0000   0.0000   0.0000   0.0000
    86   0.0000  -0.0002   0.0000   0.0000  -0.0000  -0.0000  -0.0000   0.0002   0.0002  -0.0003

 MOs :     11       12       13       14       15       16       17       18       19       20
 occup:   2.00     2.00     2.00     2.00     2.00     2.00     2.00     2.00     0.00     0.00
 CF+SFO
     1   0.0014  -0.0000  -0.0000  -0.0000  -0.0000  -0.0021  -0.0000  -0.0000   0.0001  -0.0086
     2   0.0001  -0.0000  -0.0000   0.0000   0.0000   0.0000  -0.0000  -0.0000  -0.0004  -0.0029
     3  -0.0120   0.0000  -0.0000   0.0000   0.0000   0.0186   0.0000   0.0000  -0.0015   0.0695
     4  -0.0056   0.0000   0.0000   0.0000   0.0000   0.0093   0.0000  -0.0000  -0.0050   0.0137
     5  -0.0000  -0.0015   0.0005  -0.0022  -0.0012   0.0000   0.0020  -0.0000  -0.0000   0.0000
     6  -0.0000  -0.0005  -0.0015  -0.0012   0.0022   0.0000   0.0000   0.0020  -0.0000   0.0000
     7  -0.0151   0.0000   0.0000  -0.0000   0.0000  -0.0001  -0.0000   0.0000  -0.0062   0.0736
     8  -0.1440  -0.0000  -0.0000   0.0002   0.0001   0.1793  -0.0000  -0.0000  -0.0761   0.3147
     9   0.7791  -0.0000  -0.0000   0.0006   0.0004   0.6249   0.0000  -0.0000  -0.1513   0.1636
    10  -0.0000  -0.7709   0.0536   0.6144   0.1599  -0.0007   0.0408   0.0095   0.0000  -0.0000
    11   0.0000   0.0536   0.7709  -0.1599   0.6144  -0.0002   0.0095  -0.0408  -0.0000   0.0000
    12   0.0000   0.2961  -0.1014   0.2717   0.1538  -0.0004   0.9012  -0.0289  -0.0000   0.0000
    13   0.0000   0.1014   0.2961   0.1538  -0.2717   0.0000   0.0289   0.9012  -0.0000   0.0000
    14  -0.1362   0.0000   0.0000   0.0004   0.0002   0.3824   0.0000   0.0000   0.8933  -0.1213
    15   0.0055  -0.0000   0.0000  -0.0000  -0.0000  -0.0348  -0.0000  -0.0000  -0.1484   0.5629
    16  -0.0341   0.0000  -0.0000   0.0000   0.0000   0.0298   0.0000  -0.0000   0.0571   0.2586
    17  -0.0000   0.0165  -0.0162  -0.0075  -0.0107   0.0000   0.0162  -0.0084  -0.0000   0.0000
    18  -0.0000   0.0162   0.0165  -0.0107   0.0075   0.0000   0.0084   0.0162   0.0000   0.0000
    19  -0.0262   0.0000   0.0000   0.0000   0.0000   0.0341   0.0000   0.0000  -0.0505   0.0399
    20  -0.0000  -0.0093  -0.0014  -0.0394  -0.0014   0.0000   0.0108   0.0052   0.0000   0.0000
    21   0.0000   0.0014  -0.0093  -0.0014   0.0394  -0.0000  -0.0052   0.0108  -0.0000  -0.0000
    22   0.0000   0.0000  -0.0000   0.0000   0.0000  -0.0000   0.0000  -0.0000   0.0000  -0.0000
    23   0.0000   0.0000   0.0000   0.0000   0.0000  -0.0000   0.0000   0.0000  -0.0000  -0.0000
    24   0.0043  -0.0000  -0.0000  -0.0000  -0.0000  -0.0480   0.0000  -0.0000   0.0458   0.0275
    25  -0.0000  -0.0001  -0.0179   0.0022  -0.0117   0.0000  -0.0066   0.0219   0.0000   0.0000
    26  -0.0000  -0.0179   0.0001   0.0117   0.0022  -0.0000   0.0219   0.0066   0.0000   0.0000
    27  -0.0108   0.0000   0.0000  -0.0000  -0.0000  -0.0105   0.0000   0.0000  -0.0180  -0.0352
    28  -0.0000   0.0000   0.0000   0.0000   0.0000   0.0000  -0.0000   0.0000   0.0000  -0.0000
    29  -0.0000  -0.0000  -0.0000   0.0000   0.0000  -0.0000  -0.0000   0.0000   0.0000  -0.0000
    30   0.0000   0.0017  -0.0005   0.0053   0.0026  -0.0000  -0.0064  -0.0002   0.0000   0.0000
    31   0.0000   0.0005   0.0017   0.0026  -0.0053   0.0000   0.0002  -0.0064  -0.0000  -0.0000
    32  -0.0000  -0.0000  -0.0000  -0.0000  -0.0000  -0.0000  -0.0000  -0.0000   0.0000   0.0000
    33   0.0000  -0.0000   0.0000  -0.0000   0.0000  -0.0000  -0.0000   0.0000  -0.0000   0.0000
    34   0.0016   0.0000  -0.0000  -0.0000   0.0000  -0.0014   0.0000  -0.0000   0.0202   0.0055
    35  -0.0000  -0.0000   0.0000   0.0000   0.0000   0.0000  -0.0000  -0.0000   0.0000   0.0000
    36   0.0000  -0.0000  -0.0000  -0.0000   0.0000  -0.0000   0.0000  -0.0000  -0.0000  -0.0000
    37   0.0002  -0.0000   0.0000   0.0000   0.0000   0.0007  -0.0000   0.0000  -0.0029   0.0139
    38  -0.0000   0.0001   0.0003   0.0002  -0.0005  -0.0000   0.0001  -0.0048   0.0000  -0.0000
    39   0.0000   0.0003  -0.0001   0.0005   0.0002  -0.0000  -0.0048  -0.0001  -0.0000  -0.0000
    40  -0.0005  -0.0000   0.0000   0.0000   0.0000   0.0017  -0.0000  -0.0000   0.0003   0.0010
    41  -0.0000  -0.0022   0.0008   0.0008   0.0005   0.0000  -0.0033   0.0002   0.0000   0.0000
    42   0.0000  -0.0008  -0.0022   0.0005  -0.0008  -0.0000  -0.0002  -0.0033  -0.0000  -0.0000
    43   0.0039  -0.0000   0.0000  -0.0000  -0.0000  -0.0040  -0.0000   0.0000  -0.0034  -0.0205
    44  -0.0009  -0.0000   0.0000   0.0000   0.0000   0.0022   0.0000   0.0000  -0.0001   0.0061
    45  -0.0000   0.0000   0.0000  -0.0000   0.0000   0.0000  -0.0000  -0.0000   0.0000   0.0000
    46   0.0000  -0.0000   0.0000  -0.0000   0.0000  -0.0000   0.0000  -0.0000  -0.0000  -0.0000
    47  -0.0000   0.0000  -0.0000   0.0000  -0.0000  -0.0000   0.0000   0.0000   0.0000   0.0000
    48   0.0000   0.0000  -0.0000  -0.0000   0.0000   0.0000   0.0000  -0.0000  -0.0000   0.0000
    49   0.0000   0.0009  -0.0003  -0.0010  -0.0005   0.0000  -0.0008   0.0000  -0.0000   0.0000
    50   0.0000  -0.0003  -0.0009   0.0005  -0.0010   0.0000   0.0000   0.0008  -0.0000  -0.0000
    51  -0.0011   0.0000   0.0000  -0.0000  -0.0000  -0.0018  -0.0000   0.0000  -0.0011  -0.0006
    52  -0.0000  -0.0016   0.0003   0.0024   0.0009  -0.0000   0.0019   0.0003   0.0000  -0.0000
    53   0.0000  -0.0003  -0.0016   0.0009  -0.0024   0.0000  -0.0003   0.0019  -0.0000  -0.0000
    54  -0.0010  -0.0000  -0.0000  -0.0000  -0.0000  -0.0015   0.0000  -0.0000  -0.0010   0.0006
    55   0.0003   0.0000   0.0000  -0.0000  -0.0000  -0.0004   0.0000   0.0000  -0.0000  -0.0014
    56  -0.0000  -0.0001   0.0000  -0.0000  -0.0000  -0.0000  -0.0001  -0.0000   0.0000  -0.0000
    57   0.0000  -0.0000  -0.0001  -0.0000   0.0000   0.0000   0.0000  -0.0001  -0.0000   0.0000
    58   0.0002   0.0000  -0.0000  -0.0000  -0.0000  -0.0002   0.0000  -0.0000  -0.0003  -0.0002
    59   0.0000  -0.0000   0.0000  -0.0000  -0.0000  -0.0000  -0.0000  -0.0000  -0.0001  -0.0003
    60  -0.0001  -0.0000  -0.0000   0.0000   0.0000   0.0001  -0.0000  -0.0000  -0.0000   0.0005
    61   0.0073   0.0000   0.0000   0.0000   0.0000   0.0015   0.0000   0.0000  -0.0099   0.0077
    62  -0.1585  -0.0000  -0.0000  -0.0000  -0.0000  -0.0096  -0.0000  -0.0000   0.1531  -0.1089
    63  -0.2686   0.1923  -0.3625   0.1760   0.5631   0.3761  -0.3101   0.3100  -0.2728   0.0866
    64   0.0169   0.4347   0.2187   0.6718  -0.1938  -0.0243  -0.3755  -0.3597   0.0172  -0.0055
    65  -0.4201  -0.1054   0.2405  -0.0847  -0.3673   0.5894   0.1832  -0.2126  -0.4268   0.1354
    66   0.0095   0.0000   0.0000  -0.0000  -0.0000  -0.0233   0.0000   0.0000   0.1634   0.7892
    67   0.0345  -0.0103   0.0142  -0.0074  -0.0157  -0.0353   0.0086  -0.0065   0.0342   0.0405
    68  -0.0217  -0.0112   0.0253  -0.0062  -0.0265   0.0222   0.0111  -0.0128  -0.0215  -0.0255
    69  -0.0039  -0.0289  -0.0149  -0.0306   0.0092   0.0040   0.0142   0.0139  -0.0039  -0.0046
    70  -0.0042  -0.0005  -0.0009  -0.0007   0.0008   0.0020  -0.0001  -0.0004   0.0055   0.0023
    71   0.0079   0.0027  -0.0058   0.0016   0.0061  -0.0038   0.0016  -0.0018  -0.0103  -0.0042
    72  -0.0045   0.0065  -0.0011   0.0061   0.0022   0.0021   0.0024   0.0003   0.0058   0.0024
    73  -0.0080  -0.0014  -0.0052  -0.0023   0.0047   0.0038   0.0001  -0.0020   0.0105   0.0043
    74   0.0014  -0.0046  -0.0033  -0.0050   0.0024  -0.0007  -0.0013  -0.0017  -0.0019  -0.0008
    75  -0.0062  -0.0000   0.0000  -0.0000  -0.0000  -0.0021  -0.0000  -0.0000  -0.0026  -0.0266
    76  -0.0034   0.0001   0.0001   0.0002  -0.0001   0.0031  -0.0000  -0.0001  -0.0004   0.0021
    77   0.0001  -0.0011   0.0022  -0.0008  -0.0029  -0.0001   0.0005  -0.0006   0.0000  -0.0001
    78   0.0002   0.0005   0.0004   0.0007  -0.0003  -0.0001  -0.0001  -0.0002   0.0000  -0.0001
    79  -0.0004  -0.0007  -0.0008  -0.0010   0.0008   0.0003   0.0001   0.0003  -0.0000   0.0002
    80  -0.0001  -0.0021  -0.0007  -0.0027   0.0004   0.0001   0.0006   0.0004  -0.0000   0.0001
    81   0.0000   0.0002   0.0002   0.0003  -0.0002  -0.0000  -0.0000  -0.0001   0.0000  -0.0000
    82   0.0003  -0.0001  -0.0005  -0.0002   0.0006  -0.0003  -0.0000   0.0002   0.0000  -0.0002
    83  -0.0003   0.0003  -0.0006   0.0005   0.0013   0.0021  -0.0010   0.0010  -0.0018   0.0014
    84  -0.0004  -0.0002   0.0005  -0.0002  -0.0011   0.0025   0.0008  -0.0009  -0.0022   0.0017
    85   0.0000   0.0008   0.0004   0.0017  -0.0005  -0.0002  -0.0013  -0.0013   0.0002  -0.0001
    86   0.0004   0.0000  -0.0000   0.0000   0.0000   0.0001  -0.0000   0.0000  -0.0005   0.0007

 MOs :     21       22       23       24       25       26       27       28       29       30
 occup:   0.00     0.00     0.00     0.00     0.00     0.00     0.00     0.00     0.00     0.00
 CF+SFO
     1  -0.0170  -0.0000  -0.0000   0.0047   0.0000   0.0000  -0.0143   0.0000  -0.0000  -0.0000
     2  -0.0050  -0.0000  -0.0000   0.0015   0.0000   0.0000  -0.0037   0.0000  -0.0000  -0.0000
     3   0.1385   0.0000   0.0000  -0.0387  -0.0000  -0.0000   0.1185  -0.0000   0.0000   0.0000
     4   0.0333   0.0000   0.0000  -0.0098   0.0000  -0.0000   0.0338  -0.0000   0.0000   0.0000
     5   0.0000   0.0001   0.0000  -0.0000  -0.0041   0.0020   0.0000  -0.0000  -0.0000  -0.0058
     6   0.0000   0.0000  -0.0001  -0.0000  -0.0020  -0.0041   0.0000   0.0000   0.0000  -0.0019
     7   0.1220   0.0000   0.0000  -0.0364  -0.0000  -0.0000   0.1062  -0.0000   0.0000   0.0000
     8   0.6652   0.0000   0.0000  -0.1835  -0.0000  -0.0000   0.6133  -0.0000   0.0000   0.0000
     9   0.3758   0.0000   0.0000  -0.1259  -0.0000  -0.0000   0.3996  -0.0000   0.0000   0.0000
    10  -0.0000   0.0197  -0.0000   0.0000   0.0173  -0.0037  -0.0000   0.0000   0.0000   0.0359
    11   0.0000   0.0000   0.0197  -0.0000  -0.0037  -0.0173   0.0000   0.0000  -0.0000  -0.0027
    12   0.0000  -0.0074  -0.0020   0.0000  -0.0703   0.0360   0.0000  -0.0000  -0.0000  -0.1138
    13   0.0000  -0.0020   0.0074  -0.0000  -0.0360  -0.0703   0.0000   0.0000  -0.0000  -0.0398
    14  -0.5339  -0.0000  -0.0000   0.1497   0.0000   0.0000  -0.5270   0.0000  -0.0000  -0.0000
    15  -1.0473  -0.0000  -0.0000   0.2512   0.0000   0.0000  -0.5408   0.0000  -0.0000  -0.0000
    16   0.4013   0.0000   0.0001  -0.5977   0.0000  -0.0000   1.5510  -0.0000   0.0000   0.0000
    17   0.0000   0.7558   0.6426  -0.0000  -0.0154   0.0201  -0.0000   0.0000  -0.0000  -0.1937
    18   0.0001   0.6426  -0.7558  -0.0000  -0.0202  -0.0154   0.0000  -0.0000   0.0000  -0.1920
    19  -0.0089  -0.0000  -0.0000  -0.9043  -0.0000  -0.0000  -0.3626  -0.0000  -0.0000  -0.0000
    20   0.0000   0.1002  -0.0225  -0.0000  -0.8721  -0.0065   0.0000   0.0000   0.0000   0.2800
    21  -0.0000  -0.0225  -0.1002   0.0000   0.0065  -0.8721  -0.0000  -0.0000  -0.0000  -0.0408
    22  -0.0000  -0.0000  -0.0000  -0.0000   0.0000  -0.0000   0.0000   0.9892  -0.1089  -0.0000
    23  -0.0000  -0.0000   0.0000  -0.0000   0.0000  -0.0000  -0.0000   0.1089   0.9892  -0.0000
    24  -0.0096  -0.0000  -0.0000  -0.0512  -0.0000   0.0000  -0.3943   0.0000  -0.0000  -0.0000
    25  -0.0000  -0.0011  -0.0161  -0.0000   0.0017   0.0116  -0.0000   0.0000  -0.0000   0.0071
    26   0.0000   0.0161  -0.0011  -0.0000   0.0116  -0.0017  -0.0000  -0.0000  -0.0000   0.7276
    27  -0.0083   0.0000   0.0000   0.0455  -0.0000  -0.0000  -0.0738   0.0000  -0.0000  -0.0000
    28   0.0000   0.0000  -0.0000   0.0000   0.0000   0.0000  -0.0000  -0.0017   0.0007  -0.0000
    29   0.0000  -0.0000   0.0000   0.0000  -0.0000  -0.0000  -0.0000  -0.0007  -0.0017  -0.0000
    30   0.0000  -0.0129  -0.0025  -0.0000  -0.0261   0.0112  -0.0000  -0.0000  -0.0000   0.0026
    31  -0.0000  -0.0025   0.0129   0.0000  -0.0112  -0.0261   0.0000   0.0000   0.0000   0.0007
    32   0.0000  -0.0000  -0.0000  -0.0000  -0.0000   0.0000   0.0000  -0.0000   0.0000  -0.0000
    33  -0.0000  -0.0000   0.0000  -0.0000  -0.0000  -0.0000   0.0000   0.0000   0.0000  -0.0000
    34   0.0226  -0.0000   0.0000  -0.0116  -0.0000  -0.0000  -0.0164  -0.0000  -0.0000   0.0000
    35  -0.0000   0.0000   0.0000   0.0000   0.0000  -0.0000  -0.0000  -0.0022  -0.0016   0.0000
    36   0.0000  -0.0000   0.0000   0.0000  -0.0000  -0.0000   0.0000   0.0016  -0.0022   0.0000
    37   0.0049  -0.0000   0.0000  -0.0075   0.0000  -0.0000   0.0021  -0.0000   0.0000   0.0000
    38  -0.0000  -0.0004   0.0021   0.0000  -0.0071  -0.0159  -0.0000   0.0000   0.0000   0.0031
    39   0.0000  -0.0021  -0.0004  -0.0000  -0.0159   0.0071   0.0000  -0.0000  -0.0000   0.0108
    40   0.0188   0.0000  -0.0000  -0.0137   0.0000  -0.0000   0.0413  -0.0000   0.0000   0.0000
    41   0.0001   0.0090   0.0027  -0.0000   0.0054  -0.0030   0.0001  -0.0000  -0.0000   0.0146
    42  -0.0001   0.0027  -0.0090   0.0000   0.0030   0.0054  -0.0001   0.0000  -0.0000   0.0056
    43  -0.0446   0.0000   0.0000   0.0082   0.0000  -0.0000  -0.0464   0.0000  -0.0000   0.0000
    44   0.0151   0.0000   0.0000  -0.0082   0.0000  -0.0000   0.0126  -0.0000   0.0000   0.0000
    45  -0.0000   0.0000  -0.0000  -0.0000  -0.0000  -0.0000   0.0000  -0.0000  -0.0000  -0.0000
    46   0.0000  -0.0000  -0.0000   0.0000   0.0000  -0.0000   0.0000   0.0000   0.0000   0.0000
    47   0.0000   0.0000   0.0000   0.0000  -0.0000   0.0000  -0.0000  -0.0001   0.0000   0.0000
    48  -0.0000   0.0000   0.0000   0.0000  -0.0000  -0.0000   0.0000  -0.0000  -0.0001  -0.0000
    49  -0.0000  -0.0010  -0.0002  -0.0000  -0.0027   0.0013  -0.0000  -0.0000  -0.0000  -0.0007
[...]

 column          73                    74                    75                    76
 row
   73    1.00000000000000E+00
   74    2.19595832674519E-16  1.00000000000000E+00
   75   -4.67131894147169E-16 -2.72119498700811E-16  1.00000000000000E+00
   76   -7.76358212201296E-16 -1.35677313974720E-15 -6.92364731085665E-17  1.00000000000000E+00
   77   -9.24595913053054E-16  3.14665996728619E-16 -2.75474172688412E-17 -1.81650450703421E-17
   78    1.52297635647066E-15 -1.58840781199638E-15  1.47896928909166E-16 -2.49495566317004E-16
   79   -3.13064859612847E-16 -2.02428962992957E-16  2.17868308978594E-16  5.75364070081429E-17
   80   -3.36899943232109E-16 -1.00423326253963E-16 -4.59955831018030E-17 -3.13027193116474E-16
   81   -4.59092386807423E-17  4.70599974596750E-16  4.21387932770259E-16 -1.17391487300056E-17
   82    2.18894807031548E-16  2.43860759044733E-16 -2.88359449640281E-16 -2.15272364753496E-16
   83    2.54660455592005E-16 -6.16120966162701E-16  2.60064525795488E-17  9.13245936257643E-16
   84   -9.05201240841095E-16 -1.73186050461509E-16  5.33757811712297E-16 -6.09987812349869E-16
   85   -1.07406212931569E-16  2.92010227817396E-16 -1.37977537822108E-16 -1.28954307593244E-16
   86   -1.07552855510562E-16  1.05276030948342E-16 -5.21284404531031E-16 -2.86663054405167E-16

 column          77                    78                    79                    80
 row
   77    1.00000000000000E+00
   78   -8.20701554969084E-17  1.00000000000000E+00
   79   -7.01888594182303E-16  1.03831557870121E-15  1.00000000000000E+00
   80    2.17171848545423E-16 -1.06362567424517E-15  8.42260588267180E-16  1.00000000000000E+00
   81   -5.69964168868233E-18  2.23512937366277E-16  1.32751073222308E-16 -3.48315386823511E-16
   82    3.97850879016977E-17 -7.64940525709663E-16  1.65174733437039E-17 -8.10835732098494E-16
   83   -4.27010947755717E-16 -6.74090259946450E-16 -3.26798281242714E-16  5.04412315550003E-16
   84   -3.38562060102639E-16  6.32818182544790E-16  3.37866407824927E-16  7.77944704911503E-17
   85   -2.36711815859158E-16 -5.92039303311559E-17  1.41845983614332E-16  3.52597749244764E-16
   86   -3.46944695195361E-18  3.69170839731314E-17 -1.79218619111854E-16 -1.65747407118721E-17

 column          81                    82                    83                    84
 row
   81    1.00000000000000E+00
   82    4.29106596602730E-16  1.00000000000000E+00
   83   -2.93223542957334E-16  3.55611377492990E-16  1.00000000000000E+00
   84   -3.84524767738177E-17 -3.89511541866238E-16  8.05679528219925E-16  1.00000000000000E+00
   85    2.41113782393132E-16  9.06647589303201E-17  1.18653549186108E-15 -1.27198432116388E-15
   86    7.31565415884594E-17 -2.02312125385795E-16 -2.50017020975157E-16 -2.63894808782972E-16

 column          85                    86
 row
   85    1.00000000000000E+00
   86    2.25649577148546E-17  1.00000000000000E+00


 SFO contributions (%) per orbital
 (multiplication by the orbital occupation yields the SFO Gross Populations)

 Orb.:        9     10     11     12     13     14     15     16     17     18     19     20     21     22
 occup:     2.00   2.00   2.00   2.00   2.00   2.00   2.00   2.00   2.00   2.00   0.00   0.00   0.00   0.00
 CF+SFO     ----   ----   ----   ----   ----   ----   ----   ----   ----   ----   ----   ----   ----   ----
 ------
      7:   49.16   0.01   0.01   0.00   0.00   0.00  -0.00   0.00   0.00  -0.00   0.01   0.04  -0.05   0.00
      8:    1.36  94.58   1.14   0.00   0.00   0.00   0.00   1.16   0.00   0.00   0.25   0.05   0.35   0.00
      9:    0.28  -0.01  64.54   0.00   0.00   0.00   0.00  32.90  -0.00   0.00   1.31   0.16  -0.04   0.00
     10:    0.00   0.00   0.00  61.05   0.30  35.88   2.43   0.00   0.26   0.01   0.00  -0.00  -0.00   0.05
     11:    0.00   0.00   0.00   0.30  61.05   2.43  35.88   0.00   0.01   0.26   0.00  -0.00  -0.00   0.00
     12:    0.00   0.00   0.00  10.03   1.18   8.97   2.88   0.00  76.80   0.08   0.00   0.00  -0.00   0.01
     13:    0.00   0.00   0.00   1.18  10.03   2.88   8.97   0.00   0.08  76.80   0.00  -0.00  -0.00   0.00
     14:    0.63   0.01   2.58   0.00   0.00   0.00   0.00  19.28   0.00   0.00  71.58  -0.55   5.05   0.00
     15:   -0.07  -0.01   0.01   0.00   0.00   0.00   0.00   0.05   0.00  -0.00   2.11  47.58  50.18  -0.00
     16:   -0.03  -0.01   0.23  -0.00   0.00  -0.00  -0.00  -0.09   0.00   0.00   0.61  -4.00 -21.53   0.00
     17:    0.00   0.00  -0.00   0.12   0.12  -0.05  -0.10  -0.00  -0.11  -0.03   0.00   0.00  -0.00  56.42
     18:    0.00   0.00   0.00   0.12   0.12  -0.10  -0.05  -0.00  -0.03  -0.11   0.00  -0.00   0.00  40.79
     20:    0.00   0.00   0.00   0.06   0.00   0.48   0.00   0.00   0.07   0.02   0.00  -0.00  -0.00   1.15
     62:   48.32   3.07   1.04   0.00   0.00  -0.00  -0.00  -0.02  -0.00  -0.00   0.25   0.18   0.84  -0.00
     63:    0.03   0.79   8.86   4.27  15.16   3.12  31.93  12.95   7.93   7.92   4.83   0.16   0.61  -0.08
     64:    0.00   0.00   0.04  21.80   5.52  45.46   3.78   0.05  11.62  10.67   0.02   0.00   0.00  -0.28
     65:    0.09   1.94  21.68   1.28   6.68   0.72  13.59  31.81   2.77   3.73  11.82   0.40   1.50  -0.02
     66:    0.06  -0.07  -0.04  -0.00   0.00   0.00   0.00   0.34   0.00  -0.00   4.29  56.36  69.49  -0.00
     67:   -0.00  -0.36  -0.24  -0.04  -0.07   0.00   0.02   0.51   0.07   0.04   0.73  -0.45  -4.46   0.22
     68:   -0.00  -0.14  -0.09  -0.04  -0.22   0.00   0.06   0.20   0.12   0.16   0.29  -0.18  -1.77   0.29
     69:   -0.00  -0.00  -0.00  -0.28  -0.07   0.08   0.01   0.01   0.20   0.19   0.01  -0.01  -0.06   1.35


 Summation over all MOs, multiplied by occupation: Total SFO Gross Populations in this Irrep
 ===========================================================================================

     2.00    2.00    2.00    2.00    2.00    2.00    2.00    2.00    1.96    2.00    2.00    2.00
     2.00    0.46    0.00   -0.00   -0.00   -0.00    0.01    0.01    0.01    0.00    0.00    0.02
     0.00    0.00    0.00    0.00    0.00    0.00    0.00    0.00    0.00    0.00    0.00    0.00
     0.00    0.00    0.00   -0.00    0.00    0.00   -0.00   -0.00    0.00    0.00    0.00    0.00
     0.00    0.00   -0.00    0.00    0.00    0.00   -0.00    0.00    0.00   -0.00   -0.00   -0.00
     2.00    1.98    1.86    1.98    1.69    0.00   -0.00    0.00    0.00    0.00    0.00    0.00
     0.00    0.00   -0.00    0.00    0.00    0.00    0.00    0.00    0.00    0.00    0.00    0.00
     0.00   -0.00



 List of all MOs, ordered by energy, with the most significant SFO gross populations
 ===================================================================================

 Each percentage contribution in the table below corresponds to the indicated SFO.
 In general, a SFO may be a linear combination of several Fragment Orbitals on the same,
 or on symmetry-related Fragments. Only the first 'member' of such a combination is
 specified here. A full definition of all SFOs is given in an earlier part of the output.
 The numbering of the SFOs in this table does NOT include the Core Orbitals, and starts
 from one for each symmetry representation, as in the SFO definition list earlier.

       E(eV)  Occ       MO           %     SFO (first member)   E(eV)  Occ   Fragment
 -------------------------------------------------------------------------------------

     -14.118  2.00    10 A         94.58%     8 A             -21.212  2.00     1 ClF
                                    3.07%     2 A             -15.093  2.00     2 F
                                    1.94%     5 A               2.944  2.00     2 F
      -5.849  2.00    11 A         64.54%     9 A             -12.460  2.00     1 ClF
                                   21.68%     5 A               2.944  2.00     2 F
                                    8.86%     3 A               2.944  2.00     2 F
                                    2.58%    14 A              -6.933  0.00     1 ClF
                                    1.14%     8 A             -21.212  2.00     1 ClF
                                    1.04%     2 A             -15.093  2.00     2 F
      -3.575  2.00    12 A         61.05%    10 A             -10.443  2.00     1 ClF
                                   21.80%     4 A               2.944  2.00     2 F
                                   10.03%    12 A              -8.504  2.00     1 ClF
                                    4.27%     3 A               2.944  2.00     2 F
                                    1.28%     5 A               2.944  2.00     2 F
                                    1.18%    13 A              -8.504  2.00     1 ClF
      -3.575  2.00    13 A         61.05%    11 A             -10.443  2.00     1 ClF
                                   15.16%     3 A               2.944  2.00     2 F
                                   10.03%    13 A              -8.504  2.00     1 ClF
                                    6.68%     5 A               2.944  2.00     2 F
                                    5.52%     4 A               2.944  2.00     2 F
                                    1.18%    12 A              -8.504  2.00     1 ClF
      -2.637  2.00    14 A         45.46%     4 A               2.944  2.00     2 F
                                   35.88%    10 A             -10.443  2.00     1 ClF
                                    8.97%    12 A              -8.504  2.00     1 ClF
                                    3.12%     3 A               2.944  2.00     2 F
                                    2.88%    13 A              -8.504  2.00     1 ClF
                                    2.43%    11 A             -10.443  2.00     1 ClF
      -2.637  2.00    15 A         35.88%    11 A             -10.443  2.00     1 ClF
                                   31.93%     3 A               2.944  2.00     2 F
                                   13.59%     5 A               2.944  2.00     2 F
                                    8.97%    13 A              -8.504  2.00     1 ClF
                                    3.78%     4 A               2.944  2.00     2 F
                                    2.88%    12 A              -8.504  2.00     1 ClF
                                    2.43%    10 A             -10.443  2.00     1 ClF
      -2.619  2.00    16 A         32.90%     9 A             -12.460  2.00     1 ClF
                                   31.81%     5 A               2.944  2.00     2 F
                                   19.28%    14 A              -6.933  0.00     1 ClF
                                   12.95%     3 A               2.944  2.00     2 F
                                    1.16%     8 A             -21.212  2.00     1 ClF
      -1.095  2.00    17 A         76.80%    12 A              -8.504  2.00     1 ClF
                                   11.62%     4 A               2.944  2.00     2 F
                                    7.93%     3 A               2.944  2.00     2 F
                                    2.77%     5 A               2.944  2.00     2 F
      -1.095  2.00    18 A         76.80%    13 A              -8.504  2.00     1 ClF
                                   10.67%     4 A               2.944  2.00     2 F
                                    7.92%     3 A               2.944  2.00     2 F
                                    3.73%     5 A               2.944  2.00     2 F
       2.355  0.00    19 A         71.58%    14 A              -6.933  0.00     1 ClF
                                   11.82%     5 A               2.944  2.00     2 F
                                    4.83%     3 A               2.944  2.00     2 F
                                    4.29%     6 A               7.773  0.00     2 F
                                    2.11%    15 A               0.976  0.00     1 ClF
                                    1.31%     9 A             -12.460  2.00     1 ClF
       5.884  0.00    20 A         56.36%     6 A               7.773  0.00     2 F
                                   47.58%    15 A               0.976  0.00     1 ClF
                                   -4.00%    16 A               5.115  0.00     1 ClF
       6.354  0.00    21 A         69.49%     6 A               7.773  0.00     2 F
                                   50.18%    15 A               0.976  0.00     1 ClF
                                  -21.53%    16 A               5.115  0.00     1 ClF
                                    5.05%    14 A              -6.933  0.00     1 ClF
                                   -4.46%     7 A              22.092  0.00     2 F
                                   -1.77%     8 A              22.092  0.00     2 F
                                    1.50%     5 A               2.944  2.00     2 F



 =======================================================================
 Electrostatic potential at the Nuclei due to electrons and other nuclei
 =======================================================================
  
         Atom                  Potential
         ----                  ---------
     1)   Cl                 64.59956839
     2)   F                  26.86281418
     3)   F                  26.86280999
 
 
 ========================
 No memory problems found
 ========================
 
 Maximum number of active allocate calls:         576
 
 *******************************************************************************

                             A D F   E X I T
 NORMAL TERMINATION



 =================
 Timing Statistics
 =================
  
 Total Used :                     CPU=        3.95      System=        0.13     Elapsed=        4.28

 Calls  Section                     ( Mean, Percentage )
 ---------------------------------------------------------------------------------------------------
     3  ><      ................      0.00    0.00             0.00    0.00             0.00    0.01
     1  INIT    ................      0.42   10.68             0.02   12.21             0.44   10.25
     1  GEOMET  ................      0.02    0.58             0.01    4.58             0.23    5.38
     1  FRAGM   ................      0.01    0.18             0.01    6.87             0.02    0.37
     1  INPUTA  ................      0.00    0.00             0.00    0.00             0.00    0.01
     1  ATDEN   ................      0.00    0.08             0.00    0.76             0.00    0.09
     1  MAINSY  ................      0.00    0.13             0.00    1.53             0.01    0.16
     1  SYMFIT  ................      0.00    0.03             0.00    0.76             0.00    0.04
     1  CORORT  ................      0.00    0.00             0.00    0.00             0.00    0.01
     1  SYMORB  ................      0.00    0.05             0.00    0.00             0.00    0.05
     1  CLSMAT  ................      0.01    0.18             0.00    0.76             0.01    0.17
     1  ORTHON  ................      0.00    0.13             0.00    0.76             0.01    0.15
     1  GENPT   ................      0.08    1.95             0.00    2.29             0.08    1.87
     1  PTBAS   ................      0.02    0.48             0.00    0.76             0.02    0.46
    17  FOCKY   ................      0.07   31.84             0.00    9.92             0.07   29.50
    17  FOCKTR  ................      0.00    0.43             0.00    0.00             0.00    0.46
    17  SDIIS   ................      0.00    0.86             0.00    1.53             0.00    0.97
     1  COREPS  ................      0.06    1.52             0.00    0.76             0.06    1.42
     1  TOTEN   ................      0.19    4.91             0.01    4.58             0.20    4.67
     1  POPAN   ................      0.00    0.05             0.00    0.76             0.00    0.06
     1  DEBYE   ................      0.00    0.08             0.00    0.00             0.00    0.08
     1  INPUTE  ................      0.00    0.03             0.00    0.00             0.00    0.01
     1  SYMORE  ................      0.00    0.00             0.00    0.00             0.00    0.01
     1  METS    ................      0.00    0.03             0.00    0.00             0.00    0.02
     1  CETS    ................      0.01    0.23             0.00    0.76             0.01    0.24
     1  POPUL   ................      1.78   45.08             0.06   49.62             1.84   43.06
     1  EXIT PROCEDURE .........      0.02    0.51             0.00    0.76             0.02    0.50


 Currently Open Files (EXIT00)
 ====================

 Unit    Access Format  Status   Type       Ident (file)
 -------------------------------------------------------
   3      SEQ    FORM   TRANSP  NORMAL      LOGFILE
                                          ( logfile )


 Buffered I/O statistics
 =======================
 Memory available:                     67108864
 Number of records fitting in memory:     16131
 Input :   1.3% of                        51345  *4k bytes
 Output:  11.7% of                         3790  *4k bytes
 Records from serial files evicted:           0
                    others evicted:           0
 Hash table lookups:     145801 with          0 conflicts (  0.00%)

 ***************************************************************************************************
 (LOGFILE)
 <May09-2019> <17:12:13>  ADF 2017  RunTime: May09-2019 17:12:13  Nodes: 1  Procs: 12
 <May09-2019> <17:12:14>  *** (NO TITLE) ***
 <May09-2019> <17:12:14>  RunType   : SINGLE POINT
 <May09-2019> <17:12:14>  Net Charge: -1 (Nuclei minus Electrons)
 <May09-2019> <17:12:14>  Symmetry  : NOSYM
 <May09-2019> <17:12:14>  >>>> FRAGM
  Coordinates
    Atom         X           Y           Z   (Angstrom)
    1.Cl       -4.925130    3.099645   -0.045734
    2.F        -3.939304    1.432629    0.048467
    3.F        -5.910947    4.766645   -0.139935
 <May09-2019> <17:12:14>  >>>> CORORT
 <May09-2019> <17:12:14>  >>>> CLSMAT
 <May09-2019> <17:12:14>  >>>> ORTHON
 <May09-2019> <17:12:14>  >>>> GENPT
 <May09-2019> <17:12:14>  Block Length= 128
 <May09-2019> <17:12:14>  >>>> PTBAS
 <May09-2019> <17:12:14>  >>>> CYCLE
 <May09-2019> <17:12:14>              |Error|         MaxErr       Wt(A-DIIS)
 <May09-2019> <17:12:14>      1      1.25734895      0.67336769
 <May09-2019> <17:12:14>      2      1.55154330      0.63598360    100.0
 <May09-2019> <17:12:14>      3      0.97864753      0.41068579    100.0
 <May09-2019> <17:12:14>      4      0.91105014      0.38924311    100.0
 <May09-2019> <17:12:15>      5      3.98146798      1.60470244    100.0
 <May09-2019> <17:12:15>      6      1.73624229      0.52288767    100.0
 <May09-2019> <17:12:15>      7      0.32442434      0.11334771    100.0
 <May09-2019> <17:12:15>      8      0.35098079      0.13981142    100.0
 <May09-2019> <17:12:15>      9      0.08988975      0.03201766     31.3
 <May09-2019> <17:12:15>     10      0.07195427      0.02529598     24.5
 <May09-2019> <17:12:15>     11      0.00420125      0.00132268      0.3
 <May09-2019> <17:12:15>     12      0.00027710      0.00010982      0.0
 <May09-2019> <17:12:15>     13      0.00018539      0.00005453      0.0
 <May09-2019> <17:12:15>     14      0.00002011      0.00000627      0.0
 <May09-2019> <17:12:15>     15      0.00000308      0.00000109      0.0
 <May09-2019> <17:12:15>     16      0.00000016      0.00000005      0.0
 <May09-2019> <17:12:15>  SCF converged
 <May09-2019> <17:12:15>     17      0.00000002      0.00000001      0.0
 <May09-2019> <17:12:15>  >>>> TOTEN
 <May09-2019> <17:12:16>  >>>> POPAN
 <May09-2019> <17:12:16>  >>>> DEBYE
 <May09-2019> <17:12:16>  >>>> AMETS
 <May09-2019> <17:12:18>   Bond Energy          -0.12535659 a.u.
 <May09-2019> <17:12:18>   Bond Energy          -3.41112645 eV
 <May09-2019> <17:12:18>   Bond Energy         -78.66       kcal/mol
 <May09-2019> <17:12:18>  >>>> POPUL
 <May09-2019> <17:12:18>  NORMAL TERMINATION
 <May09-2019> <17:12:18>  END
