

 Parallel Execution: Process Information
 ==============================================================================
 Rank   Node Name                              NodeID   MyNodeRank  NodeMaster
    0   BAZIS-cn076                               0          0          0
    1   BAZIS-cn076                               0          1         -1
    2   BAZIS-cn076                               0          2         -1
    3   BAZIS-cn076                               0          3         -1
    4   BAZIS-cn076                               0          4         -1
    5   BAZIS-cn076                               0          5         -1
    6   BAZIS-cn076                               0          6         -1
    7   BAZIS-cn076                               0          7         -1
    8   BAZIS-cn076                               0          8         -1
    9   BAZIS-cn076                               0          9         -1
   10   BAZIS-cn076                               0         10         -1
   11   BAZIS-cn076                               0         11         -1
 ==============================================================================


May use up to 30736MB of RAM as shared memory on node 0


XC
    GGA BP86
END

SCF
    iterations 250
END

EPRINT
    SFO Eig Ovl
END

ZLMFIT
    Quality normal
END

BECKEGRID
    Quality good
End

SYMMETRY nosym
CHARGE -1

ATOMS
1.F        -4.925131    3.099648   -0.045735 f=FF
2.F        -4.099231    1.533937    0.157550 f=FF
3.F        -5.751018    4.665335   -0.249017 f=F
END

Fragments
FF /home/tcst25/advanced_comp_chemistry/exercise2/halogen/FFF/frag1_FF.t21
F /home/tcst25/advanced_comp_chemistry/exercise2/halogen/FFF/frag2_F.t21
End
end input

 *******************************************************************************
 *                                                                             *
 *  -------------------------------------                                      *
 *   Amsterdam Density Functional  (ADF)         2017                          *
 *  -------------------------------------                                      *
 *                                               r58813 2017-04-12             *
 *                                                                             *
 *                                                                             *
 *                              =================                              *
 *                              |               |                              *
 *                              |     A D F     |                              *
 *                              |               |                              *
 *                              =================                              *
 *                                                                             *
 *                                                                             *
 *   Online information and documentation:  https://www.scm.com/support/       *
 *   E-mail:  support@scm.com   info@scm.com                                   *
 *                                                                             *
 *   Scientific publications using ADF results must be properly referenced     *
 *   See the User Manuals (or the web site) for recommended citations          *
 *   The terms and conditions of the End User License Agreement apply to       *
 *   the use of ADF, https://www.scm.com/license-terms/                        *
 *                                                                             *
 **********************  x86_64_linux_intel / intelmpi  ************************
 
 Licensed to: VU/FEW (+ SARA) / ALGEMEEN / Amsterdam / THE NETHERLANDS
 SCM User ID: u7668
  
 ADF 2017  RunTime: May09-2019 17:12:18  Nodes: 1  Procs: 12

 Temporary files are created in /local/datastore0/tcst25/189791/kid_0.88pDiz


Communication costs MPI_COMM_WORLD:      2.485 usec per message,   0.0111 usec per 8-byte item
Communication costs for intra-node:      2.486 usec per message,   0.0111 usec per 8-byte item

 *** (NO TITLE) ***



 ===========================
 A T T A C H E D   F I L E S
 ===========================
  



 ===============================
 M O D E L   P A R A M E T E R S
 ===============================
  
 DENSITY FUNCTIONAL POTENTIAL (scf)
    LDA:                               VWN                                      
    Gradient Corrections:              Becke88 Perdew86                        == Not Default ==

 SPIN  (restricted / unrestr.)
    Molecule:                          Restricted                               
    Fragments:                         Restricted                               

 OTHER ASPECTS
    Relativistic Corrections:          ---                                      

    Nuclear Charge Density Model:      Point Charge Nuclei                      
    Core Treatment:                    Frozen Orbital(s)                        

    Hyperfine or Zeeman Interaction:   ---                                      


 Fragment File(s)
 ----------------
 FF:
         file : /home/tcst25/advanced_comp_chemistry/exercise2/halogen/FFF/frag1_FF.t21
         jobid: ADF 2017  RunTime: May09-2019 16:32:34  Nodes: 1  Procs: 12
         title: *** (NO TITLE) ***
 F:
         file : /home/tcst25/advanced_comp_chemistry/exercise2/halogen/FFF/frag2_F.t21
         jobid: ADF 2017  RunTime: May09-2019 16:32:35  Nodes: 1  Procs: 12
         title: *** (NO TITLE) ***



                                        ************************************
                                        *  R U N   T Y P E : SINGLE POINT  *
                                        ************************************
  



 ===============
 G E O M E T R Y  ***  Linear Molecule  ***
 ===============
  

 ATOMS
 =====                            X Y Z                    CHARGE
                                (Angstrom)             Nucl     +Core       At.Mass
                       --------------------------    ----------------       -------
    1  F              -4.9251    3.0996   -0.0457      9.00      9.00       18.9984
    2  F              -4.0992    1.5339    0.1575      9.00      9.00       18.9984
    3  F              -5.7510    4.6653   -0.2490      9.00      9.00       18.9984


 FRAGMENTS
 =========                                     Atoms in this Fragment     Cart. coord.s (Angstrom)
                                               -------------------------------------------------------
    1  FF                                                1  F           -4.9251    3.0996   -0.0457
                                                         2  F           -4.0992    1.5339    0.1575
    2  F                                                 3  F           -5.7510    4.6653   -0.2490


 Interatomic Distance Matrix (Angstrom)
 --------------------------------------

   1)     0.000
   2)     1.782   0.000
   3)     1.782   3.564   0.000

 Min. Distance =    1.7818
 Max. Distance =    3.5636



 =====================================
 S Y M M E T R Y ,   E L E C T R O N S
 =====================================
  
 Symmetry: NOSYM

 Irreducible Representations, including subspecies
 -------------------------------------------------
 A


 Configuration of Valence Electrons
 ==================================
 ( determined in the SCF procedure )

 Total:   28

 Net Charge: -1 (Nuclei minus Electrons)

 Aufbau principle for MO occupations will be applied through SCF cycle no.     125
 Thereafter, the program will assign electrons to MOs that are spatially
 similar to the occupied MOs in a "reference" cycle ("KeepOrbitals").
 The reference cycle is always the PREVIOUS cycle: it will evolve with
 the SCF procedure.
1
 ***************************************************************************************************



                                      ****************************************
                                      *  B U I L D : (Fragments, Functions)  *
                                      ****************************************
  

 The individual fragments are copies of the corresponding 'Master' fragments defined on the fragment files.
 However, they may have been rotated (and translated) with respect to the Master. The local coordinate axes
 of each fragment (which define for instance the spatial orientation in the current molecule of a fragment
 P:x orbital) are not necessarily those of the molecule.
 The local frame (if different from the molecular one) is printed to enable an interpretation of the expan-
 sion of an MO in Fragment Orbitals.



                                              ************************
                                              *  Fragment Type : FF  *
                                              ************************
  

 Fragment no.    1   (in the list of all fragments)
 -----------------
 The local coordinate frame is identical to the molecular frame.

 Check Atomic Coordinates:

                  Master (on file)          After Computed Tranformation               As specified on Input
           ----------------------------     ----------------------------     ---------------------------------
     1)    -4.92513   3.09965  -0.04574     -4.92513   3.09965  -0.04574       1  -4.92513   3.09965  -0.04574
     2)    -4.09923   1.53394   0.15755     -4.09923   1.53394   0.15755       2  -4.09923   1.53394   0.15755



                                              ***********************
                                              *  Fragment Type : F  *
                                              ***********************
  

 Fragment no.    2   (in the list of all fragments)
 -----------------
 The local coordinate frame is identical to the molecular frame.

 Check Atomic Coordinates:

                  Master (on file)          After Computed Tranformation               As specified on Input
           ----------------------------     ----------------------------     ---------------------------------
     1)    -5.75102   4.66533  -0.24902     -5.75102   4.66533  -0.24902       3  -5.75102   4.66533  -0.24902



 =======
 S F O s  ***  (Symmetrized Fragment Orbitals)  ***
 =======
  
 SFOs are linear combinations of (valence) Fragment Orbitals (FOs), such that the SFOs transform as the
 irreducible representations of the (molecular) symmetry group. Each SFO is therefore characterized by
 an irrep of the molecule and by a few (or only one) generating FOs.
 The SFOs constitute a symmetry-adapted basis for the Fock matrix. The MO eigenvector coefficients in
 this basis provide a direct interpretation of the MOs in terms of Frontier Orbital Theory.

 The SFOs are combined with auxiliary Core Functions (CFs) to ensure orthogonalization on the (frozen)
 Core Orbitals (COs). The Core-orthogonalized SFOs (CSFOs) constitute the true Fock basis.

 The FOs, and hence also the (C)SFOs are combinations of the elementary basis functions (BAS). The basis
 functions that participate in the description of the SFOs depend on the irrep. The indices of the
 involved functions are printed below for each irrep.
 (The complete list of primitive basis functions is printed in another section)

 Total nr. of (C)SFOs (summation over all irreps) :    78

 NOTE: a (C)SFO that is defined as a combination of more than one FO is usually NOT normalized.



                                       === A ===
 Nr. of SFOs :   78
 Cartesian basis functions that participate in this irrep (total number =    90) :
      1     2     3     4     5     6     9    12     7    10
     13     8    11    14    15    16    17    18    19    20
     21    22    23    24    25    26    27    28    29    30
     31    32    33    34    35    36    39    42    37    40
     43    38    41    44    45    46    47    48    49    50
     51    52    53    54    55    56    57    58    59    60
     61    62    63    64    65    66    69    72    67    70
     73    68    71    74    75    76    77    78    79    80
     81    82    83    84    85    86    87    88    89    90

    SFO  (index         Fragment          Generating    Expansion in Fragment Orbitals
  indx  incl.CFs)   Occup   Orb.Energy   FragmentType  Coeff.   Orbital     on Fragment
 --------------------------------------------------------------------------------------
     1       1      2.000     -24.405 au  FF            1.00      1 A               1
                        (    -664.101 eV)
     2       2      2.000     -24.405 au  FF            1.00      2 A               1
                        (    -664.101 eV)
     3       3      2.000      -1.146 au  FF            1.00      3 A               1
                        (     -31.182 eV)
     4       4      2.000      -1.072 au  FF            1.00      4 A               1
                        (     -29.171 eV)
     5       5      2.000      -0.514 au  FF            1.00      5 A               1
                        (     -13.982 eV)
     6       6      2.000      -0.434 au  FF            1.00      6 A               1
                        (     -11.804 eV)
     7       7      2.000      -0.434 au  FF            1.00      7 A               1
                        (     -11.804 eV)
     8       8      2.000      -0.387 au  FF            1.00      8 A               1
                        (     -10.533 eV)
     9       9      2.000      -0.387 au  FF            1.00      9 A               1
                        (     -10.533 eV)
    10      10       --        -0.354 au  FF            1.00     10 A               1
                        (      -9.639 eV)
    11      11       --         0.022 au  FF            1.00     11 A               1
                        (       0.601 eV)
    12      12       --         0.073 au  FF            1.00     12 A               1
                        (       1.987 eV)
    13      13       --         0.376 au  FF            1.00     13 A               1
                        (      10.245 eV)
    14      14       --         0.376 au  FF            1.00     14 A               1
                        (      10.245 eV)
    15      15       --         0.530 au  FF            1.00     15 A               1
                        (      14.426 eV)
    16      16       --         0.547 au  FF            1.00     16 A               1
                        (      14.878 eV)
    17      17       --         0.547 au  FF            1.00     17 A               1
                        (      14.878 eV)
    18      18       --         0.736 au  FF            1.00     18 A               1
                        (      20.020 eV)
    19      19       --         0.953 au  FF            1.00     19 A               1
                        (      25.924 eV)
    20      20       --         0.953 au  FF            1.00     20 A               1
                        (      25.924 eV)
    21      21       --         1.027 au  FF            1.00     21 A               1
                        (      27.953 eV)
    22      22       --         1.027 au  FF            1.00     22 A               1
                        (      27.954 eV)
    23      23       --         1.173 au  FF            1.00     23 A               1
                        (      31.915 eV)
    24      24       --         1.226 au  FF            1.00     24 A               1
                        (      33.369 eV)
    25      25       --         1.226 au  FF            1.00     25 A               1
                        (      33.369 eV)
    26      26       --         1.328 au  FF            1.00     26 A               1
                        (      36.145 eV)
    27      27       --         1.573 au  FF            1.00     27 A               1
                        (      42.800 eV)
    28      28       --         1.587 au  FF            1.00     28 A               1
                        (      43.188 eV)
    29      29       --         1.587 au  FF            1.00     29 A               1
                        (      43.188 eV)
    30      30       --         2.679 au  FF            1.00     30 A               1
                        (      72.900 eV)
    31      31       --         3.152 au  FF            1.00     31 A               1
                        (      85.771 eV)
    32      32       --         3.152 au  FF            1.00     32 A               1
                        (      85.772 eV)
    33      33       --         3.172 au  FF            1.00     33 A               1
                        (      86.313 eV)
    34      34       --         3.172 au  FF            1.00     34 A               1
                        (      86.313 eV)
    35      35       --         3.245 au  FF            1.00     35 A               1
                        (      88.309 eV)
    36      36       --         3.366 au  FF            1.00     36 A               1
                        (      91.592 eV)
    37      37       --         3.366 au  FF            1.00     37 A               1
                        (      91.593 eV)
    38      38       --         3.486 au  FF            1.00     38 A               1
                        (      94.862 eV)
    39      39       --         3.486 au  FF            1.00     39 A               1
                        (      94.863 eV)
    40      40       --         3.747 au  FF            1.00     40 A               1
                        (     101.949 eV)
    41      41       --         3.747 au  FF            1.00     41 A               1
                        (     101.949 eV)
    42      42       --         4.211 au  FF            1.00     42 A               1
                        (     114.598 eV)
    43      43       --         4.211 au  FF            1.00     43 A               1
                        (     114.598 eV)
    44      44       --         4.287 au  FF            1.00     44 A               1
                        (     116.654 eV)
    45      45       --         4.512 au  FF            1.00     45 A               1
                        (     122.788 eV)
    46      46       --         4.512 au  FF            1.00     46 A               1
                        (     122.789 eV)
    47      47       --         4.788 au  FF            1.00     47 A               1
                        (     130.287 eV)
    48      48       --         4.788 au  FF            1.00     48 A               1
                        (     130.289 eV)
    49      49       --         4.934 au  FF            1.00     49 A               1
                        (     134.271 eV)
    50      50       --         5.445 au  FF            1.00     50 A               1
                        (     148.167 eV)
    51      51       --        48.289 au  FF            1.00     51 A               1
                        (    1314.023 eV)
    52      52       --        50.794 au  FF            1.00     52 A               1
                        (    1382.164 eV)
    53      53      2.000     -23.791 au  F             1.00      1 A               2
                        (    -647.398 eV)
    54      54      2.000      -0.555 au  F             1.00      2 A               2
                        (     -15.093 eV)
    55      55      2.000       0.108 au  F             1.00      3 A               2
                        (       2.944 eV)
    56      56      2.000       0.108 au  F             1.00      4 A               2
                        (       2.944 eV)
    57      57      2.000       0.108 au  F             1.00      5 A               2
                        (       2.944 eV)
    58      58       --         0.286 au  F             1.00      6 A               2
                        (       7.773 eV)
    59      59       --         0.812 au  F             1.00      7 A               2
                        (      22.092 eV)
    60      60       --         0.812 au  F             1.00      8 A               2
                        (      22.092 eV)
    61      61       --         0.812 au  F             1.00      9 A               2
                        (      22.092 eV)
    62      62       --         1.566 au  F             1.00     10 A               2
                        (      42.603 eV)
    63      63       --         1.566 au  F             1.00     11 A               2
                        (      42.603 eV)
    64      64       --         1.566 au  F             1.00     12 A               2
                        (      42.603 eV)
    65      65       --         1.566 au  F             1.00     13 A               2
                        (      42.603 eV)
    66      66       --         1.566 au  F             1.00     14 A               2
                        (      42.603 eV)
    67      67       --         2.040 au  F             1.00     15 A               2
                        (      55.515 eV)
    68      68       --         3.896 au  F             1.00     16 A               2
                        (     106.020 eV)
    69      69       --         3.896 au  F             1.00     17 A               2
                        (     106.020 eV)
    70      70       --         3.896 au  F             1.00     18 A               2
                        (     106.020 eV)
    71      71       --         3.896 au  F             1.00     19 A               2
                        (     106.020 eV)
    72      72       --         3.896 au  F             1.00     20 A               2
                        (     106.020 eV)
    73      73       --         3.896 au  F             1.00     21 A               2
                        (     106.020 eV)
    74      74       --         3.896 au  F             1.00     22 A               2
                        (     106.020 eV)
    75      75       --         5.088 au  F             1.00     23 A               2
                        (     138.458 eV)
    76      76       --         5.088 au  F             1.00     24 A               2
                        (     138.458 eV)
    77      77       --         5.088 au  F             1.00     25 A               2
                        (     138.458 eV)
    78      78       --        48.938 au  F             1.00     26 A               2
                        (    1331.672 eV)



 ================================
 (Slater-type)  F U N C T I O N S  ***  (Basis and Fit)  ***
 ================================
  

 Atom Type    1  (F)
 ==============

 Valence Basis Sets:  10
 -----------------------
   1 S   10.880000
   1 S    7.700000
   2 S    3.240000
   2 S    1.940000
   2 S    0.740000
   2 P    4.540000
   2 P    2.300000
   2 P    1.240000
   3 D    2.000000
   4 F    3.000000

 Atom Type    2  (F)
 ==============

 Valence Basis Sets:  10
 -----------------------
   1 S   10.880000
   1 S    7.700000
   2 S    3.240000
   2 S    1.940000
   2 S    0.740000
   2 P    4.540000
   2 P    2.300000
   2 P    1.240000
   3 D    2.000000
   4 F    3.000000


 BAS: List of all Elementary Cartesian Basis Functions
 =====================================================

 The numbering in the list below (to the right of the function characteristics) is referred
 to in print-outs of MO eigenvectors and Mulliken populations in the BAS representation
 (as contrasted to the SFO representation).

 Notes:
 1. The functions are characterized by a polynomial prefactor (powers of x,y,z and r) and
    an exponential decay factor alpha.
 2. Since the basis sets are specific for an atom TYPE, the individual functions occur on
    all atoms of that type.
 3. The word 'Core' in the left margin signals that it is a Core Function (CF) : not a
    degree of freedom in the valence set, but only used to ensure orthogonalization of
    the other valence basis functions on the frozen Core Orbitals.


 (power of) X  Y  Z  R     Alpha  on Atom
            ==========     =====     ==========

 F                                    1    2
                                  ---------------------------------------------------------------------------
            0  0  0  0    10.880      1   31
            0  0  0  0     7.700      2   32
            0  0  0  1     3.240      3   33
            0  0  0  1     1.940      4   34
            0  0  0  1     0.740      5   35
            1  0  0  0     4.540      6   36
            0  1  0  0     4.540      7   37
            0  0  1  0     4.540      8   38
            1  0  0  0     2.300      9   39
            0  1  0  0     2.300     10   40
            0  0  1  0     2.300     11   41
            1  0  0  0     1.240     12   42
            0  1  0  0     1.240     13   43
            0  0  1  0     1.240     14   44
            2  0  0  0     2.000     15   45
            1  1  0  0     2.000     16   46
            1  0  1  0     2.000     17   47
            0  2  0  0     2.000     18   48
            0  1  1  0     2.000     19   49
            0  0  2  0     2.000     20   50
            3  0  0  0     3.000     21   51
            2  1  0  0     3.000     22   52
            2  0  1  0     3.000     23   53
            1  2  0  0     3.000     24   54
            1  1  1  0     3.000     25   55
            1  0  2  0     3.000     26   56
            0  3  0  0     3.000     27   57
            0  2  1  0     3.000     28   58
            0  1  2  0     3.000     29   59
            0  0  3  0     3.000     30   60

 F                                    3
                                  ---------------------------------------------------------------------------
            0  0  0  0    10.880     61
            0  0  0  0     7.700     62
            0  0  0  1     3.240     63
            0  0  0  1     1.940     64
            0  0  0  1     0.740     65
            1  0  0  0     4.540     66
            0  1  0  0     4.540     67
            0  0  1  0     4.540     68
            1  0  0  0     2.300     69
            0  1  0  0     2.300     70
            0  0  1  0     2.300     71
            1  0  0  0     1.240     72
            0  1  0  0     1.240     73
            0  0  1  0     1.240     74
            2  0  0  0     2.000     75
            1  1  0  0     2.000     76
            1  0  1  0     2.000     77
            0  2  0  0     2.000     78
            0  1  1  0     2.000     79
            0  0  2  0     2.000     80
            3  0  0  0     3.000     81
            2  1  0  0     3.000     82
            2  0  1  0     3.000     83
            1  2  0  0     3.000     84
            1  1  1  0     3.000     85
            1  0  2  0     3.000     86
            0  3  0  0     3.000     87
            0  2  1  0     3.000     88
            0  1  2  0     3.000     89
            0  0  3  0     3.000     90

 Total number of charge fitting functions (nprimf)       255
 Total number of Cartesian basis functions (naos)         90
 Total number of Cartesian core functions  (ncos)          0

1
 ***************************************************************************************************



                                              ***********************
                                              *  T E C H N I C A L  *
                                              ***********************
  



 =============================================================
 P A R A L L E L I Z A T I O N  and  V E C T O R I Z A T I O N
 =============================================================
  
 Nr of parallel processes:                               12
 Maximum vector length in NumInt loops:                 128

 IO buffersize (Mb):                                     64.000000



 =====================
 S C F   U P D A T E S
 =====================
  
 Max. nr. of cycles:                               250
 Convergence criterion:                              0.0000010000
   secondary criterion:                              0.0010000000

 Mix parameter (when DIIS does not apply):           0.2000000000
 Mixed ADIIS+DIIS will be used
    Max number of expansion vectors:                10
    Pure ADIIS when Max([F,P]) is above              0.1000000000
    Pure DIIS when Max([F,P]) is below               0.0010000000
 Automatic ElectronSmearing (in case of problematic SCF convergence) disabled



 =================
 P R E C I S I O N  ***  (General: NumInt, NeglectFunctionTails, ...)  ***
 =================
  

 NumInt:           Target precision:                 6.0000000000
 -------           Initial precision:                6.0000000000
                   Min. precision (optimization):    6.0000000000

 Neglect Functions:          Basis functions:        0.1000000000E-07
 ------------------          Fit functions:          0.1000000000E-07



 ===========================
 L I N E A R   S C A L I N G
 ===========================
  

 Cut-off radii density fit:                        0.1000000000E-09
 Overlap cut-off criterion AO matrix elements:     0.1000000000E-07
 Cut-offs for Coulomb potential and fitted density:0.1000000000E-09
 Cut-off criterion for Coulomb multipole terms:    0.1000000000E-09
 Progressive Convergence parameter:                 0.000000000    
1
 ***************************************************************************************************



                                            ***************************
                                            *  C O M P U T A T I O N  *
                                            ***************************
  

 Number of elements of the density matrix on this node (used, total):       465      4095



 ===========================================
 Numerical Integration : Fuzzy Cells (Becke)
 ===========================================
  
 Becke grid quality: GOOD           
  
 Lebedev angular grid order:             min:  11 max:  31
 Nr. of radial points:                   min:  65 max:  65

 Total nr. of points:      42366
 Nr. of blocks:              331
 Block length:               128
 Nr. of dummy points:          2


 Test of Precision of the Numerical Integration Grid
 ===================================================

 Integral of the Total Core Density:                   0.00000000000000



 ========================
 Density Fitting (zlmFit)
 ========================
  
 ZlmFit Fit Quality: NORMAL         
  
 Max L-expansion:                        min:   7 max:   7
 Nr. of radial interpolation points:     min:  51 max:  51



 =====
 S C F  ***  ScaSCF  ***
 =====
  
 Initial density matrix is calculated as sum of fragments

 CYCLE    1
 SCF Error: norm([F,P])=      0.921354177543, max([F,P])=      0.390987792761
 orbitals (Q,E):
 ---------------
 A :5...24           ( 2.00    -0.8349)  ( 2.00    -0.5886)  ( 2.00    -0.3277)  ( 2.00    -0.2741)
                     ( 2.00    -0.2741)  ( 2.00    -0.1360)  ( 2.00    -0.1359)  ( 2.00    -0.1266)
                     ( 2.00     0.0859)  ( 2.00     0.0859)  ( 0.00     0.1246)  ( 0.00     0.1755)
                     ( 0.00     0.2932)  ( 0.00     0.3582)  ( 0.00     0.5611)  ( 0.00     0.5611)
                     ( 0.00     0.7325)  ( 0.00     0.7326)  ( 0.00     0.7945)  ( 0.00     0.9010)

 CYCLE    2
  SDIIS (wt  0.000):  0.8082  0.1918
 A-DIIS (wt  1.000):  0.8725  0.1275
  DIIS coefficients:  0.8725  0.1275
 SCF Error: norm([F,P])=      1.997618935957, max([F,P])=      0.623825047790
 orbitals (Q,E):
 ---------------
 A :5...15           ( 2.00    -0.7855)  ( 2.00    -0.7034)  ( 2.00    -0.2392)  ( 2.00    -0.1749)
                     ( 2.00    -0.1749)  ( 2.00    -0.0986)  ( 2.00    -0.0906)  ( 2.00    -0.0906)
                     ( 2.00    -0.0248)  ( 2.00    -0.0248)  ( 0.00     0.0447)

 CYCLE    3
  SDIIS (wt  0.000):  0.3953 -0.1700  0.7747
 A-DIIS (wt  1.000):  0.7156  0.0000  0.2844
  DIIS coefficients:  0.7156  0.0000  0.2844
 SCF Error: norm([F,P])=      0.851484264318, max([F,P])=      0.310267447897
 orbitals (Q,E):
 ---------------
 A :5...15           ( 2.00    -0.7907)  ( 2.00    -0.7233)  ( 2.00    -0.2351)  ( 2.00    -0.1557)
                     ( 2.00    -0.1557)  ( 2.00    -0.1023)  ( 2.00    -0.1023)  ( 2.00    -0.0927)
                     ( 2.00    -0.0436)  ( 2.00    -0.0436)  ( 0.00     0.0179)

 CYCLE    4
  SDIIS (wt  0.000): -0.3965  0.1582  1.2383
 A-DIIS (wt  1.000):  0.0000  0.0000  1.0000
  DIIS coefficients:  0.0000  0.0000  1.0000
 SCF Error: norm([F,P])=      0.735785221968, max([F,P])=      0.360134036176
 orbitals (Q,E):
 ---------------
 A :5...15           ( 2.00    -0.7188)  ( 2.00    -0.5252)  ( 2.00    -0.4099)  ( 2.00    -0.3796)
                     ( 2.00    -0.3796)  ( 2.00    -0.0294)  ( 2.00    -0.0212)  ( 2.00    -0.0212)
                     ( 2.00     0.1442)  ( 2.00     0.1442)  ( 0.00     0.1658)

 CYCLE    5
  SDIIS (wt  0.000): -0.1688  0.3903  0.6310  0.1475
 A-DIIS (wt  1.000):  0.0000  0.1010  0.7015  0.1975
  DIIS coefficients:  0.0000  0.1010  0.7015  0.1975
 SCF Error: norm([F,P])=      2.442569420303, max([F,P])=      0.795132009290
 orbitals (Q,E):
 ---------------
 A :5...15           ( 2.00    -0.7568)  ( 2.00    -0.6856)  ( 2.00    -0.2224)  ( 2.00    -0.1735)
                     ( 2.00    -0.1735)  ( 2.00    -0.0905)  ( 2.00    -0.0641)  ( 2.00    -0.0641)
                     ( 2.00    -0.0055)  ( 2.00    -0.0055)  ( 0.00     0.0749)

 CYCLE    6
  SDIIS (wt  0.000):  0.0216 -0.4631  0.9916  0.0053  0.4445
 A-DIIS (wt  1.000):  0.0000  0.0000  0.5857  0.0189  0.3954
  DIIS coefficients:  0.0000  0.0000  0.5857  0.0189  0.3954
 SCF Error: norm([F,P])=      1.057439261037, max([F,P])=      0.264798148274
 orbitals (Q,E):
 ---------------
 A :5...15           ( 2.00    -0.7951)  ( 2.00    -0.6815)  ( 2.00    -0.2515)  ( 2.00    -0.1845)
                     ( 2.00    -0.1845)  ( 2.00    -0.1085)  ( 2.00    -0.1085)  ( 2.00    -0.0866)
                     ( 2.00    -0.0017)  ( 2.00    -0.0017)  ( 0.00     0.0368)

 CYCLE    7
  SDIIS (wt  0.000): -0.0880  0.0652  0.5127 -0.1583  0.3776  0.2908
 A-DIIS (wt  1.000):  0.0000  0.0000  0.5553  0.0000  0.3262  0.1185
  DIIS coefficients:  0.0000  0.0000  0.5553  0.0000  0.3262  0.1185
 SCF Error: norm([F,P])=      1.648945262697, max([F,P])=      0.864661316645
 orbitals (Q,E):
 ---------------
 A :5...15           ( 2.00    -0.7760)  ( 2.00    -0.7263)  ( 2.00    -0.2194)  ( 2.00    -0.1404)
                     ( 2.00    -0.1404)  ( 2.00    -0.0868)  ( 2.00    -0.0868)  ( 2.00    -0.0838)
                     ( 2.00    -0.0486)  ( 2.00    -0.0486)  ( 0.00     0.0237)

 CYCLE    8
  SDIIS (wt  0.000): -0.0524  0.0737  0.3194 -0.0618  0.1056  0.0012  0.6143
 A-DIIS (wt  1.000):  0.0000  0.1351  0.1728  0.0000  0.0000  0.0000  0.6921
  DIIS coefficients:  0.0000  0.1351  0.1728  0.0000  0.0000  0.0000  0.6921
 SCF Error: norm([F,P])=      0.430849320718, max([F,P])=      0.188178569389
 orbitals (Q,E):
 ---------------
 A :5...15           ( 2.00    -0.7882)  ( 2.00    -0.7301)  ( 2.00    -0.2126)  ( 2.00    -0.1306)
                     ( 2.00    -0.1306)  ( 2.00    -0.0999)  ( 2.00    -0.0955)  ( 2.00    -0.0955)
                     ( 2.00    -0.0524)  ( 2.00    -0.0524)  ( 0.00     0.0282)

 CYCLE    9
  SDIIS (wt  0.000): -0.0173 -0.1375  0.3041 -0.0037 -0.0452 -0.0266  0.5548  0.3715
 A-DIIS (wt  1.000):  0.0000  0.0000  0.1672  0.0000  0.0000  0.0000  0.5350  0.2978
  DIIS coefficients:  0.0000  0.0000  0.1672  0.0000  0.0000  0.0000  0.5350  0.2978
 SCF Error: norm([F,P])=      0.514349251741, max([F,P])=      0.225244808959
 orbitals (Q,E):
 ---------------
 A :5...15           ( 2.00    -0.7749)  ( 2.00    -0.7358)  ( 2.00    -0.2263)  ( 2.00    -0.1473)
                     ( 2.00    -0.1473)  ( 2.00    -0.0863)  ( 2.00    -0.0841)  ( 2.00    -0.0841)
                     ( 2.00    -0.0587)  ( 2.00    -0.0587)  ( 0.00     0.0141)

 CYCLE   10
  SDIIS (wt  0.000): -0.0154 -0.2195  0.4735 -0.0009 -0.0934 -0.0396  0.6830  0.5222 -0.3098
 A-DIIS (wt  1.000):  0.0000  0.0000  0.0000  0.0000  0.0000  0.0000  0.3377  0.1225  0.5398
  DIIS coefficients:  0.0000  0.0000  0.0000  0.0000  0.0000  0.0000  0.3377  0.1225  0.5398
 SCF Error: norm([F,P])=      0.269649104079, max([F,P])=      0.115195430931
 orbitals (Q,E):
 ---------------
 A :5...15           ( 2.00    -0.7822)  ( 2.00    -0.7367)  ( 2.00    -0.2177)  ( 2.00    -0.1337)
                     ( 2.00    -0.1337)  ( 2.00    -0.0943)  ( 2.00    -0.0904)  ( 2.00    -0.0904)
                     ( 2.00    -0.0601)  ( 2.00    -0.0601)  ( 0.00     0.0198)

 CYCLE   11
  SDIIS (wt  0.344): -0.0026 -0.0041 -0.0189 -0.0022 -0.0199 -0.0053  0.1466 -0.0278  0.4697  0.4644
 A-DIIS (wt  0.656):  0.0000  0.0000  0.0000  0.0000  0.0000  0.0000  0.1143  0.0000  0.4395  0.4462
  DIIS coefficients: -0.0009 -0.0014 -0.0065 -0.0008 -0.0068 -0.0018  0.1254 -0.0096  0.4499  0.4525
 SCF Error: norm([F,P])=      0.217319383687, max([F,P])=      0.065894907977
 orbitals (Q,E):
 ---------------
 A :5...15           ( 2.00    -0.7740)  ( 2.00    -0.7364)  ( 2.00    -0.2237)  ( 2.00    -0.1434)
                     ( 2.00    -0.1434)  ( 2.00    -0.0866)  ( 2.00    -0.0824)  ( 2.00    -0.0824)
                     ( 2.00    -0.0600)  ( 2.00    -0.0600)  ( 0.00     0.0154)

 CYCLE   12
  SDIIS (wt  0.534): -0.0097  0.0003  0.0017 -0.0117 -0.0093  0.0251  0.0553  0.1950  0.2125  0.5407
 A-DIIS (wt  0.466):  0.0000  0.0000  0.0000  0.0000  0.0000  0.0000  0.0000  0.1945  0.2226  0.5830
  DIIS coefficients: -0.0052  0.0002  0.0009 -0.0063 -0.0050  0.0134  0.0296  0.1948  0.2172  0.5604
 SCF Error: norm([F,P])=      0.095863648444, max([F,P])=      0.047088534957
 orbitals (Q,E):
 ---------------
 A :5...15           ( 2.00    -0.7769)  ( 2.00    -0.7368)  ( 2.00    -0.2212)  ( 2.00    -0.1392)
                     ( 2.00    -0.1392)  ( 2.00    -0.0894)  ( 2.00    -0.0851)  ( 2.00    -0.0851)
                     ( 2.00    -0.0604)  ( 2.00    -0.0604)  ( 0.00     0.0170)

 CYCLE   13
  SDIIS (wt  0.719): -0.0093 -0.0002 -0.0030 -0.0007  0.0040 -0.0070  0.1096  0.1413  0.3788  0.3866
 A-DIIS (wt  0.281):  0.0000  0.0000  0.0000  0.0000  0.0000  0.0000  0.0000  0.0000  0.3901  0.6099
  DIIS coefficients: -0.0067 -0.0002 -0.0022 -0.0005  0.0029 -0.0050  0.0788  0.1016  0.3819  0.4494
 SCF Error: norm([F,P])=      0.064796090985, max([F,P])=      0.028812875367
 orbitals (Q,E):
 ---------------
 A :5...15           ( 2.00    -0.7762)  ( 2.00    -0.7372)  ( 2.00    -0.2223)  ( 2.00    -0.1407)
                     ( 2.00    -0.1407)  ( 2.00    -0.0888)  ( 2.00    -0.0845)  ( 2.00    -0.0845)
                     ( 2.00    -0.0608)  ( 2.00    -0.0608)  ( 0.00     0.0161)

 CYCLE   14
  SDIIS (wt  0.959): -0.0001  0.0003  0.0003 -0.0050 -0.0079  0.0038 -0.0009  0.1402  0.2990  0.5703
 A-DIIS (wt  0.041):  0.0000  0.0000  0.0000  0.0000  0.0000  0.0000  0.0000  0.0000  0.0874  0.9126
  DIIS coefficients: -0.0001  0.0002  0.0003 -0.0048 -0.0076  0.0036 -0.0008  0.1345  0.2904  0.5842
 SCF Error: norm([F,P])=      0.012949362040, max([F,P])=      0.005018996113
 orbitals (Q,E):
 ---------------
 A :5...15           ( 2.00    -0.7759)  ( 2.00    -0.7370)  ( 2.00    -0.2223)  ( 2.00    -0.1408)
                     ( 2.00    -0.1408)  ( 2.00    -0.0885)  ( 2.00    -0.0842)  ( 2.00    -0.0842)
                     ( 2.00    -0.0607)  ( 2.00    -0.0607)  ( 0.00     0.0161)

 CYCLE   15
  SDIIS (wt  1.000):  0.0001 -0.0000 -0.0004 -0.0009 -0.0015 -0.0000  0.0181  0.0384  0.1551  0.7912
  DIIS coefficients:  0.0001 -0.0000 -0.0004 -0.0009 -0.0015 -0.0000  0.0181  0.0384  0.1551  0.7912
 SCF Error: norm([F,P])=      0.002133184205, max([F,P])=      0.000850382149
 orbitals (Q,E):
 ---------------
 A :5...15           ( 2.00    -0.7760)  ( 2.00    -0.7370)  ( 2.00    -0.2222)  ( 2.00    -0.1408)
                     ( 2.00    -0.1408)  ( 2.00    -0.0886)  ( 2.00    -0.0842)  ( 2.00    -0.0842)
                     ( 2.00    -0.0607)  ( 2.00    -0.0607)  ( 0.00     0.0161)

 CYCLE   16
  SDIIS (wt  1.000): -0.0000 -0.0000 -0.0002 -0.0003  0.0003  0.0038  0.0077  0.0340  0.2021  0.7525
  DIIS coefficients: -0.0000 -0.0000 -0.0002 -0.0003  0.0003  0.0038  0.0077  0.0340  0.2021  0.7525
 SCF Error: norm([F,P])=      0.000011918285, max([F,P])=      0.000003517188
 orbitals (Q,E):
 ---------------
 A :5...15           ( 2.00    -0.7760)  ( 2.00    -0.7370)  ( 2.00    -0.2222)  ( 2.00    -0.1408)
                     ( 2.00    -0.1408)  ( 2.00    -0.0886)  ( 2.00    -0.0842)  ( 2.00    -0.0842)
                     ( 2.00    -0.0607)  ( 2.00    -0.0607)  ( 0.00     0.0161)

 CYCLE   17
  SDIIS (wt  1.000): -0.0000 -0.0000 -0.0001  0.0001  0.0008  0.0017  0.0074  0.0505  0.2608  0.6788
  DIIS coefficients: -0.0000 -0.0000 -0.0001  0.0001  0.0008  0.0017  0.0074  0.0505  0.2608  0.6788
 SCF Error: norm([F,P])=      0.000006325611, max([F,P])=      0.000002648485
 orbitals (Q,E):
 ---------------
 A :5...15           ( 2.00    -0.7760)  ( 2.00    -0.7370)  ( 2.00    -0.2222)  ( 2.00    -0.1408)
                     ( 2.00    -0.1408)  ( 2.00    -0.0886)  ( 2.00    -0.0842)  ( 2.00    -0.0842)
                     ( 2.00    -0.0607)  ( 2.00    -0.0607)  ( 0.00     0.0161)

 CYCLE   18
  SDIIS (wt  1.000): -0.0000 -0.0000  0.0000  0.0001  0.0001  0.0005  0.0054  0.0405  0.1415  0.8119
  DIIS coefficients: -0.0000 -0.0000  0.0000  0.0001  0.0001  0.0005  0.0054  0.0405  0.1415  0.8119
 SCF Error: norm([F,P])=      0.000000423667, max([F,P])=      0.000000185438
 orbitals (Q,E):
 ---------------
 A :5...15           ( 2.00    -0.7760)  ( 2.00    -0.7370)  ( 2.00    -0.2222)  ( 2.00    -0.1408)
                     ( 2.00    -0.1408)  ( 2.00    -0.0886)  ( 2.00    -0.0842)  ( 2.00    -0.0842)
                     ( 2.00    -0.0607)  ( 2.00    -0.0607)  ( 0.00     0.0161)

 SCF CONVERGED

 CYCLE   19
1
 ***************************************************************************************************



                                                *******************
                                                *  R E S U L T S  *
                                                *******************
  
 *** Setting up for NEW gradients in Focky
 *** Using FIT density in Focky

 Orbital Energies, per Irrep and Spin:
 ======================================
                        Occup              E (au)              E (eV)       Diff (eV) with prev. cycle
                        -----      --------------------        ------       --------------------------
 A
               5        2.000     -0.77598328183744E+00       -21.116               6.10E-08
               6        2.000     -0.73703340818806E+00       -20.056               7.63E-08
               7        2.000     -0.22224687382124E+00        -6.048               1.12E-07
               8        2.000     -0.14077437967288E+00        -3.831               1.39E-07
               9        2.000     -0.14076981382876E+00        -3.831               1.39E-07
              10        2.000     -0.88575047170896E-01        -2.410               5.07E-08
              11        2.000     -0.84214608421067E-01        -2.292               5.28E-08
              12        2.000     -0.84212606108320E-01        -2.292               5.29E-08
              13        2.000     -0.60711082236011E-01        -1.652               8.10E-08
              14        2.000     -0.60708825734729E-01        -1.652               8.11E-08
              15        0.000      0.16129025097374E-01         0.439
              16        0.000      0.22804414661110E+00         6.205
              17        0.000      0.25478484695647E+00         6.933
              18        0.000      0.35145657741302E+00         9.564
              19        0.000      0.62389958792723E+00        16.977
              20        0.000      0.62390254560193E+00        16.977
              21        0.000      0.70706283168264E+00        19.240
              22        0.000      0.70706474217975E+00        19.240
              23        0.000      0.84964647683930E+00        23.120
              24        0.000      0.88867958264683E+00        24.182
  
 HOMO :       14 A                -0.60708825734729E-01
 LUMO :       15 A                 0.16129025097374E-01
  


 All Electron Calculation, thus no Orbital Energies of the Core Orbitals are calculated


 Fit test: (difference of exact and fit density, squared integrated, result summed over spins)
         Sum-of-Fragments:                             0.00002745384948
         Orthogonalized Fragments:                     0.00002836205315
         SCF:                                          0.00002805722771



 ==========================
 Electron Density at Nuclei
 ==========================
  
 The electron density is calculated at points on a small sphere around the center of a nucleus.
 The printed electron density is the average electron density on these points.
 The radius of the sphere is the printed approximate finite nuclear radius.

         Atom        Nuclear Radius (Angstrom)             Electron Density (a.u.)
         ----        -------------------------             -----------------------
     1)   F                 0.0000361580                              448.55019
     2)   F                 0.0000361580                              447.66752
     3)   F                 0.0000361580                              447.66754



 =======================================
 M U L L I K E N   P O P U L A T I O N S
 =======================================
  
 The survey below gives for each atom:
 a) the total charge (Z minus electrons)
 b) the net spin polarization (nr of electrons spin-A minus spin-B)
 c) for each spin the atomic electron valence density (integrated) per L-value.

 Atom              Charge    Spin density          S         P         D         F
 ----              ------    ------------       ------    ------    ------    ------
 1 F              -0.1352                       4.0000    5.1042    0.0290    0.0021
 2 F              -0.4324                       3.9948    5.4263    0.0102    0.0011
 3 F              -0.4324                       3.9948    5.4263    0.0102    0.0011

 Populations of individual BAS functions
 ----------------------------------------
 1 F            0.5753  1.4000  1.1446  0.8748  0.0052  0.3854  0.2699  0.4273  0.9748  0.7649
                1.0508  0.4454  0.2805  0.5052 -0.0009  0.0108  0.0013  0.0188  0.0046 -0.0055
               -0.0011 -0.0015  0.0001  0.0035  0.0002 -0.0016  0.0049  0.0037 -0.0026 -0.0035
 2 F            0.5757  1.4008  1.1006  0.9072  0.0105  0.3908  0.3215  0.4158  0.9340  0.8134
                0.9777  0.5509  0.4262  0.5961 -0.0007  0.0034  0.0006  0.0084  0.0020 -0.0036
               -0.0010 -0.0013  0.0001  0.0028  0.0001 -0.0013  0.0040  0.0029 -0.0023 -0.0028
 3 F            0.5757  1.4008  1.1006  0.9072  0.0105  0.3908  0.3215  0.4158  0.9340  0.8134
                0.9777  0.5509  0.4262  0.5961 -0.0007  0.0034  0.0006  0.0084  0.0020 -0.0036
               -0.0010 -0.0013  0.0001  0.0028  0.0001 -0.0013  0.0040  0.0029 -0.0023 -0.0028

 Gross Charges per Atom (Z minus electrons)
 ==========================================
            -0.1352   -0.4324   -0.4324
 Net Total: -1.00000000


 Atom-Atom Population Matrix (off-diagonal elements not doubled)
 ===============================================================

     1 :     9.1036
     2 :     0.0158    9.4100
     3 :     0.0158    0.0065    9.4100


 Frag-Frag Population Matrix (off-diagonal elements not doubled)
 ===============================================================

     1 :    18.5453
     2 :     0.0224    9.4100



 =================================================
 H I R S H F E L D   C H A R G E   A N A L Y S I S
 =================================================
  
 For each fragment: the (numerical) integral of rho(scf) * rho(fragment)/rho(sum-of-fragments)
 (nuclear charges are included, electrons are counted negative)

 The fragments and their ordering are defined in the early G E O M E T R Y output section.
 If you use single-atom fragments, this usually implies that all atoms of the same
 chemical type are grouped together. This may not be the order in which you listed them
 in the input file!

    1  FF                       -0.4675
    2  F                        -0.5325

 Sum of these charges (accuracy NumInt/Tails) =          -0.99999241



 =============================
 V O R O N O I   C H A R G E S
 =============================
  
 For each atom: the (numerical) integral of the total electronic charge density in its Voronoi cell,
 i.e. the region of space that is closer to that atom than to any other atom.
 (cf. Wigner-Seitz cells in crystals)

 Within the Voronoi cell the subintegrals over the atomic sphere and the remaining part are evaluated
 separately to give the numbers of electrons (negative charge) in these regions.
 The net total charge in the cell (including the nuclear charge) is also given.

 Values are provided for
    a) the Initial (sum-of-fragments) density
    b) the Orthogonalized-Fragments density
    c) the SCF density
    d) the Voronoi Deformation Density (VDD): the difference SCF-Initial for the complete atomic cell
 ---------------------------------------------------------------------------------------------------
 Total NetCharge:              -1.000                     -1.000                     -1.000   -0.000
 (accuracy NumInt/Tails)

 Remark: the 'NetTotal' Voronoi charges often do not match the Mulliken and/or Hirshfeld charges very
 well. This is caused by the fact that chemically different atoms are not treated in accordance with
 their relative sizes. (Voronoi cells are defined by boundary planes halfway between the atoms.)
 However, the CHANGES in charge, comparing 'Initial' to 'SCF' for instance, do give a fair indication
 of the flow of charge caused by the relaxation from sum-of-fragments to self-consistency.

 Warning: the absolute accuracy of the VDD charges obtained using the Fuzzy Cells (Becke) integration
 scheme is much poorer than the one obtained with an 'equivalent' Voronoi integration grid. 



 =================================================================
 M U L T I P O L E   D E R I V E D   C H A R G E   A N A L Y S I S
 =================================================================

 This charge analysis uses the atomic multipoles (obtained from the fitted density) up to some level X,
 and reconstructs these multipoles exactly (up to level X) by distributing charges over all atoms.
 This is achieved by using Lagrange multipliers and a weight function to keep the multipoles local.

 Dummy atoms can be included (by setting INCDUM in MDC-block to 1) to obtain a fractional charge.
 This is generally useful and necessary only for small symmetrical molecules, when there are not
 enough degrees of freedom to reconstruct the multipoles.

 Since the atomic multipoles are reconstructed up to level X,
 the molecular multipoles are represented also up to level X.
 The recommended level is to reconstruct up to quadrupole : -> MDC-q charges.

 See: M. Swart, P.Th. van Duijnen, J.G. Snijders, J.Comput.Chem., (2001), p. 79-88.

 ------------------------------------------------------------- 
 Atomic electronic multipole moments from SCF equations (a.u.)
 ------------------------------------------------------------- 

   atom        charge        dip-x     dip-y     dip-z      quad-xx   quad-xy   quad-xz   quad-yy   quad-yz   quad-zz
 --------------------------------------------------------------------------------------------------------------------
    1 F     -0.172147    -0.000002  0.000004 -0.000001    -0.099972 -0.229191  0.029717  0.370359 -0.056353 -0.270388
    2 F     -0.413933    -0.063055  0.119544 -0.015502    -0.089250 -0.204560  0.026542  0.330582 -0.050321 -0.241332
    3 F     -0.413919     0.063056 -0.119547  0.015503    -0.089251 -0.204562  0.026543  0.330586 -0.050322 -0.241335

 --------------------------------------- 
 Multipole derived atomic charges (a.u.)
 --------------------------------------- 

 The MDC-m charges are just the Monopole terms in the multipole expansion, while for the MDC-d charges
 also the Dipoles are reconstructed. The usually preferred charges are the MDC-q charges.
 These reconstruct the Monopoles, Dipoles and Quadrupoles (both atomic AND molecular).

        Atom    Level:     MDC-m        MDC-d        MDC-q
 ---------------------------------------------------------
     1     F           -0.172147    -0.092893    -0.084432
     2     F           -0.413933    -0.453560    -0.457791
     3     F           -0.413919    -0.453546    -0.457777

 ------------------------------------------------ 
 Average absolute deviations in atomic multipoles
 ------------------------------------------------ 

 Stated here are the average differences between the atomic multipoles
 and the reconstructed atomic multipoles (from the distributed charges).
 If these values are not zero, this means there are not enough degrees of freedom,
 to be able to reconstruct the atomic multipoles. (This usually happens only
 for small and/or highly symmetric molecules). If this is the case, one could add
 dummy atoms as extra point charges (and setting INCDUM in MDC-block to 1).

 Level:                                 MDC-d        MDC-q
 ---------------------------------------------------------
 Charge   (a.u.)                       0.0000       0.0000
 Dipole   (Debye)                      0.0000       0.0000
 Quad.    (a.u.)                       0.1151       0.0681

 --------------------------------------- 
 Represented molecular multipole moments
 --------------------------------------- 

 Given here are the Molecular multipole moments from the atomic charges, and from the Fit Density.
 Note that the atomic charges represent the latter, NOT the ones from the Exact density.

            Q (a.u.)             Dipole moment (Debye)                                          Quadrupole moment (a.u.)
                                 x         y         z              xx        xy        xz        yy        yz        zz
------------------------------------------------------------------------------------------------------------------------
MDC-m        -1.0000       23.6563  -14.8881    0.2197        -67.7958   87.5078   -1.9510    2.8277    2.1707   64.9681
MDC-d        -1.0000       23.6563  -14.8881    0.2197        -67.6361   88.0568   -2.0222    2.2363    2.3058   65.3998
MDC-q        -1.0000       23.6563  -14.8881    0.2197        -67.6191   88.1154   -2.0299    2.1731    2.3202   65.4459
 
Fit.Dens.    -1.0000       23.6563  -14.8881    0.2197        -67.7486   87.9889   -2.0134    2.6532    2.2891   65.0955



 =============
 Dipole Moment  ***  (Debye)  ***
 =============
  
 Vector   :        23.65632614    -14.88808345      0.21965398
 Magnitude:        27.95219210

 This molecular dipole moment is calculated with analytic integration
 ************************************************************************************
 Since the molecule is NOT NEUTRAL, the dipole moment depends on the choice of origin
 ************************************************************************************



 =========================================
 Quadrupole Moment (Buckingham convention)  ***  (a.u.)  ***
 =========================================
  
      quad-xx        quad-xy        quad-xz        quad-yy        quad-yz        quad-zz
    -67.74865853    87.66977892    -1.97193233     2.65319982     2.21046613    65.09545872

 This molecular quadrupole moment is calculated with analytic integration
1



                                             *************************
                                             *  SFO MO coefficients  *
                                             *************************
  


                                       === A ===
 MOs expanded in CFs+SFOs
 ========================

 The SFOs have been characterized in an earlier part of output.
 To deduce the bonding / antibonding nature of SFO combinations in an MO, consider the products
 of the coefficients AND THE OVERLAP between the SFOs (may be NEGATIVE). The SFO overlap matrix
 is printed later, in the SFO Populations section.

 (The CF coefficients are not printed)

 MOs :      1        2        3        4        5        6        7        8        9       10
 occup:   2.00     2.00     2.00     2.00     2.00     2.00     2.00     2.00     2.00     2.00
 CF+SFO
     1   0.6937   0.0111   0.7202  -0.0008  -0.0015   0.0012   0.0030   0.0000  -0.0000   0.0050
     2  -0.7203   0.0106   0.6936   0.0008   0.0016  -0.0012  -0.0032  -0.0000   0.0000  -0.0052
     3   0.0001  -0.0000  -0.0001  -0.8530   0.5200   0.0342  -0.0592   0.0000   0.0000  -0.0666
     4  -0.0001   0.0000   0.0000   0.3237   0.4809   0.8124   0.0676  -0.0000  -0.0000   0.0961
     5   0.0001   0.0001   0.0000   0.0353   0.0275  -0.0180  -0.8368  -0.0000   0.0000   0.5419
     6   0.0000   0.0000   0.0000   0.0000   0.0000   0.0000  -0.0000   0.8262   0.2149  -0.0001
     7  -0.0000  -0.0000  -0.0000   0.0000  -0.0000   0.0000  -0.0000   0.2149  -0.8262   0.0000
     8  -0.0000  -0.0000   0.0000  -0.0000   0.0000  -0.0000   0.0000  -0.3336  -0.0591  -0.0001
     9  -0.0000  -0.0000   0.0000   0.0000   0.0000   0.0000  -0.0000   0.0591  -0.3335  -0.0000
    10   0.0001   0.0001   0.0001   0.0168   0.0310  -0.0034  -0.1780  -0.0000  -0.0000  -0.4648
    11   0.0000  -0.0000  -0.0001  -0.0073   0.0107   0.0018  -0.0055  -0.0000  -0.0000  -0.0152
    12   0.0000  -0.0001  -0.0001   0.0007  -0.0029  -0.0093  -0.0219   0.0000   0.0000   0.0186
    13  -0.0000   0.0000  -0.0000  -0.0000  -0.0000  -0.0000   0.0000   0.0247   0.0047  -0.0000
    14   0.0000  -0.0000   0.0000  -0.0000  -0.0000  -0.0000  -0.0000   0.0047  -0.0247   0.0000
    15   0.0001  -0.0001  -0.0001   0.0031  -0.0023   0.0003   0.0126   0.0000   0.0000  -0.0226
    16  -0.0000   0.0000  -0.0000   0.0000  -0.0000   0.0000   0.0000  -0.0005   0.0012  -0.0000
    17   0.0000   0.0000   0.0000   0.0000   0.0000   0.0000  -0.0000  -0.0012  -0.0005  -0.0000
    18  -0.0001   0.0001   0.0000   0.0001   0.0015   0.0014   0.0112   0.0000  -0.0000  -0.0115
    19   0.0000   0.0000   0.0000  -0.0000   0.0000  -0.0000  -0.0000   0.0068   0.0027   0.0000
    20   0.0000   0.0000   0.0000  -0.0000  -0.0000  -0.0000  -0.0000  -0.0027   0.0068  -0.0000
    21   0.0000  -0.0000   0.0000  -0.0000   0.0000  -0.0000  -0.0000   0.0000   0.0000   0.0000
    22  -0.0000   0.0000  -0.0000   0.0000  -0.0000  -0.0000   0.0000  -0.0000  -0.0000  -0.0000
    23   0.0001   0.0000  -0.0000   0.0020   0.0022  -0.0027  -0.0025  -0.0000   0.0000  -0.0093
    24  -0.0000   0.0000   0.0000   0.0000   0.0000   0.0000  -0.0000  -0.0000  -0.0000   0.0000
    25  -0.0000   0.0000  -0.0000  -0.0000   0.0000  -0.0000   0.0000  -0.0000  -0.0000  -0.0000
    26   0.0001  -0.0000   0.0001  -0.0019   0.0026   0.0088   0.0081   0.0000   0.0000   0.0116
    27   0.0001   0.0000  -0.0001   0.0043  -0.0073  -0.0019   0.0047  -0.0000   0.0000   0.0086
    28   0.0000   0.0000  -0.0000   0.0000  -0.0000  -0.0000   0.0000   0.0026   0.0006   0.0000
    29  -0.0000   0.0000  -0.0000   0.0000  -0.0000  -0.0000   0.0000   0.0006  -0.0026   0.0000
    30  -0.0001  -0.0000  -0.0001  -0.0008  -0.0021  -0.0010   0.0003   0.0000  -0.0000  -0.0001
    31  -0.0000   0.0000  -0.0000   0.0000  -0.0000   0.0000   0.0000  -0.0005  -0.0001   0.0000
    32   0.0000  -0.0000  -0.0000  -0.0000  -0.0000  -0.0000  -0.0000  -0.0001   0.0005  -0.0000
    33   0.0000  -0.0000  -0.0000   0.0000  -0.0000  -0.0000   0.0000   0.0000  -0.0000  -0.0000
    34   0.0000  -0.0000  -0.0000   0.0000  -0.0000   0.0000   0.0000   0.0000   0.0000  -0.0000
    35   0.0001  -0.0000  -0.0000  -0.0012  -0.0003   0.0001  -0.0007   0.0000   0.0000   0.0013
    36   0.0000   0.0000   0.0000  -0.0000  -0.0000  -0.0000   0.0000  -0.0000  -0.0000  -0.0000
    37  -0.0000  -0.0000  -0.0000   0.0000  -0.0000   0.0000  -0.0000  -0.0000   0.0000  -0.0000
    38   0.0000   0.0000  -0.0000  -0.0000   0.0000  -0.0000   0.0000  -0.0000  -0.0000   0.0000
    39  -0.0000  -0.0000   0.0000   0.0000   0.0000   0.0000  -0.0000  -0.0000   0.0000   0.0000
    40  -0.0000   0.0000  -0.0000  -0.0000  -0.0000  -0.0000  -0.0000  -0.0000   0.0000  -0.0000
    41  -0.0000   0.0000  -0.0000  -0.0000  -0.0000  -0.0000  -0.0000  -0.0000  -0.0000  -0.0000
    42  -0.0000  -0.0000   0.0000  -0.0000   0.0000   0.0000  -0.0000   0.0002   0.0000   0.0000
    43   0.0000   0.0000  -0.0000   0.0000  -0.0000  -0.0000   0.0000   0.0000  -0.0002  -0.0000
    44  -0.0000  -0.0000   0.0000  -0.0003   0.0000   0.0002   0.0002  -0.0000   0.0000  -0.0009
    45   0.0000   0.0000   0.0000  -0.0000  -0.0000  -0.0000  -0.0000  -0.0026  -0.0010   0.0000
    46   0.0000   0.0000   0.0000  -0.0000  -0.0000  -0.0000   0.0000   0.0010  -0.0026  -0.0000
    47  -0.0000  -0.0000   0.0000   0.0000  -0.0000   0.0000   0.0000   0.0007   0.0003   0.0000
    48   0.0000   0.0000   0.0000  -0.0000   0.0000  -0.0000  -0.0000   0.0003  -0.0007   0.0000
    49  -0.0002  -0.0000   0.0001  -0.0001   0.0002  -0.0001  -0.0018  -0.0000   0.0000   0.0018
    50   0.0002   0.0000   0.0001  -0.0003  -0.0002  -0.0002   0.0001   0.0000  -0.0000   0.0008
    51   0.0001  -0.0000  -0.0001   0.0001   0.0000  -0.0001  -0.0002  -0.0000   0.0000  -0.0003
    52  -0.0001  -0.0000  -0.0001  -0.0001  -0.0001  -0.0000   0.0002  -0.0000  -0.0000   0.0003
    53  -0.0000  -0.9999   0.0154   0.0025   0.0005   0.0017  -0.0063   0.0000  -0.0000  -0.0002
    54   0.0000  -0.0002  -0.0001   0.3451   0.6969  -0.6196   0.1344   0.0000   0.0000  -0.0044
    55  -0.0000  -0.0000   0.0001  -0.0225  -0.0079  -0.0142   0.2839  -0.0940   0.2312   0.4735
    56  -0.0000  -0.0000   0.0000  -0.0037  -0.0013  -0.0023   0.0463   0.3199   0.0945   0.0774
    57  -0.0000  -0.0000   0.0001  -0.0248  -0.0087  -0.0157   0.3125   0.0380  -0.2241   0.5212
    58  -0.0000   0.0000   0.0001   0.0116   0.0159  -0.0103  -0.0148   0.0000   0.0000  -0.0364
    59  -0.0000   0.0000   0.0000   0.0018   0.0008   0.0005  -0.0078  -0.0199  -0.0083  -0.0115
    60   0.0000  -0.0001  -0.0000  -0.0044  -0.0020  -0.0011   0.0191   0.0052  -0.0184   0.0280
    61   0.0000  -0.0001  -0.0001  -0.0076  -0.0034  -0.0020   0.0325  -0.0079   0.0088   0.0477
    62   0.0000  -0.0000  -0.0000   0.0021   0.0020  -0.0004  -0.0042  -0.0048  -0.0036   0.0012
    63   0.0000  -0.0000  -0.0000   0.0042   0.0040  -0.0007  -0.0083  -0.0005   0.0044   0.0023
    64  -0.0000   0.0000   0.0000  -0.0024  -0.0022   0.0004   0.0046  -0.0028   0.0033  -0.0013
    65  -0.0000   0.0000   0.0000  -0.0022  -0.0020   0.0004   0.0042  -0.0021   0.0015  -0.0012
    66   0.0000  -0.0000  -0.0000   0.0004   0.0004  -0.0001  -0.0007   0.0031  -0.0008   0.0002
    67   0.0000   0.0001  -0.0001  -0.0049  -0.0056   0.0032   0.0054   0.0000   0.0000   0.0046
    68   0.0000  -0.0000  -0.0000   0.0002   0.0001   0.0000  -0.0005  -0.0002  -0.0005  -0.0003
    69   0.0000  -0.0000  -0.0000   0.0003   0.0002   0.0001  -0.0009  -0.0009  -0.0006  -0.0006
    70  -0.0000   0.0000   0.0000  -0.0001  -0.0001  -0.0000   0.0003   0.0005  -0.0020   0.0002
    71  -0.0000   0.0000   0.0000  -0.0001  -0.0001  -0.0000   0.0004  -0.0012   0.0001   0.0003
    72  -0.0000   0.0000   0.0000  -0.0001  -0.0001  -0.0000   0.0004  -0.0010  -0.0004   0.0003
    73  -0.0000   0.0000   0.0000  -0.0001  -0.0001  -0.0000   0.0004   0.0010   0.0002   0.0003
    74   0.0000  -0.0000  -0.0000   0.0011   0.0006   0.0003  -0.0031   0.0002   0.0000  -0.0021
    75   0.0000   0.0001  -0.0000   0.0002   0.0000   0.0000   0.0005  -0.0001   0.0002   0.0011
    76   0.0000   0.0001  -0.0000   0.0002   0.0000   0.0000   0.0005   0.0000  -0.0002   0.0012
    77   0.0000   0.0000  -0.0000   0.0000   0.0000   0.0000   0.0001   0.0003   0.0001   0.0001
    78  -0.0000   0.0002   0.0000   0.0002   0.0002  -0.0000  -0.0004   0.0000  -0.0000  -0.0000

 MOs :     11       12       13       14       15       16       17       18       19       20
 occup:   2.00     2.00     2.00     2.00     0.00     0.00     0.00     0.00     0.00     0.00
 CF+SFO
     1   0.0000   0.0000  -0.0000  -0.0000  -0.0043   0.0130  -0.0212  -0.0323   0.0000   0.0000
     2  -0.0000  -0.0000   0.0000   0.0000   0.0045  -0.0193   0.0298   0.0447  -0.0000  -0.0000
     3  -0.0000  -0.0000   0.0000   0.0000   0.0651  -0.1837   0.2676   0.4193  -0.0000  -0.0000
     4   0.0000   0.0000  -0.0000  -0.0000  -0.0626   0.1176  -0.2140  -0.3285   0.0000   0.0000
     5   0.0001   0.0000  -0.0000   0.0000  -0.1391   0.0695  -0.1179  -0.2646   0.0000   0.0000
     6   0.4943   0.1592  -0.0440  -0.0119  -0.0000   0.0000  -0.0000  -0.0000  -0.0514  -0.0527
     7   0.1592  -0.4943  -0.0119   0.0440   0.0000  -0.0000   0.0000  -0.0000  -0.0527   0.0514
     8   0.4673   0.1106  -0.7955  -0.1494   0.0000   0.0000   0.0000   0.0000   0.0236   0.0206
     9  -0.1106   0.4673   0.1494  -0.7955  -0.0000   0.0000  -0.0000  -0.0000  -0.0206   0.0236
    10  -0.0001  -0.0000  -0.0000   0.0000  -0.8772   0.0524  -0.1914  -0.2742   0.0000   0.0000
    11  -0.0000  -0.0000   0.0000  -0.0000  -0.0381   0.4554   0.9182   1.2642  -0.0000  -0.0000
    12   0.0000   0.0000  -0.0000  -0.0000   0.0251  -0.3734  -0.1957   1.5354  -0.0000  -0.0000
    13   0.0298   0.0075  -0.0128  -0.0026   0.0000  -0.0000  -0.0000  -0.0000   0.5989   0.5394
    14   0.0075  -0.0298  -0.0026   0.0128  -0.0000  -0.0000   0.0000   0.0000   0.5394  -0.5989
    15  -0.0000  -0.0000  -0.0000  -0.0000  -0.0181  -0.0308   0.0824   0.0361  -0.0000  -0.0000
    16   0.0092  -0.0188  -0.0100   0.0230  -0.0000  -0.0000   0.0000   0.0000  -0.0595   0.0433
    17   0.0188   0.0092  -0.0230  -0.0100   0.0000   0.0000  -0.0000   0.0000  -0.0433  -0.0595
    18  -0.0000  -0.0000  -0.0000  -0.0000  -0.0113   0.0347  -0.1196  -0.0909   0.0000   0.0000
    19  -0.0018  -0.0008  -0.0041  -0.0017  -0.0000  -0.0000   0.0000  -0.0000   0.0062   0.0082
    20   0.0008  -0.0018   0.0017  -0.0041  -0.0000   0.0000  -0.0000   0.0000  -0.0082   0.0062
    21   0.0000  -0.0000  -0.0000   0.0000   0.0000   0.0000  -0.0000   0.0000   0.0000   0.0000
    22  -0.0000  -0.0000  -0.0000  -0.0000   0.0000  -0.0000  -0.0000  -0.0000  -0.0000  -0.0000
    23  -0.0000  -0.0000  -0.0000   0.0000   0.0044   0.0208  -0.0265  -0.0264   0.0000   0.0000
    24   0.0000  -0.0000  -0.0000  -0.0000   0.0000  -0.0000  -0.0000  -0.0000  -0.0000  -0.0000
    25   0.0000   0.0000  -0.0000  -0.0000   0.0000   0.0000   0.0000   0.0000   0.0000   0.0000
    26   0.0000   0.0000  -0.0000  -0.0000  -0.0035   0.0108  -0.0366  -0.0368   0.0000   0.0000
    27   0.0000   0.0000   0.0000   0.0000  -0.0041   0.0429  -0.0368  -0.0623   0.0000   0.0000
    28  -0.0026  -0.0008  -0.0031  -0.0008  -0.0000   0.0000  -0.0000  -0.0000  -0.0063  -0.0062
    29  -0.0008   0.0026  -0.0008   0.0031  -0.0000   0.0000  -0.0000  -0.0000  -0.0062   0.0063
    30   0.0000  -0.0000   0.0000   0.0000  -0.0023  -0.0051   0.0121   0.0128   0.0000  -0.0000
    31  -0.0014  -0.0005  -0.0005  -0.0002   0.0000  -0.0000  -0.0000  -0.0000  -0.0046  -0.0050
    32  -0.0005   0.0014  -0.0002   0.0005  -0.0000  -0.0000   0.0000   0.0000  -0.0050   0.0046
    33   0.0000   0.0000   0.0000  -0.0000   0.0000  -0.0000  -0.0000  -0.0000   0.0000  -0.0000
    34  -0.0000  -0.0000   0.0000   0.0000   0.0000  -0.0000  -0.0000  -0.0000  -0.0000   0.0000
    35   0.0000   0.0000   0.0000  -0.0000  -0.0013  -0.0010   0.0035   0.0050  -0.0000  -0.0000
    36  -0.0000   0.0000  -0.0000  -0.0000   0.0000   0.0000  -0.0000  -0.0000  -0.0000   0.0000
    37  -0.0000   0.0000  -0.0000   0.0000  -0.0000  -0.0000  -0.0000  -0.0000   0.0000  -0.0000
    38   0.0000   0.0000  -0.0000  -0.0000   0.0000   0.0000  -0.0000  -0.0000   0.0000   0.0000
    39   0.0000  -0.0000  -0.0000   0.0000  -0.0000   0.0000   0.0000  -0.0000   0.0000  -0.0000
    40   0.0000   0.0000  -0.0000   0.0000  -0.0000  -0.0000  -0.0000  -0.0000  -0.0000   0.0000
    41  -0.0000  -0.0000   0.0000  -0.0000  -0.0000  -0.0000  -0.0000   0.0000   0.0000  -0.0000
    42  -0.0007  -0.0002   0.0017   0.0003  -0.0000  -0.0000  -0.0000  -0.0000   0.0021   0.0017
    43  -0.0002   0.0007   0.0003  -0.0017   0.0000  -0.0000  -0.0000  -0.0000   0.0017  -0.0021
    44  -0.0000  -0.0000  -0.0000   0.0000  -0.0028   0.0016  -0.0004  -0.0001   0.0000   0.0000
    45  -0.0023  -0.0010   0.0006   0.0002  -0.0000  -0.0000  -0.0000  -0.0000   0.0043   0.0055
    46   0.0010  -0.0023  -0.0002   0.0006   0.0000   0.0000   0.0000  -0.0000  -0.0055   0.0043
    47  -0.0018  -0.0008   0.0028   0.0011   0.0000  -0.0000   0.0000   0.0000  -0.0007  -0.0009
    48  -0.0008   0.0018   0.0011  -0.0028   0.0000   0.0000  -0.0000  -0.0000  -0.0009   0.0007
    49   0.0000   0.0000  -0.0000   0.0000  -0.0001   0.0009  -0.0004  -0.0041   0.0000   0.0000
    50   0.0000   0.0000   0.0000  -0.0000   0.0018  -0.0003   0.0007   0.0006   0.0000   0.0000
    51  -0.0000  -0.0000   0.0000   0.0000   0.0002  -0.0013   0.0018   0.0028  -0.0000  -0.0000
    52   0.0000   0.0000  -0.0000  -0.0000  -0.0003   0.0008  -0.0014  -0.0020   0.0000   0.0000
    53   0.0000   0.0000  -0.0000   0.0000  -0.0081   0.0049  -0.0215  -0.0764   0.0000   0.0000
    54  -0.0000  -0.0000  -0.0000   0.0000   0.1267  -0.0745   0.2462   0.7792  -0.0000  -0.0000
    55   0.2250  -0.4739   0.1795  -0.4286  -0.3945   0.0566  -0.1564  -0.2164   0.0377  -0.0282
    56  -0.6600  -0.2367  -0.5937  -0.1821  -0.0644   0.0092  -0.0255  -0.0353  -0.0424  -0.0465
    57  -0.1064   0.4657  -0.0750   0.4164  -0.4343   0.0623  -0.1722  -0.2382  -0.0280   0.0325
    58  -0.0000  -0.0000  -0.0000  -0.0000   0.0443   0.7768  -1.0258  -1.5042   0.0000   0.0000
    59   0.0344   0.0168   0.0303   0.0131   0.0065   0.0004  -0.0160  -0.0266   0.2557   0.3503
    60  -0.0112   0.0321  -0.0083   0.0280  -0.0159  -0.0010   0.0389   0.0649  -0.2817   0.2621
    61   0.0149  -0.0148   0.0122  -0.0133  -0.0271  -0.0017   0.0663   0.1106   0.2269  -0.0694
    62   0.0005   0.0004  -0.0033  -0.0025  -0.0056   0.0002   0.0098   0.0157   0.0004   0.0010
    63   0.0001  -0.0005  -0.0004   0.0031  -0.0110   0.0003   0.0195   0.0311   0.0005  -0.0006
    64   0.0003  -0.0003  -0.0020   0.0023   0.0062  -0.0002  -0.0109  -0.0173   0.0008  -0.0002
    65   0.0002  -0.0001  -0.0015   0.0010   0.0056  -0.0002  -0.0100  -0.0159   0.0005  -0.0000
    66  -0.0003   0.0001   0.0022  -0.0005  -0.0010   0.0000   0.0017   0.0028  -0.0006  -0.0002
    67   0.0000   0.0000  -0.0000   0.0000   0.0024  -0.0227   0.0660   0.1666  -0.0000  -0.0000
    68   0.0001   0.0004   0.0001   0.0002   0.0001  -0.0002   0.0010   0.0006  -0.0003   0.0018
    69   0.0009   0.0006   0.0004   0.0003   0.0001  -0.0005   0.0019   0.0012   0.0018   0.0036
    70  -0.0006   0.0019  -0.0003   0.0009  -0.0000   0.0001  -0.0006  -0.0004  -0.0056   0.0053
    71   0.0012  -0.0001   0.0006  -0.0001  -0.0000   0.0002  -0.0009  -0.0006   0.0041   0.0019
    72   0.0010   0.0004   0.0005   0.0002  -0.0000   0.0002  -0.0009  -0.0006   0.0025   0.0032
    73  -0.0009  -0.0003  -0.0005  -0.0001  -0.0000   0.0002  -0.0008  -0.0005  -0.0027  -0.0027
    74  -0.0002  -0.0001  -0.0001  -0.0000   0.0003  -0.0015   0.0065   0.0041  -0.0005  -0.0005
    75   0.0003  -0.0007   0.0003  -0.0008  -0.0015   0.0005  -0.0054  -0.0083   0.0006  -0.0005
    76  -0.0002   0.0007  -0.0002   0.0008  -0.0016   0.0005  -0.0058  -0.0088  -0.0005   0.0005
    77  -0.0011  -0.0004  -0.0011  -0.0003  -0.0002   0.0001  -0.0007  -0.0011  -0.0007  -0.0008
    78  -0.0000   0.0000  -0.0000   0.0000  -0.0004   0.0005  -0.0016  -0.0051   0.0000   0.0000

 MOs :     21       22       23       24       25       26       27       28       29       30
 occup:   0.00     0.00     0.00     0.00     0.00     0.00     0.00     0.00     0.00     0.00
 CF+SFO
     1   0.0000  -0.0000   0.0303  -0.0000  -0.0000  -0.0560  -0.0422  -0.0000  -0.0000  -0.0000
     2  -0.0000   0.0000  -0.0360   0.0000   0.0000   0.0710   0.0524   0.0000   0.0000   0.0000
     3  -0.0000   0.0000  -0.2960   0.0000   0.0000   0.6260   0.4790   0.0000   0.0000   0.0000
     4   0.0000  -0.0000   0.2674  -0.0000  -0.0000  -0.5277  -0.4160  -0.0000  -0.0000  -0.0000
     5   0.0000  -0.0000   0.1808  -0.0000  -0.0000  -0.3350  -0.3248  -0.0000  -0.0000  -0.0000
     6  -0.0213   0.0471  -0.0000  -0.0023  -0.0647  -0.0000  -0.0000  -0.0346  -0.0095   0.0000
     7  -0.0471  -0.0213  -0.0000  -0.0647   0.0023  -0.0000   0.0000  -0.0095   0.0346   0.0000
     8   0.0476  -0.0863   0.0000   0.0041   0.0362   0.0000   0.0000   0.0331   0.0063  -0.0000
     9  -0.0863  -0.0476   0.0000  -0.0362   0.0041  -0.0000  -0.0000  -0.0063   0.0331   0.0000
    10   0.0000  -0.0000   0.1453  -0.0000  -0.0000  -0.3981  -0.3509  -0.0000  -0.0000  -0.0000
    11  -0.0000   0.0000  -0.3528   0.0000   0.0001   1.1107   0.8116   0.0000   0.0000   0.0000
    12  -0.0000   0.0000  -0.2962   0.0000   0.0001   1.0520   0.8459   0.0000   0.0000   0.0000
    13  -0.2717   0.5097  -0.0000  -0.0244  -0.2440  -0.0000   0.0000  -0.0197  -0.0041   0.0000
    14  -0.5097  -0.2717  -0.0000  -0.2440   0.0244   0.0000   0.0000  -0.0041   0.0197   0.0000
    15  -0.0000   0.0001   0.5528  -0.0000   0.0001   0.7807   0.8212   0.0000   0.0000   0.0000
    16  -0.3989  -0.1153   0.0000   0.9143   0.0998   0.0000   0.0000   0.0206  -0.0472  -0.0000
    17  -0.1153   0.3989   0.0000  -0.0998   0.9143  -0.0001  -0.0001   0.0472   0.0206  -0.0000
    18  -0.0000   0.0000   0.4220  -0.0000  -0.0001   0.2920  -1.0281   0.0000  -0.0000   0.0000
    19   0.0075  -0.0243   0.0000  -0.0097   0.1073  -0.0000  -0.0000   0.7440   0.3078   0.0000
    20  -0.0243  -0.0075  -0.0000  -0.1073  -0.0097   0.0000  -0.0000  -0.3078   0.7440   0.0000
    21   0.0000   0.0000  -0.0000   0.0000  -0.0000  -0.0000  -0.0000   0.0000  -0.0000   0.8366
    22   0.0000  -0.0000   0.0000   0.0000  -0.0000   0.0000  -0.0000  -0.0000  -0.0000  -0.1014
    23  -0.0000   0.0000   0.0726   0.0000  -0.0000  -0.0895   0.1798  -0.0000  -0.0000  -0.0000
    24  -0.0000  -0.0000  -0.0000   0.0000   0.0000   0.0000  -0.0000   0.0000   0.0000  -0.1589
    25   0.0000   0.0000   0.0000  -0.0000   0.0000   0.0000   0.0000  -0.0000  -0.0000  -0.0019
    26   0.0000  -0.0000  -0.0109   0.0000  -0.0000  -0.0956  -0.1731  -0.0000  -0.0000  -0.0000
    27   0.0000  -0.0000   0.0368  -0.0000  -0.0000  -0.0980  -0.0328  -0.0000   0.0000  -0.0000
    28  -0.0028   0.0058   0.0000   0.0004   0.0062  -0.0000  -0.0000   0.0566   0.0141  -0.0000
    29  -0.0058  -0.0028   0.0000   0.0062  -0.0004  -0.0000  -0.0000   0.0141  -0.0566   0.0000
    30  -0.0000   0.0000  -0.0301  -0.0000   0.0000   0.0494   0.0199   0.0000   0.0000   0.0000
    31  -0.0021   0.0050   0.0000  -0.0000  -0.0018  -0.0000   0.0000   0.0096   0.0029   0.0000
    32  -0.0050  -0.0021  -0.0000  -0.0018   0.0000   0.0000  -0.0000   0.0029  -0.0096   0.0000
    33   0.0000  -0.0000   0.0000  -0.0000  -0.0000   0.0000   0.0000   0.0000  -0.0000   0.0130
    34  -0.0000  -0.0000  -0.0000   0.0000  -0.0000   0.0000  -0.0000   0.0000   0.0000  -0.0006
    35  -0.0000   0.0000  -0.0224   0.0000   0.0000   0.0279   0.0012   0.0000   0.0000   0.0000
    36   0.0000   0.0000   0.0000   0.0000  -0.0000  -0.0000  -0.0000   0.0000  -0.0000  -0.0000
    37   0.0000  -0.0000  -0.0000  -0.0000   0.0000   0.0000  -0.0000   0.0000  -0.0000  -0.0000
    38  -0.0000  -0.0000   0.0000   0.0000  -0.0000  -0.0000  -0.0000   0.0000  -0.0000  -0.0000
    39  -0.0000   0.0000  -0.0000  -0.0000  -0.0000  -0.0000  -0.0000  -0.0000   0.0000  -0.0000
    40  -0.0000   0.0000  -0.0000   0.0000  -0.0000   0.0000   0.0000  -0.0000  -0.0000  -0.0067
    41  -0.0000  -0.0000   0.0000  -0.0000   0.0000   0.0000   0.0000   0.0000   0.0000   0.0011
    42   0.0010  -0.0017   0.0000   0.0001   0.0009  -0.0000  -0.0000  -0.0003  -0.0000  -0.0000
    43   0.0017   0.0010   0.0000   0.0009  -0.0001  -0.0000   0.0000  -0.0000   0.0003   0.0000
    44  -0.0000   0.0000  -0.0031   0.0000   0.0000  -0.0045  -0.0107  -0.0000  -0.0000  -0.0000
    45  -0.0004   0.0012   0.0000  -0.0004   0.0063   0.0000  -0.0000  -0.0028  -0.0011   0.0000
    46   0.0012   0.0004  -0.0000  -0.0063  -0.0004  -0.0000   0.0000   0.0011  -0.0028  -0.0000
    47  -0.0026   0.0083   0.0000   0.0002  -0.0021   0.0000   0.0000   0.0035   0.0014  -0.0000
    48  -0.0083  -0.0026   0.0000  -0.0021  -0.0002  -0.0000  -0.0000   0.0014  -0.0035  -0.0000
    49   0.0000   0.0000   0.0106  -0.0000  -0.0000  -0.0198  -0.0223  -0.0000  -0.0000  -0.0000
    50  -0.0000   0.0000  -0.0037   0.0000   0.0000   0.0115   0.0078  -0.0000  -0.0000  -0.0000
    51  -0.0000   0.0000  -0.0021   0.0000   0.0000   0.0044   0.0028   0.0000   0.0000   0.0000
    52   0.0000  -0.0000   0.0019  -0.0000  -0.0000  -0.0038  -0.0030  -0.0000  -0.0000  -0.0000
    53   0.0000  -0.0000   0.0139  -0.0000  -0.0000  -0.0740  -0.0990  -0.0000  -0.0000  -0.0000
    54  -0.0000   0.0000  -0.1715   0.0000   0.0000   0.7793   0.9235   0.0000   0.0000   0.0000
    55  -0.0264  -0.0080   0.1608  -0.1445  -0.0141  -0.3136  -0.4529   0.0281  -0.0666  -0.0000
    56   0.0141  -0.0340   0.0263   0.0004   0.1940  -0.0512  -0.0739  -0.0923  -0.0286  -0.0000
    57   0.0219   0.0123   0.1771   0.1312  -0.0161  -0.3452  -0.4985  -0.0119   0.0648  -0.0000
    58   0.0000  -0.0000   0.3753  -0.0000  -0.0001  -1.4517  -0.8972  -0.0000  -0.0000  -0.0000
    59   0.1934  -0.6660   0.1756  -0.0654   0.6054  -0.2240  -0.1398  -0.1098  -0.0477  -0.0000
    60  -0.5663  -0.2404  -0.4276  -0.5402   0.0061   0.5456   0.3405   0.0305  -0.1017   0.0000
    61   0.3788  -0.0194  -0.7288   0.3012   0.1424   0.9299   0.5804  -0.0443   0.0482   0.0000
    62   0.0003  -0.0075   0.0430  -0.0425   0.1181  -0.0603   0.0128  -0.3311  -0.2508   0.1270
    63   0.0047   0.0030   0.0853   0.0924  -0.0161  -0.1197   0.0254  -0.0403   0.3076   0.0190
    64   0.0054  -0.0002  -0.0476   0.0825   0.0374   0.0668  -0.0142  -0.1995   0.2237   0.1940
    65   0.0031  -0.0009  -0.0436   0.0429   0.0340   0.0612  -0.0130  -0.1497   0.1021   0.0183
    66  -0.0032   0.0024   0.0076  -0.0338  -0.0581  -0.0107   0.0023   0.2168  -0.0495   0.3886
    67  -0.0000   0.0000  -0.0383   0.0000   0.0000   0.1632   0.0251   0.0000   0.0000  -0.0000
    68  -0.0001  -0.0001  -0.0000   0.0010  -0.0008   0.0009   0.0073  -0.0007  -0.0020  -0.0041
    69   0.0000  -0.0003  -0.0000   0.0008  -0.0028   0.0016   0.0137  -0.0041  -0.0026   0.0073
    70  -0.0005  -0.0002   0.0000   0.0054  -0.0001  -0.0005  -0.0044   0.0025  -0.0088  -0.0024
    71   0.0002  -0.0002   0.0000  -0.0012  -0.0029  -0.0007  -0.0063  -0.0053   0.0005  -0.0066
    72   0.0001  -0.0003   0.0000   0.0002  -0.0029  -0.0008  -0.0064  -0.0045  -0.0018   0.0101
    73  -0.0001   0.0002   0.0000   0.0001   0.0027  -0.0007  -0.0059   0.0044   0.0011   0.0098
    74  -0.0000   0.0000  -0.0000   0.0000   0.0005   0.0055   0.0459   0.0008   0.0002   0.0000
    75  -0.0047  -0.0015   0.0138  -0.0112  -0.0009  -0.0319  -0.0345   0.0000  -0.0000  -0.0000
    76   0.0041   0.0022   0.0147   0.0106  -0.0010  -0.0339  -0.0366  -0.0000   0.0000  -0.0000
    77   0.0026  -0.0062   0.0018   0.0001   0.0154  -0.0041  -0.0044  -0.0000  -0.0000   0.0000
    78   0.0000  -0.0000   0.0010  -0.0000  -0.0000  -0.0050  -0.0056  -0.0000  -0.0000  -0.0000

 MOs :     31       32       33       34       35       36       37       38       39       40
 occup:   0.00     0.00     0.00     0.00     0.00     0.00     0.00     0.00     0.00     0.00
 CF+SFO
[...]
   64    1.96148774848394E-15 -1.97999033618376E-16 -1.39658792343289E-16  1.00000000000000E+00
   65   -2.24689041786359E-15 -1.44237174829788E-15 -5.80833361821850E-15 -3.71018896215634E-15
   66   -8.34002615910214E-16  4.95073181736483E-16 -1.73215696614663E-16 -2.92481323719857E-15
   67   -5.04160786469338E-16  3.44227413500570E-16 -2.17443521955546E-16 -2.18114372049771E-16
   68    1.80457955368629E-15  8.41980395723928E-17  3.37446448889678E-15  5.64444502490252E-15
   69   -6.86452441113830E-17 -7.08785311801137E-16 -1.97123794473978E-15 -1.18938037112844E-15
   70   -1.07486342248379E-15 -1.26726716821084E-18 -1.59178370151233E-15  1.85429212911888E-15
   71    4.23943801749040E-16  2.80139206645415E-16  2.75651880200746E-15 -3.39121498894521E-16
   72    1.16491170686463E-16 -4.01559473810187E-16  1.55823823218574E-15  2.38180159053752E-16
   73    1.24553314981724E-15  2.69037039926634E-16  2.45316898678314E-15  3.34902533663365E-15
   74    1.69517720173540E-15 -8.64180282238516E-16 -1.79836783756760E-15  1.24982083059624E-15
   75   -8.09301017585910E-16  7.44025270538705E-17  5.48201417528878E-16 -1.03819134279065E-16
   76   -1.34715508063113E-15 -2.02379040988628E-16 -1.78752242771096E-15  4.97780934310618E-16
   77   -1.92731759235875E-16  2.05534026958914E-16 -2.25002232218607E-16  1.00954680609688E-16
   78    1.72171304990698E-15 -9.26342336171615E-16 -1.75293807247456E-15  1.10241676898326E-15

 column          65                    66                    67                    68
 row
   65    9.99999999999994E-01
   66    2.31870801212068E-15  1.00000000000000E+00
   67   -1.61854443693141E-16  2.95935524078760E-16  1.00000000000000E+00
   68    1.71668167420029E-16 -3.59403461941531E-15 -1.53863534868744E-18  1.00000000000001E+00
   69   -1.73928474839777E-16  1.25320276845683E-15  2.09444989834624E-16 -1.67179686892969E-16
   70   -6.11824719763020E-15 -3.95325602485971E-16 -1.92395063639342E-17  3.53377329418096E-15
   71    5.83487708968660E-15  5.62596345420770E-16 -3.02935827871343E-16 -3.58495821139922E-15
   72    2.00841718541009E-15 -6.58421526850784E-16  2.34936869898715E-16 -1.15839926757989E-15
   73    3.36769394279114E-16 -2.85508275859330E-15 -1.52674724127272E-16  1.91278737742332E-15
   74    1.91035406352409E-15 -9.33798555448058E-16  6.98819122143743E-16  2.77651470879329E-16
   75    9.81146214891915E-16  3.72198241363920E-16  2.99898791238963E-16 -1.24747857273885E-15
   76   -1.12010620505372E-15 -4.48645611831580E-16  2.09345886979795E-16  7.85714749894904E-16
   77   -8.22426428378326E-16  1.10496242062712E-17  7.53435806582700E-18  7.30125645162719E-16
   78    1.02565525517129E-15 -2.05944202663622E-16 -3.49373308061729E-15  3.92047505570758E-16

 column          69                    70                    71                    72
 row
   69    1.00000000000000E+00
   70   -1.50310369297866E-15  1.00000000000000E+00
   71    4.72308694822991E-16  2.98104460466301E-15  9.99999999999998E-01
   72    2.60970586351254E-16  1.99884776451404E-15 -1.31788006025702E-15  1.00000000000000E+00
   73   -1.42515479779331E-15  3.53490985357749E-15 -1.78272996823495E-15  3.08169070058210E-15
   74    8.79721642754738E-16  6.20822316657317E-16 -4.66358341308089E-16 -1.17542275046535E-15
   75    4.06179615020986E-16 -1.19694384595183E-16 -3.76934955484084E-16 -2.77341668578871E-16
   76    3.24376561106955E-16 -1.13078316123298E-16  5.58371212730968E-16  3.53694700752031E-16
   77   -9.41083224082902E-16 -5.44774778827985E-16 -1.73507790632567E-16  8.50059898900652E-17
   78    7.14380811450699E-16 -2.50396491735527E-16 -4.56720165159519E-16 -3.42336835962298E-16

 column          73                    74                    75                    76
 row
   73    1.00000000000000E+00
   74   -7.95794865483704E-17  1.00000000000000E+00
   75   -9.47847655669454E-16 -4.95083134373613E-16  1.00000000000000E+00
   76    1.35514747176318E-15  2.72151685952807E-16  2.40561168668484E-16  1.00000000000000E+00
   77    1.71369575071232E-16  3.13250995103006E-16  9.00841244624222E-17  2.20967284895242E-16
   78   -1.84964890626027E-16  2.09164283115904E-15 -1.03519623428916E-15 -1.33270131041918E-15

 column          77                    78
 row
   77    1.00000000000000E+00
   78   -1.63660317936687E-16  9.99999999999982E-01


 SFO contributions (%) per orbital
 (multiplication by the orbital occupation yields the SFO Gross Populations)

 Orb.:        5      6      7      8      9     10     11     12     13     14     15     16     17     18
 occup:     2.00   2.00   2.00   2.00   2.00   2.00   2.00   2.00   2.00   2.00   0.00   0.00   0.00   0.00
 CF+SFO     ----   ----   ----   ----   ----   ----   ----   ----   ----   ----   ----   ----   ----   ----
 ------
      3:   25.42   0.20   0.16   0.00   0.00   0.05   0.00   0.00   0.00   0.00   0.07   0.15  -0.15  -0.07
      4:   24.88  63.56   0.22   0.00   0.00   0.28   0.00   0.00   0.00   0.00   0.00  -0.06   0.13  -0.09
      5:    0.25   0.13  72.81   0.00   0.00  25.32   0.00   0.00   0.00   0.00   0.91   0.03  -0.18   0.62
      6:    0.00   0.00   0.00  69.59   4.71   0.00  22.82   2.37   0.32   0.02   0.00   0.00  -0.00  -0.00
      7:    0.00   0.00   0.00   4.71  69.59   0.00   2.37  22.82   0.02   0.32   0.00   0.00   0.00   0.00
      8:    0.00   0.00   0.00  11.69   0.37   0.00  23.46   1.31  60.85   2.15   0.00   0.00   0.00   0.00
      9:    0.00  -0.00   0.00   0.37  11.69   0.00   1.31  23.46   2.15  60.85   0.00  -0.00   0.00   0.00
     10:    0.32   0.02   3.75   0.00   0.00  25.16   0.00   0.00   0.00   0.00  70.22  -0.15   0.70  -0.11
     11:   -0.13   0.02   0.01  -0.00   0.00  -0.02  -0.00  -0.00   0.00   0.00   0.32  40.39  27.70  35.47
     12:    0.05  -0.14   0.11   0.00   0.00   0.06   0.00   0.00   0.00   0.00  -0.03  -1.45  15.48  83.65
     15:    0.04   0.00   0.05  -0.00  -0.00  -0.19  -0.00  -0.00  -0.00  -0.00   0.26  -0.15  -0.77  -1.26
     18:    0.03  -0.02  -0.08  -0.00   0.00   0.24   0.00   0.00   0.00  -0.00  -0.21   0.36   1.40  -0.25
     54:   49.02  35.82   0.68   0.00   0.00  -0.00   0.00   0.00   0.00  -0.00   0.25   0.14   0.33  -0.51
     55:    0.01   0.11  10.02   1.07   6.45  21.54   5.06  22.43   2.99  17.06  11.95   0.12   0.21  -0.68
     56:    0.00   0.00   0.27  12.35   1.08   0.58  43.50   5.60  32.73   3.08   0.32   0.00   0.01  -0.02
     57:    0.01   0.13  12.15   0.17   6.06  26.10   1.13  21.66   0.52  16.10  14.48   0.15   0.25  -0.82
     58:    0.09   0.12  -0.02  -0.00   0.00   0.22   0.00   0.00   0.00   0.00   0.59  60.20  56.14 -12.56
     60:    0.00  -0.01  -0.06  -0.01  -0.17   0.15   0.01   0.12   0.02   0.27   0.15  -0.00  -0.45  -1.50
     61:    0.00  -0.03  -0.17  -0.03  -0.04   0.44   0.03   0.02   0.05   0.06   0.44  -0.01  -1.32  -4.35
     67:   -0.02   0.01  -0.05   0.00   0.00   0.01   0.00   0.00   0.00  -0.00  -0.02  -0.12   0.31   1.53


 Summation over all MOs, multiplied by occupation: Total SFO Gross Populations in this Irrep
 ===========================================================================================

     2.00    2.00    2.00    2.00    1.98    2.00    2.00    2.00    2.00    0.59   -0.00    0.00
     0.00    0.00   -0.00    0.00    0.00    0.00    0.00    0.00    0.00    0.00    0.00    0.00
     0.00    0.00   -0.00    0.00    0.00   -0.00    0.00    0.00    0.00    0.00    0.00    0.00
     0.00    0.00    0.00    0.00    0.00    0.00    0.00   -0.00    0.00    0.00    0.00    0.00
     0.00   -0.00   -0.00   -0.00    2.00    1.99    1.74    1.98    1.69    0.00    0.01    0.01
     0.00    0.00    0.00    0.00    0.00    0.00   -0.00    0.00    0.00    0.00    0.00    0.00
     0.00    0.00    0.00    0.00    0.00   -0.00



 List of all MOs, ordered by energy, with the most significant SFO gross populations
 ===================================================================================

 Each percentage contribution in the table below corresponds to the indicated SFO.
 In general, a SFO may be a linear combination of several Fragment Orbitals on the same,
 or on symmetry-related Fragments. Only the first 'member' of such a combination is
 specified here. A full definition of all SFOs is given in an earlier part of the output.
 The numbering of the SFOs in this table does NOT include the Core Orbitals, and starts
 from one for each symmetry representation, as in the SFO definition list earlier.

       E(eV)  Occ       MO           %     SFO (first member)   E(eV)  Occ   Fragment
 -------------------------------------------------------------------------------------

     -20.056  2.00     6 A         63.56%     4 A             -29.171  2.00     1 FF
                                   35.82%     2 A             -15.093  2.00     2 F
      -6.048  2.00     7 A         72.81%     5 A             -13.982  2.00     1 FF
                                   12.15%     5 A               2.944  2.00     2 F
                                   10.02%     3 A               2.944  2.00     2 F
                                    3.75%    10 A              -9.639  0.00     1 FF
      -3.831  2.00     8 A         69.59%     6 A             -11.804  2.00     1 FF
                                   12.35%     4 A               2.944  2.00     2 F
                                   11.69%     8 A             -10.533  2.00     1 FF
                                    4.71%     7 A             -11.804  2.00     1 FF
                                    1.07%     3 A               2.944  2.00     2 F
      -3.831  2.00     9 A         69.59%     7 A             -11.804  2.00     1 FF
                                   11.69%     9 A             -10.533  2.00     1 FF
                                    6.45%     3 A               2.944  2.00     2 F
                                    6.06%     5 A               2.944  2.00     2 F
                                    4.71%     6 A             -11.804  2.00     1 FF
                                    1.08%     4 A               2.944  2.00     2 F
      -2.410  2.00    10 A         26.10%     5 A               2.944  2.00     2 F
                                   25.32%     5 A             -13.982  2.00     1 FF
                                   25.16%    10 A              -9.639  0.00     1 FF
                                   21.54%     3 A               2.944  2.00     2 F
      -2.292  2.00    11 A         43.50%     4 A               2.944  2.00     2 F
                                   23.46%     8 A             -10.533  2.00     1 FF
                                   22.82%     6 A             -11.804  2.00     1 FF
                                    5.06%     3 A               2.944  2.00     2 F
                                    2.37%     7 A             -11.804  2.00     1 FF
                                    1.31%     9 A             -10.533  2.00     1 FF
                                    1.13%     5 A               2.944  2.00     2 F
      -2.292  2.00    12 A         23.46%     9 A             -10.533  2.00     1 FF
                                   22.82%     7 A             -11.804  2.00     1 FF
                                   22.43%     3 A               2.944  2.00     2 F
                                   21.66%     5 A               2.944  2.00     2 F
                                    5.60%     4 A               2.944  2.00     2 F
                                    2.37%     6 A             -11.804  2.00     1 FF
                                    1.31%     8 A             -10.533  2.00     1 FF
      -1.652  2.00    13 A         60.85%     8 A             -10.533  2.00     1 FF
                                   32.73%     4 A               2.944  2.00     2 F
                                    2.99%     3 A               2.944  2.00     2 F
                                    2.15%     9 A             -10.533  2.00     1 FF
      -1.652  2.00    14 A         60.85%     9 A             -10.533  2.00     1 FF
                                   17.06%     3 A               2.944  2.00     2 F
                                   16.10%     5 A               2.944  2.00     2 F
                                    3.08%     4 A               2.944  2.00     2 F
                                    2.15%     8 A             -10.533  2.00     1 FF
       0.439  0.00    15 A         70.22%    10 A              -9.639  0.00     1 FF
                                   14.48%     5 A               2.944  2.00     2 F
                                   11.95%     3 A               2.944  2.00     2 F



 =======================================================================
 Electrostatic potential at the Nuclei due to electrons and other nuclei
 =======================================================================
  
         Atom                  Potential
         ----                  ---------
     1)   F                  26.80140477
     2)   F                  26.86103591
     3)   F                  26.86103014
 
 
 ========================
 No memory problems found
 ========================
 
 Maximum number of active allocate calls:         560
 
 *******************************************************************************

                             A D F   E X I T
 NORMAL TERMINATION



 =================
 Timing Statistics
 =================
  
 Total Used :                     CPU=        3.95      System=        0.13     Elapsed=        4.33

 Calls  Section                     ( Mean, Percentage )
 ---------------------------------------------------------------------------------------------------
     3  ><      ................      0.00    0.00             0.00    0.00             0.00    0.01
     1  INIT    ................      0.44   11.05             0.02   13.28             0.46   10.64
     1  GEOMET  ................      0.06    1.64             0.01    4.69             0.31    7.21
     1  FRAGM   ................      0.00    0.13             0.01    7.81             0.01    0.33
     1  INPUTA  ................      0.00    0.00             0.00    0.00             0.00    0.01
     1  ATDEN   ................      0.00    0.05             0.00    0.78             0.00    0.07
     1  MAINSY  ................      0.01    0.18             0.00    0.78             0.01    0.17
     1  SYMFIT  ................      0.00    0.03             0.00    0.00             0.00    0.04
     1  CORORT  ................      0.00    0.03             0.00    0.00             0.00    0.01
     1  SYMORB  ................      0.00    0.03             0.00    0.78             0.00    0.05
     1  CLSMAT  ................      0.01    0.25             0.00    0.00             0.01    0.23
     1  ORTHON  ................      0.00    0.10             0.00    0.78             0.01    0.13
     1  GENPT   ................      0.06    1.64             0.00    1.56             0.07    1.54
     1  PTBAS   ................      0.02    0.43             0.00    0.00             0.02    0.40
    19  FOCKY   ................      0.06   31.21             0.00   13.28             0.07   28.68
    19  FOCKTR  ................      0.00    0.40             0.00    0.00             0.00    0.50
    19  SDIIS   ................      0.00    1.09             0.00    0.00             0.00    1.08
     1  COREPS  ................      0.05    1.34             0.00    0.78             0.05    1.25
     1  TOTEN   ................      0.17    4.25             0.01    5.47             0.18    4.05
     1  POPAN   ................      0.00    0.08             0.00    0.00             0.00    0.06
     1  DEBYE   ................      0.00    0.10             0.00    0.00             0.00    0.07
     1  INPUTE  ................      0.00    0.00             0.00    0.00             0.00    0.01
     1  SYMORE  ................      0.00    0.00             0.00    0.00             0.00    0.01
     1  METS    ................      0.00    0.03             0.00    0.00             0.00    0.02
     1  CETS    ................      0.01    0.20             0.00    0.78             0.01    0.21
     1  POPUL   ................      1.79   45.32             0.06   47.66             1.85   42.77
     1  EXIT PROCEDURE .........      0.02    0.43             0.00    1.56             0.02    0.44


 Currently Open Files (EXIT00)
 ====================

 Unit    Access Format  Status   Type       Ident (file)
 -------------------------------------------------------
   3      SEQ    FORM   TRANSP  NORMAL      LOGFILE
                                          ( logfile )


 Buffered I/O statistics
 =======================
 Memory available:                     67108864
 Number of records fitting in memory:     16131
 Input :   1.1% of                        51041  *4k bytes
 Output:   9.9% of                         3759  *4k bytes
 Records from serial files evicted:           0
                    others evicted:           0
 Hash table lookups:     145040 with          0 conflicts (  0.00%)

 ***************************************************************************************************
 (LOGFILE)
 <May09-2019> <17:12:18>  ADF 2017  RunTime: May09-2019 17:12:18  Nodes: 1  Procs: 12
 <May09-2019> <17:12:19>  *** (NO TITLE) ***
 <May09-2019> <17:12:19>  RunType   : SINGLE POINT
 <May09-2019> <17:12:19>  Net Charge: -1 (Nuclei minus Electrons)
 <May09-2019> <17:12:19>  Symmetry  : NOSYM
 <May09-2019> <17:12:19>  >>>> FRAGM
  Coordinates
    Atom         X           Y           Z   (Angstrom)
    1.F        -4.925131    3.099648   -0.045735
    2.F        -4.099231    1.533937    0.157550
    3.F        -5.751018    4.665335   -0.249017
 <May09-2019> <17:12:19>  >>>> CORORT
 <May09-2019> <17:12:19>  >>>> CLSMAT
 <May09-2019> <17:12:19>  >>>> ORTHON
 <May09-2019> <17:12:19>  >>>> GENPT
 <May09-2019> <17:12:19>  Block Length= 128
 <May09-2019> <17:12:19>  >>>> PTBAS
 <May09-2019> <17:12:19>  >>>> CYCLE
 <May09-2019> <17:12:19>              |Error|         MaxErr       Wt(A-DIIS)
 <May09-2019> <17:12:19>      1      0.92135418      0.39098779
 <May09-2019> <17:12:19>      2      1.99761894      0.62382505    100.0
 <May09-2019> <17:12:19>      3      0.85148426      0.31026745    100.0
 <May09-2019> <17:12:19>      4      0.73578522      0.36013404    100.0
 <May09-2019> <17:12:19>      5      2.44256942      0.79513201    100.0
 <May09-2019> <17:12:20>      6      1.05743926      0.26479815    100.0
 <May09-2019> <17:12:20>      7      1.64894526      0.86466132    100.0
 <May09-2019> <17:12:20>      8      0.43084932      0.18817857    100.0
 <May09-2019> <17:12:20>      9      0.51434925      0.22524481    100.0
 <May09-2019> <17:12:20>     10      0.26964910      0.11519543    100.0
 <May09-2019> <17:12:20>     11      0.21731938      0.06589491     65.6
 <May09-2019> <17:12:20>     12      0.09586365      0.04708853     46.6
 <May09-2019> <17:12:20>     13      0.06479609      0.02881288     28.1
 <May09-2019> <17:12:20>     14      0.01294936      0.00501900      4.1
 <May09-2019> <17:12:20>     15      0.00213318      0.00085038      0.0
 <May09-2019> <17:12:20>     16      0.00001192      0.00000352      0.0
 <May09-2019> <17:12:20>     17      0.00000633      0.00000265      0.0
 <May09-2019> <17:12:20>     18      0.00000042      0.00000019      0.0
 <May09-2019> <17:12:20>  SCF converged
 <May09-2019> <17:12:20>     19      0.00000046      0.00000017      0.0
 <May09-2019> <17:12:20>  >>>> TOTEN
 <May09-2019> <17:12:21>  >>>> POPAN
 <May09-2019> <17:12:21>  >>>> DEBYE
 <May09-2019> <17:12:21>  >>>> AMETS
 <May09-2019> <17:12:22>   Bond Energy          -0.12400231 a.u.
 <May09-2019> <17:12:22>   Bond Energy          -3.37427463 eV
 <May09-2019> <17:12:22>   Bond Energy         -77.81       kcal/mol
 <May09-2019> <17:12:22>  >>>> POPUL
 <May09-2019> <17:12:22>  NORMAL TERMINATION
 <May09-2019> <17:12:22>  END
