
Create F   file=TZ2P-F
XC
  GGA blyp
  DISPERSION Grimme3 BJDAMP
End
End Input

 *******************************************************************************
 *                                                                             *
 *  -------------------------------------                                      *
 *   Amsterdam Density Functional  (ADF)         development version           *
 *  -------------------------------------                                      *
 *                                               r61132 2017-09-08             *
 *                                                                             *
 *                                                                             *
 *                              =================                              *
 *                              |               |                              *
 *                              |     A D F     |                              *
 *                              |               |                              *
 *                              =================                              *
 *                                                                             *
 *                                                                             *
 *   Online information and documentation:  https://www.scm.com/support/       *
 *   E-mail:  support@scm.com   info@scm.com                                   *
 *                                                                             *
 *   Scientific publications using ADF results must be properly referenced     *
 *   See the User Manuals (or the web site) for recommended citations          *
 *   The terms and conditions of the End User License Agreement apply to       *
 *   the use of ADF, https://www.scm.com/license-terms/                        *
 *                                                                             *
 **********************  x86_64_linux_intel / intelmpi  ************************
 
 Licensed to: VU/FEW (+ SARA) / ALGEMEEN / Amsterdam / THE NETHERLANDS
 SCM User ID: u7668
  
 ADF development version  RunTime: Apr18-2019 14:03:24  Nodes: 1  Procs: 1

 Temporary files are created in /local/datastore0/tcst25/186712/kid_0.pMDCdj

 Fluorine (TZ2P)



 ===========================
 A T T A C H E D   F I L E S
 ===========================
  
 CREATE - Data File:    TZ2P-F
                        Fluorine (TZ2P)



 ===============================
 M O D E L   P A R A M E T E R S
 ===============================
  
 DENSITY FUNCTIONAL POTENTIAL (scf)
    LDA:                               Exchange only                           == Not Default ==
    Gradient Corrections:              Becke88 LYP                             == Not Default ==

 SPIN  (restricted / unrestr.)
    Molecule:                          Restricted                               

 OTHER ASPECTS
    Relativistic Corrections:          ---                                      

    Nuclear Charge Density Model:      Point Charge Nuclei                      
    Core Treatment:                    Frozen Orbital(s)                        

    Hyperfine or Zeeman Interaction:   ---                                      

 Settings for Grimme 3 dispersion correction

      damping                        BJ
      s6                          1.000
      a1                          0.430
      s8                          2.700
      a2                          4.236

 Other (technical) parameters

      alpha                      14.000
      version                         4
 



 =====================================
 S Y M M E T R Y ,   E L E C T R O N S
 =====================================
  
 Symmetry: ATOM

 Irreducible Representations, including subspecies
 -------------------------------------------------
 S
 P:x  P:y  P:z
 D:z2  D:x2-y2  D:xy  D:xz  D:yz
 F:z3  F:z  F:xyz  F:z2x  F:z2y  F:x  F:y


 Configuration of Valence Electrons
 ==================================

          Occupation Numbers
          -------------------------------------------------
 S        2*2
 P        5
 D        0
 F        0
          -------------------------------------------------

 Total:   9

 Net Charge: 0 (Nuclei minus Electrons)

 Preset values for MO occupations will be applied through SCF cycle no. 1000000
 Thereafter, the program will assign electrons to MOs that are spatially
 similar to the occupied MOs in a "reference" cycle ("KeepOrbitals").
 The reference cycle is always the PREVIOUS cycle: it will evolve with
 the SCF procedure.



 ================================
 (Slater-type)  F U N C T I O N S  ***  (Basis and Fit)  ***
 ================================
  

 Atom Type    1  (F)
 ==============

 Valence Basis Sets:  10
 -----------------------
   1 S   10.880000
   1 S    7.700000
   2 S    3.240000
   2 S    1.940000
   2 S    0.740000
   2 P    4.540000
   2 P    2.300000
   2 P    1.240000
   3 D    2.000000
   4 F    3.000000


 BAS: List of all Elementary Cartesian Basis Functions
 =====================================================

 The numbering in the list below (to the right of the function characteristics) is referred
 to in print-outs of MO eigenvectors and Mulliken populations in the BAS representation
 (as contrasted to the SFO representation).

 Notes:
 1. The functions are characterized by a polynomial prefactor (powers of x,y,z and r) and
    an exponential decay factor alpha.
 2. Since the basis sets are specific for an atom TYPE, the individual functions occur on
    all atoms of that type.
 3. The word 'Core' in the left margin signals that it is a Core Function (CF) : not a
    degree of freedom in the valence set, but only used to ensure orthogonalization of
    the other valence basis functions on the frozen Core Orbitals.


 (power of) X  Y  Z  R     Alpha  on Atom
            ==========     =====     ==========

 F                                    1
                                  ---------------------------------------------------------------------------
            0  0  0  0    10.880      1
            0  0  0  0     7.700      2
            0  0  0  1     3.240      3
            0  0  0  1     1.940      4
            0  0  0  1     0.740      5
            1  0  0  0     4.540      6
            0  1  0  0     4.540      7
            0  0  1  0     4.540      8
            1  0  0  0     2.300      9
            0  1  0  0     2.300     10
            0  0  1  0     2.300     11
            1  0  0  0     1.240     12
            0  1  0  0     1.240     13
            0  0  1  0     1.240     14
            2  0  0  0     2.000     15
            1  1  0  0     2.000     16
            1  0  1  0     2.000     17
            0  2  0  0     2.000     18
            0  1  1  0     2.000     19
            0  0  2  0     2.000     20
            3  0  0  0     3.000     21
            2  1  0  0     3.000     22
            2  0  1  0     3.000     23
            1  2  0  0     3.000     24
            1  1  1  0     3.000     25
            1  0  2  0     3.000     26
            0  3  0  0     3.000     27
            0  2  1  0     3.000     28
            0  1  2  0     3.000     29
            0  0  3  0     3.000     30

 Total number of charge fitting functions (nprimf)        85
 Total number of Cartesian basis functions (naos)         30
 Total number of Cartesian core functions  (ncos)          0



 BAS: List of all Elementary Cartesian Basis Functions
 =====================================================

 The numbering in the list below (to the right of the function characteristics) is referred
 to in print-outs of MO eigenvectors and Mulliken populations in the BAS representation
 (as contrasted to the SFO representation).

 Notes:
 1. The functions are characterized by a polynomial prefactor (powers of x,y,z and r) and
    an exponential decay factor alpha.
 2. Since the basis sets are specific for an atom TYPE, the individual functions occur on
    all atoms of that type.
 3. The word 'Core' in the left margin signals that it is a Core Function (CF) : not a
    degree of freedom in the valence set, but only used to ensure orthogonalization of
    the other valence basis functions on the frozen Core Orbitals.


 (power of) X  Y  Z  R     Alpha  on Atom
            ==========     =====     ==========

 F                                    1
                                  ---------------------------------------------------------------------------
            0  0  0  0    10.880      1
            0  0  0  0     7.700      2
            0  0  0  1     3.240      3
            0  0  0  1     1.940      4
            0  0  0  1     0.740      5
            1  0  0  0     4.540      6
            0  1  0  0     4.540      7
            0  0  1  0     4.540      8
            1  0  0  0     2.300      9
            0  1  0  0     2.300     10
            0  0  1  0     2.300     11
            1  0  0  0     1.240     12
            0  1  0  0     1.240     13
            0  0  1  0     1.240     14
            2  0  0  0     2.000     15
            1  1  0  0     2.000     16
            1  0  1  0     2.000     17
            0  2  0  0     2.000     18
            0  1  1  0     2.000     19
            0  0  2  0     2.000     20
            3  0  0  0     3.000     21
            2  1  0  0     3.000     22
            2  0  1  0     3.000     23
            1  2  0  0     3.000     24
            1  1  1  0     3.000     25
            1  0  2  0     3.000     26
            0  3  0  0     3.000     27
            0  2  1  0     3.000     28
            0  1  2  0     3.000     29
            0  0  3  0     3.000     30
1
 ***************************************************************************************************



                                              ***********************
                                              *  T E C H N I C A L  *
                                              ***********************
  



 =============================================================
 P A R A L L E L I Z A T I O N  and  V E C T O R I Z A T I O N
 =============================================================
  
 Nr of parallel processes:                                1
 Maximum vector length in NumInt loops:                 128

 IO buffersize (Mb):                                     64.000000



 =====================
 S C F   U P D A T E S
 =====================
  
 Max. nr. of cycles:                               300
 Convergence criterion:                              0.0000000100
   secondary criterion:                              0.0000000100

 Mix parameter (when DIIS does not apply):           0.2000000000
 Special mix parameter for the first cycle:          1.0000000000
 Mixed ADIIS+DIIS will be used
    Max number of expansion vectors:                10
    Pure ADIIS when Max([F,P]) is above              0.1000000000
    Pure DIIS when Max([F,P]) is below               0.0010000000
 Automatic ElectronSmearing (in case of problematic SCF convergence) disabled



 =================
 P R E C I S I O N  ***  (General: NumInt, NeglectFunctionTails, ...)  ***
 =================
  

 NumInt:           Target precision:                12.0000000000
 -------           Initial precision:               10.0000000000
                   Min. precision (optimization):   10.0000000000

 Neglect Functions:          Basis functions:        0.1000000000E-13
 ------------------          Fit functions:          0.1000000000E-13



 ===========================
 L I N E A R   S C A L I N G
 ===========================
  

 Cut-off radii density fit:                        0.1000000000E-97
 Overlap cut-off criterion AO matrix elements:     0.1000000000E-97
 Cut-offs for Coulomb potential and fitted density:0.1000000000E-97
 Cut-off criterion for Coulomb multipole terms:    0.1000000000E-97
 Progressive Convergence parameter:                 0.000000000    
1
 ***************************************************************************************************



                                            ***************************
                                            *  C O M P U T A T I O N  *
                                            ***************************
  

 Number of elements of the density matrix on this node (used, total):       465       465



 ===========================================
 Numerical Integration : Fuzzy Cells (Becke)
 ===========================================
  
 Becke grid quality: VERYGOOD       
  
 Lebedev angular grid order:             min:  13 max:  41
 Nr. of radial points:                   min:  76 max:  76

 Total nr. of points:         76
 Nr. of blocks:                1
 Block length:                76
 Nr. of dummy points:          0


 Test of Precision of the Numerical Integration Grid
 ===================================================

 Integral of the Total Core Density:                   0.00000000000000



 ========================
 Density Fitting (zlmFit)
 ========================
  
 ZlmFit Fit Quality: VERYGOOD       
  
 Max L-expansion:                        min:   0 max:   0
 Nr. of radial interpolation points:     min: 170 max: 170



 =====
 S C F  ***  ScaSCF  ***
 =====
  

 CYCLE    1
 SCF Error: norm([F,P])=      0.000000000000, max([F,P])=      0.000000000000
 orbitals (Q,E):
 ---------------
 S :1...5            ( 2.00   -40.4878)  ( 2.00   -10.0106)  ( 0.00    -4.4145)  ( 0.00    -2.1243)
                     ( 0.00    34.3132)
 P :1...3            ( 5.00   -10.1248)  ( 0.00    -4.4262)  ( 0.00    -2.4124)
 D :1...1            ( 0.00    -4.0000)
 F :1...1            ( 0.00    -2.2500)

 CYCLE    2
  SDIIS (wt  0.000):  1.0000 -0.0000
 A-DIIS (wt  1.000):  0.0000  1.0000
  DIIS coefficients:  0.0000  1.0000
 SCF Error: norm([F,P])=     11.373794780581, max([F,P])=      4.777759414031
 orbitals (Q,E):
 ---------------
 S :1...3            ( 2.00   -18.8794)  ( 2.00    -0.0304)  ( 0.00     0.3093)
 P :1...2            ( 5.00     0.3553)  ( 0.00     1.5643)
 D :1...1            ( 0.00     1.6494)
 F :1...1            ( 0.00     4.0453)

 CYCLE    3
  SDIIS (wt  0.000):  0.2302  0.7698
 A-DIIS (wt  1.000):  0.4427  0.5573
  DIIS coefficients:  0.4427  0.5573
 SCF Error: norm([F,P])=      5.107371177545, max([F,P])=      3.125425661947
 orbitals (Q,E):
 ---------------
 S :1...3            ( 2.00   -24.7932)  ( 2.00    -1.7827)  ( 0.00    -0.0636)
 P :1...2            ( 5.00    -1.0793)  ( 0.00     0.2021)
 D :1...1            ( 0.00     0.6865)
 F :1...1            ( 0.00     2.8888)

 CYCLE    4
  SDIIS (wt  0.000): -0.0128  0.1085  0.9043
 A-DIIS (wt  1.000):  0.0000  0.0000  1.0000
  DIIS coefficients:  0.0000  0.0000  1.0000
 SCF Error: norm([F,P])=      0.965884247460, max([F,P])=      0.451655557762
 orbitals (Q,E):
 ---------------
 S :1...3            ( 2.00   -23.6749)  ( 2.00    -0.7847)  ( 0.00     0.0644)
 P :1...2            ( 5.00    -0.1299)  ( 0.00     0.5762)
 D :1...1            ( 0.00     1.2513)
 F :1...1            ( 0.00     3.5825)

 CYCLE    5
  SDIIS (wt  0.000):  0.0122 -0.0391  0.5749  0.4520
 A-DIIS (wt  1.000):  0.0000  0.0000  0.6712  0.3288
  DIIS coefficients:  0.0000  0.0000  0.6712  0.3288
 SCF Error: norm([F,P])=      1.674963411166, max([F,P])=      0.825318021724
 orbitals (Q,E):
 ---------------
 S :1...3            ( 2.00   -24.3044)  ( 2.00    -1.0529)  ( 0.00     0.0313)
 P :1...2            ( 5.00    -0.3714)  ( 0.00     0.4442)
 D :1...1            ( 0.00     1.1317)
 F :1...1            ( 0.00     3.4351)

 CYCLE    6
  SDIIS (wt  0.024):  0.0029  0.0040  0.0564 -0.0876  1.0243
 A-DIIS (wt  0.976):  0.0000  0.0000  0.0000  0.0000  1.0000
  DIIS coefficients:  0.0001  0.0001  0.0013 -0.0021  1.0006
 SCF Error: norm([F,P])=      0.199607562059, max([F,P])=      0.097634841195
 orbitals (Q,E):
 ---------------
 S :1...3            ( 2.00   -24.5137)  ( 2.00    -1.1478)  ( 0.00     0.0173)
 P :1...2            ( 5.00    -0.4644)  ( 0.00     0.4071)
 D :1...1            ( 0.00     1.0935)
 F :1...1            ( 0.00     3.3875)

 CYCLE    7
  SDIIS (wt  0.000): -0.0005  0.0010  0.0222 -0.0066  0.6116  0.3724
 A-DIIS (wt  1.000):  0.0000  0.0000  0.0000  0.0000  0.6122  0.3878
  DIIS coefficients:  0.0000  0.0000  0.0000  0.0000  0.6122  0.3878
 SCF Error: norm([F,P])=      0.266507541610, max([F,P])=      0.126514736478
 orbitals (Q,E):
 ---------------
 S :1...3            ( 2.00   -24.3946)  ( 2.00    -1.0985)  ( 0.00     0.0225)
 P :1...2            ( 5.00    -0.4159)  ( 0.00     0.4255)
 D :1...1            ( 0.00     1.1136)
 F :1...1            ( 0.00     3.4123)

 CYCLE    8
  SDIIS (wt  0.859):  0.0000 -0.0000 -0.0010  0.0023  0.0294 -0.0834  1.0527
 A-DIIS (wt  0.141):  0.0000  0.0000  0.0000  0.0000  0.0000  0.0000  1.0000
  DIIS coefficients:  0.0000 -0.0000 -0.0009  0.0020  0.0252 -0.0716  1.0453
 SCF Error: norm([F,P])=      0.030968782312, max([F,P])=      0.014981503364
 orbitals (Q,E):
 ---------------
 S :1...3            ( 2.00   -24.3770)  ( 2.00    -1.0904)  ( 0.00     0.0233)
 P :1...2            ( 5.00    -0.4080)  ( 0.00     0.4287)
 D :1...1            ( 0.00     1.1172)
 F :1...1            ( 0.00     3.4167)

 CYCLE    9
  SDIIS (wt  0.981): -0.0000  0.0000 -0.0001 -0.0004  0.0017  0.0154  0.0457  0.9377
 A-DIIS (wt  0.019):  0.0000  0.0000  0.0000  0.0000  0.0000  0.0000  0.0000  1.0000
  DIIS coefficients: -0.0000  0.0000 -0.0001 -0.0004  0.0017  0.0151  0.0448  0.9389
 SCF Error: norm([F,P])=      0.006059807167, max([F,P])=      0.002904332574
 orbitals (Q,E):
 ---------------
 S :1...3            ( 2.00   -24.3801)  ( 2.00    -1.0917)  ( 0.00     0.0232)
 P :1...2            ( 5.00    -0.4093)  ( 0.00     0.4282)
 D :1...1            ( 0.00     1.1167)
 F :1...1            ( 0.00     3.4160)

 CYCLE   10
  SDIIS (wt  1.000): -0.0000  0.0000  0.0000 -0.0000 -0.0005 -0.0009  1.0014
  DIIS coefficients: -0.0000  0.0000  0.0000 -0.0000 -0.0005 -0.0009  1.0014
 SCF Error: norm([F,P])=      0.000165576581, max([F,P])=      0.000079185113
 orbitals (Q,E):
 ---------------
 S :1...3            ( 2.00   -24.3800)  ( 2.00    -1.0917)  ( 0.00     0.0232)
 P :1...2            ( 5.00    -0.4092)  ( 0.00     0.4282)
 D :1...1            ( 0.00     1.1167)
 F :1...1            ( 0.00     3.4160)

 CYCLE   11
  SDIIS (wt  1.000): -0.0000  0.0000 -0.0000 -0.0003 -0.0117  1.0121
  DIIS coefficients: -0.0000  0.0000 -0.0000 -0.0003 -0.0117  1.0121
 SCF Error: norm([F,P])=      0.000000045102, max([F,P])=      0.000000021900
 orbitals (Q,E):
 ---------------
 S :1...3            ( 2.00   -24.3800)  ( 2.00    -1.0917)  ( 0.00     0.0232)
 P :1...2            ( 5.00    -0.4092)  ( 0.00     0.4282)
 D :1...1            ( 0.00     1.1167)
 F :1...1            ( 0.00     3.4160)

 CYCLE   12
  SDIIS (wt  1.000): -0.0000  0.0075  0.9925
  DIIS coefficients: -0.0000  0.0075  0.9925
 SCF Error: norm([F,P])=      0.000000000761, max([F,P])=      0.000000000372
 orbitals (Q,E):
 ---------------
 S :1...3            ( 2.00   -24.3800)  ( 2.00    -1.0917)  ( 0.00     0.0232)
 P :1...2            ( 5.00    -0.4092)  ( 0.00     0.4282)
 D :1...1            ( 0.00     1.1167)
 F :1...1            ( 0.00     3.4160)

 SCF CONVERGED

 CYCLE   13
1
 ***************************************************************************************************



                                                *******************
                                                *  R E S U L T S  *
                                                *******************
  
 *** Setting up for NEW gradients in Focky
 *** Using FIT density in Focky

 Orbital Energies, per Irrep and Spin:
 ======================================
                        Occup              E (au)              E (eV)       Diff (eV) with prev. cycle
                        -----      --------------------        ------       --------------------------
 S
               1        2.000     -0.24380013662793E+02      -663.414              -5.70E-10
               2        2.000     -0.10916696572490E+01       -29.706              -4.11E-10
               3        0.000      0.23171521938657E-01         0.631
               4        0.000      0.15801599788495E+01        42.998
               5        0.000      0.48367571090263E+02      1316.149
 P
               1        5.000     -0.40924594303694E+00       -11.136              -3.94E-10
               2        0.000      0.42818717158446E+00        11.652
               3        0.000      0.45634501130520E+01       124.178
 D
               1        0.000      0.11166683619357E+01        30.386
 F
               1        0.000      0.34160293329535E+01        92.955


 Partially Occupied:
               1 P                -0.40924594303694E+00
  
 HOMO :        2 S                -0.10916696572490E+01
 LUMO :        3 S                 0.23171521938657E-01
  


 Orbital Energies, all Irreps
 ========================================

 Irrep        no.  (spin)   Occup              E (au)                E (eV)
 ---------------------------------------------------------------------------
 S             1             2.00       -0.24380013662793E+02      -663.4139
 S             2             2.00       -0.10916696572490E+01       -29.7058
 P             1             5.00       -0.40924594303694E+00       -11.1361
 S             3             0.00        0.23171521938657E-01         0.6305
 P             2             0.00        0.42818717158446E+00        11.6516
 D             1             0.00        0.11166683619357E+01        30.3861
 S             4             0.00        0.15801599788495E+01        42.9983
 F             1             0.00        0.34160293329535E+01        92.9549
 P             3             0.00        0.45634501130520E+01       124.1778
 S             5             0.00        0.48367571090263E+02      1316.1486


 All Electron Calculation, thus no Orbital Energies of the Core Orbitals are calculated



 =======================================
 M U L L I K E N   P O P U L A T I O N S
 =======================================
  
 The survey below gives for each atom:
 a) the total charge (Z minus electrons)
 b) the net spin polarization (nr of electrons spin-A minus spin-B)
 c) for each spin the atomic electron valence density (integrated) per L-value.

 Atom              Charge    Spin density          S         P         D         F
 ----              ------    ------------       ------    ------    ------    ------
 1 F              -0.0000                       4.0000    5.0000    0.0000    0.0000

 Populations of individual BAS functions
 ----------------------------------------
 1 F            0.5735  1.4020  1.1462  0.8789 -0.0006  0.3652  0.3652  0.3652  0.9146  0.9146
                0.9146  0.3869  0.3869  0.3869  0.0000  0.0000  0.0000  0.0000  0.0000  0.0000
                0.0000  0.0000  0.0000  0.0000  0.0000  0.0000  0.0000  0.0000  0.0000  0.0000

 Gross Charges per Atom (Z minus electrons)
 ==========================================
            -0.0000
 Net Total: -0.00000000



 =======================================================================
 Electrostatic potential at the Nuclei due to electrons and other nuclei
 =======================================================================
  
         Atom                  Potential
         ----                  ---------
     1)   F                  26.51041126
 
 
 ========================
 No memory problems found
 ========================
 
 Maximum number of active allocate calls:         447
 
 *******************************************************************************

                             A D F   E X I T
 NORMAL TERMINATION



 =================
 Timing Statistics
 =================
  
 Total Used :                     CPU=        0.50      System=        0.03     Elapsed=        0.53

 Calls  Section                     ( Mean, Percentage )
 ---------------------------------------------------------------------------------------------------
     3  ><      ................      0.00    0.20             0.00    0.00             0.00    0.15
     1  INIT    ................      0.01    1.58             0.02   61.54             0.03    4.74
     1  GEOMET  ................      0.00    0.99             0.00   11.54             0.01    1.58
     1  INPUTA  ................      0.00    0.40             0.00    0.00             0.00    0.29
     1  MAINSY  ................      0.00    0.99             0.00    3.85             0.01    1.11
     1  SYMFIT  ................      0.00    0.00             0.00    0.00             0.00    0.15
     1  CORORT  ................      0.00    0.20             0.00    0.00             0.00    0.05
     1  SYMORB  ................      0.00    0.00             0.00    0.00             0.00    0.12
     1  CLSMAT  ................      0.00    0.99             0.00    0.00             0.01    0.98
     1  ORTHON  ................      0.00    0.40             0.00    0.00             0.00    0.28
     1  GENPT   ................      0.01    2.97             0.00    0.00             0.01    2.77
     1  PTBAS   ................      0.00    0.40             0.00    3.84             0.00    0.65
    13  FOCKY   ................      0.03   75.84             0.00   11.54             0.03   72.33
    13  FOCKTR  ................      0.00    2.18             0.00    3.85             0.00    2.07
    13  SDIIS   ................      0.00    3.96             0.00    0.00             0.00    4.06
     1  COREPS  ................      0.02    4.36             0.00    0.00             0.02    4.15
     1  POPAN   ................      0.00    0.99             0.00    0.00             0.01    0.98
     1  DEBYE   ................      0.00    0.20             0.00    0.00             0.00    0.11
     1  EXIT PROCEDURE .........      0.02    3.37             0.00    3.85             0.02    3.45


 Currently Open Files (EXIT00)
 ====================

 Unit    Access Format  Status   Type       Ident (file)
 -------------------------------------------------------
   3      SEQ    FORM   TRANSP  NORMAL      LOGFILE
                                          ( logfile )


 Buffered I/O statistics
 =======================
 Memory available:                     67108864
 Number of records fitting in memory:     16131
 Input :   0.1% of                        27818  *4k bytes
 Output:  13.5% of                         1383  *4k bytes
 Records from serial files evicted:           0
                    others evicted:           0
 Hash table lookups:      71870 with          0 conflicts (  0.00%)

 ***************************************************************************************************
 (LOGFILE)
 <Apr18-2019> <14:03:24>  ADF development version  RunTime: Apr18-2019 14:03:24  Nodes: 1  Procs: 1
 <Apr18-2019> <14:03:24>  Fluorine (TZ2P)
 <Apr18-2019> <14:03:24>  RunType   : CREATE
 <Apr18-2019> <14:03:24>  Net Charge: 0 (Nuclei minus Electrons)
 <Apr18-2019> <14:03:24>  Symmetry  : ATOM
  Coordinates
    Atom         X           Y           Z   (Angstrom)
    1.F         0.000000    0.000000    0.000000
 <Apr18-2019> <14:03:24>  >>>> CORORT
 <Apr18-2019> <14:03:24>  >>>> CLSMAT
 <Apr18-2019> <14:03:24>  >>>> ORTHON
 <Apr18-2019> <14:03:24>  >>>> GENPT
 <Apr18-2019> <14:03:24>  Block Length=  76
 <Apr18-2019> <14:03:25>  >>>> PTBAS
 <Apr18-2019> <14:03:25>  >>>> CYCLE
 <Apr18-2019> <14:03:25>              |Error|         MaxErr       Wt(A-DIIS)
 <Apr18-2019> <14:03:25>      1      0.00000000      0.00000000
 <Apr18-2019> <14:03:25>      2     11.37379478      4.77775941    100.0
 <Apr18-2019> <14:03:25>      3      5.10737118      3.12542566    100.0
 <Apr18-2019> <14:03:25>      4      0.96588425      0.45165556    100.0
 <Apr18-2019> <14:03:25>      5      1.67496341      0.82531802    100.0
 <Apr18-2019> <14:03:25>      6      0.19960756      0.09763484     97.6
 <Apr18-2019> <14:03:25>      7      0.26650754      0.12651474    100.0
 <Apr18-2019> <14:03:25>      8      0.03096878      0.01498150     14.1
 <Apr18-2019> <14:03:25>      9      0.00605981      0.00290433      1.9
 <Apr18-2019> <14:03:25>     10      0.00016558      0.00007919      0.0
 <Apr18-2019> <14:03:25>     11      0.00000005      0.00000002      0.0
 <Apr18-2019> <14:03:25>     12      0.00000000      0.00000000      0.0
 <Apr18-2019> <14:03:25>  SCF converged
 <Apr18-2019> <14:03:25>     13      0.00000000      0.00000000      0.0
 <Apr18-2019> <14:03:25>  >>>> POPAN
 <Apr18-2019> <14:03:25>  >>>> DEBYE
 <Apr18-2019> <14:03:25>  NORMAL TERMINATION
 <Apr18-2019> <14:03:25>  END


 Parallel Execution: Process Information
 ==============================================================================
 Rank   Node Name                              NodeID   MyNodeRank  NodeMaster
    0   BAZIS-cn076                               0          0          0
    1   BAZIS-cn076                               0          1         -1
    2   BAZIS-cn076                               0          2         -1
    3   BAZIS-cn076                               0          3         -1
    4   BAZIS-cn076                               0          4         -1
    5   BAZIS-cn076                               0          5         -1
    6   BAZIS-cn076                               0          6         -1
    7   BAZIS-cn076                               0          7         -1
    8   BAZIS-cn076                               0          8         -1
    9   BAZIS-cn076                               0          9         -1
   10   BAZIS-cn076                               0         10         -1
   11   BAZIS-cn076                               0         11         -1
 ==============================================================================


May use up to 30736MB of RAM as shared memory on node 0


XC
  GGA blyp
  DISPERSION Grimme3 BJDAMP
END

ANALYTICALFREQ
END

SCF
  iterations 250
END

Geometry
  Iterations 300
  Optim Cartesian
  Convergence E=1e-4 grad=1e-4
End

SYMMETRY nosym
CHARGE -1

ZLMFIT
  Quality normal
END

BECKEGRID
  Quality good
End

ATOMS
F      -4.94867129       3.04098476       0.02199102
F      -3.76372578       1.14672480       0.05741844
F     -6.06298381       5.11120939      -0.21661069
END

Fragments
F t21.F
End
end input

 *******************************************************************************
 *                                                                             *
 *  -------------------------------------                                      *
 *   Amsterdam Density Functional  (ADF)         development version           *
 *  -------------------------------------                                      *
 *                                               r61132 2017-09-08             *
 *                                                                             *
 *                                                                             *
 *                              =================                              *
 *                              |               |                              *
 *                              |     A D F     |                              *
 *                              |               |                              *
 *                              =================                              *
 *                                                                             *
 *                                                                             *
 *   Online information and documentation:  https://www.scm.com/support/       *
 *   E-mail:  support@scm.com   info@scm.com                                   *
 *                                                                             *
 *   Scientific publications using ADF results must be properly referenced     *
 *   See the User Manuals (or the web site) for recommended citations          *
 *   The terms and conditions of the End User License Agreement apply to       *
 *   the use of ADF, https://www.scm.com/license-terms/                        *
 *                                                                             *
 **********************  x86_64_linux_intel / intelmpi  ************************
 
 Licensed to: VU/FEW (+ SARA) / ALGEMEEN / Amsterdam / THE NETHERLANDS
 SCM User ID: u7668
  
 ADF development version  RunTime: Apr18-2019 14:03:25  Nodes: 1  Procs: 12

 Temporary files are created in /local/datastore0/tcst25/186712/kid_0.3HAqT4


Communication costs MPI_COMM_WORLD:      2.497 usec per message,   0.0133 usec per 8-byte item
Communication costs for intra-node:      2.479 usec per message,   0.0134 usec per 8-byte item

 *** (NO TITLE) ***



 ===========================
 A T T A C H E D   F I L E S
 ===========================
  



 ===============================
 M O D E L   P A R A M E T E R S
 ===============================
  
 DENSITY FUNCTIONAL POTENTIAL (scf)
    LDA:                               Exchange only                           == Not Default ==
    Gradient Corrections:              Becke88 LYP                             == Not Default ==

 SPIN  (restricted / unrestr.)
    Molecule:                          Restricted                               
    Fragments:                         Restricted                               

 OTHER ASPECTS
    Relativistic Corrections:          ---                                      

    Nuclear Charge Density Model:      Point Charge Nuclei                      
    Core Treatment:                    Frozen Orbital(s)                        

    Hyperfine or Zeeman Interaction:   ---                                      

 Settings for Grimme 3 dispersion correction

      damping                        BJ
      s6                          1.000
      a1                          0.430
      s8                          2.700
      a2                          4.236

 Other (technical) parameters

      alpha                      14.000
      version                         4
 


 Fragment File(s)
 ----------------
 F:
         file : t21.F
         jobid: ADF development version  RunTime: Apr18-2019 14:03:24  Nodes: 1  Procs: 1
         title: Fluorine (TZ2P)



                                   *********************************************
                                   *  R U N   T Y P E : GEOMETRY OPTIMIZATION  *
                                   *********************************************
  



 ===============
 G E O M E T R Y  ***  Planar Molecule  ***
 ===============
  

 ATOMS
 =====                            X Y Z                    CHARGE
                                (Angstrom)             Nucl     +Core       At.Mass
                       --------------------------    ----------------       -------
    1  F              -4.9487    3.0410    0.0220      9.00      9.00       18.9984
    2  F              -3.7637    1.1467    0.0574      9.00      9.00       18.9984
    3  F              -6.0630    5.1112   -0.2166      9.00      9.00       18.9984


 FRAGMENTS
 =========                                     Atoms in this Fragment     Cart. coord.s (Angstrom)
                                               -------------------------------------------------------
    1  F                                                 1  F           -4.9487    3.0410    0.0220
    2  F                                                 2  F           -3.7637    1.1467    0.0574
    3  F                                                 3  F           -6.0630    5.1112   -0.2166


 Interatomic Distance Matrix (Angstrom)
 --------------------------------------

   1)     0.000
   2)     2.235   0.000
   3)     2.363   4.591   0.000

 Min. Distance =    2.2346
 Max. Distance =    4.5912



 =====================================
 S Y M M E T R Y ,   E L E C T R O N S
 =====================================
  
 Symmetry: NOSYM

 Irreducible Representations, including subspecies
 -------------------------------------------------
 A


 Configuration of Valence Electrons
 ==================================
 ( determined in the SCF procedure )

 Total:   28

 Net Charge: -1 (Nuclei minus Electrons)

 Aufbau principle for MO occupations will be applied through SCF cycle no.     125
 Thereafter, the program will assign electrons to MOs that are spatially
 similar to the occupied MOs in a "reference" cycle ("KeepOrbitals").
 The reference cycle is always the PREVIOUS cycle: it will evolve with
 the SCF procedure.
1
 ***************************************************************************************************



                                      ****************************************
                                      *  B U I L D : (Fragments, Functions)  *
                                      ****************************************
  



 =======
 S F O s  ***  (Symmetrized Fragment Orbitals)  ***
 =======
  
 SFOs are linear combinations of (valence) Fragment Orbitals (FOs), such that the SFOs transform as the
 irreducible representations of the (molecular) symmetry group. Each SFO is therefore characterized by
 an irrep of the molecule and by a few (or only one) generating FOs.
 The SFOs constitute a symmetry-adapted basis for the Fock matrix. The MO eigenvector coefficients in
 this basis provide a direct interpretation of the MOs in terms of Frontier Orbital Theory.

 The SFOs are combined with auxiliary Core Functions (CFs) to ensure orthogonalization on the (frozen)
 Core Orbitals (COs). The Core-orthogonalized SFOs (CSFOs) constitute the true Fock basis.

 The FOs, and hence also the (C)SFOs are combinations of the elementary basis functions (BAS). The basis
 functions that participate in the description of the SFOs depend on the irrep. The indices of the
 involved functions are printed below for each irrep.
 (The complete list of primitive basis functions is printed in another section)

 Total nr. of (C)SFOs (summation over all irreps) :    78

 NOTE: a (C)SFO that is defined as a combination of more than one FO is usually NOT normalized.



                                       === A ===
 Nr. of SFOs :   78
 Cartesian basis functions that participate in this irrep (total number =    90) :
      1     2     3     4     5     6     9    12     7    10
     13     8    11    14    15    16    17    18    19    20
     21    22    23    24    25    26    27    28    29    30
     31    32    33    34    35    36    39    42    37    40
     43    38    41    44    45    46    47    48    49    50
     51    52    53    54    55    56    57    58    59    60
     61    62    63    64    65    66    69    72    67    70
     73    68    71    74    75    76    77    78    79    80
     81    82    83    84    85    86    87    88    89    90

    SFO  (index         Fragment          Generating    Expansion in Fragment Orbitals
  indx  incl.CFs)   Occup   Orb.Energy   FragmentType  Coeff.   Orbital     on Fragment
 --------------------------------------------------------------------------------------
     1       1      2.000     -24.380 au  F             1.00      1 S               1
                        (    -663.414 eV)
     2       2      2.000      -1.092 au  F             1.00      2 S               1
                        (     -29.706 eV)
     3       3       --         0.023 au  F             1.00      3 S               1
                        (       0.631 eV)
     4       4       --         1.580 au  F             1.00      4 S               1
                        (      42.998 eV)
     5       5       --        48.368 au  F             1.00      5 S               1
                        (    1316.149 eV)
     6       6      1.667      -0.409 au  F             1.00      1 P:x             1
                        (     -11.136 eV)
     7       7       --         0.428 au  F             1.00      2 P:x             1
                        (      11.652 eV)
     8       8       --         4.563 au  F             1.00      3 P:x             1
                        (     124.178 eV)
     9       9      1.667      -0.409 au  F             1.00      1 P:y             1
                        (     -11.136 eV)
    10      10       --         0.428 au  F             1.00      2 P:y             1
                        (      11.652 eV)
    11      11       --         4.563 au  F             1.00      3 P:y             1
                        (     124.178 eV)
    12      12      1.667      -0.409 au  F             1.00      1 P:z             1
                        (     -11.136 eV)
    13      13       --         0.428 au  F             1.00      2 P:z             1
                        (      11.652 eV)
    14      14       --         4.563 au  F             1.00      3 P:z             1
                        (     124.178 eV)
    15      15       --         1.117 au  F             1.00      1 D:z2            1
                        (      30.386 eV)
    16      16       --         1.117 au  F             1.00      1 D:x2-y2         1
                        (      30.386 eV)
    17      17       --         1.117 au  F             1.00      1 D:xy            1
                        (      30.386 eV)
    18      18       --         1.117 au  F             1.00      1 D:xz            1
                        (      30.386 eV)
    19      19       --         1.117 au  F             1.00      1 D:yz            1
                        (      30.386 eV)
    20      20       --         3.416 au  F             1.00      1 F:z3            1
                        (      92.955 eV)
    21      21       --         3.416 au  F             1.00      1 F:z             1
                        (      92.955 eV)
    22      22       --         3.416 au  F             1.00      1 F:xyz           1
                        (      92.955 eV)
    23      23       --         3.416 au  F             1.00      1 F:z2x           1
                        (      92.955 eV)
    24      24       --         3.416 au  F             1.00      1 F:z2y           1
                        (      92.955 eV)
    25      25       --         3.416 au  F             1.00      1 F:x             1
                        (      92.955 eV)
    26      26       --         3.416 au  F             1.00      1 F:y             1
                        (      92.955 eV)
    27      27      2.000     -24.380 au  F             1.00      1 S               2
                        (    -663.414 eV)
    28      28      2.000      -1.092 au  F             1.00      2 S               2
                        (     -29.706 eV)
    29      29       --         0.023 au  F             1.00      3 S               2
                        (       0.631 eV)
    30      30       --         1.580 au  F             1.00      4 S               2
                        (      42.998 eV)
    31      31       --        48.368 au  F             1.00      5 S               2
                        (    1316.149 eV)
    32      32      1.667      -0.409 au  F             1.00      1 P:x             2
                        (     -11.136 eV)
    33      33       --         0.428 au  F             1.00      2 P:x             2
                        (      11.652 eV)
    34      34       --         4.563 au  F             1.00      3 P:x             2
                        (     124.178 eV)
    35      35      1.667      -0.409 au  F             1.00      1 P:y             2
                        (     -11.136 eV)
    36      36       --         0.428 au  F             1.00      2 P:y             2
                        (      11.652 eV)
    37      37       --         4.563 au  F             1.00      3 P:y             2
                        (     124.178 eV)
    38      38      1.667      -0.409 au  F             1.00      1 P:z             2
                        (     -11.136 eV)
    39      39       --         0.428 au  F             1.00      2 P:z             2
                        (      11.652 eV)
    40      40       --         4.563 au  F             1.00      3 P:z             2
                        (     124.178 eV)
    41      41       --         1.117 au  F             1.00      1 D:z2            2
                        (      30.386 eV)
    42      42       --         1.117 au  F             1.00      1 D:x2-y2         2
                        (      30.386 eV)
    43      43       --         1.117 au  F             1.00      1 D:xy            2
                        (      30.386 eV)
    44      44       --         1.117 au  F             1.00      1 D:xz            2
                        (      30.386 eV)
    45      45       --         1.117 au  F             1.00      1 D:yz            2
                        (      30.386 eV)
    46      46       --         3.416 au  F             1.00      1 F:z3            2
                        (      92.955 eV)
    47      47       --         3.416 au  F             1.00      1 F:z             2
                        (      92.955 eV)
    48      48       --         3.416 au  F             1.00      1 F:xyz           2
                        (      92.955 eV)
    49      49       --         3.416 au  F             1.00      1 F:z2x           2
                        (      92.955 eV)
    50      50       --         3.416 au  F             1.00      1 F:z2y           2
                        (      92.955 eV)
    51      51       --         3.416 au  F             1.00      1 F:x             2
                        (      92.955 eV)
    52      52       --         3.416 au  F             1.00      1 F:y             2
                        (      92.955 eV)
    53      53      2.000     -24.380 au  F             1.00      1 S               3
                        (    -663.414 eV)
    54      54      2.000      -1.092 au  F             1.00      2 S               3
                        (     -29.706 eV)
    55      55       --         0.023 au  F             1.00      3 S               3
                        (       0.631 eV)
    56      56       --         1.580 au  F             1.00      4 S               3
                        (      42.998 eV)
    57      57       --        48.368 au  F             1.00      5 S               3
                        (    1316.149 eV)
    58      58      1.667      -0.409 au  F             1.00      1 P:x             3
                        (     -11.136 eV)
    59      59       --         0.428 au  F             1.00      2 P:x             3
                        (      11.652 eV)
    60      60       --         4.563 au  F             1.00      3 P:x             3
                        (     124.178 eV)
    61      61      1.667      -0.409 au  F             1.00      1 P:y             3
                        (     -11.136 eV)
    62      62       --         0.428 au  F             1.00      2 P:y             3
                        (      11.652 eV)
    63      63       --         4.563 au  F             1.00      3 P:y             3
                        (     124.178 eV)
    64      64      1.667      -0.409 au  F             1.00      1 P:z             3
                        (     -11.136 eV)
    65      65       --         0.428 au  F             1.00      2 P:z             3
                        (      11.652 eV)
    66      66       --         4.563 au  F             1.00      3 P:z             3
                        (     124.178 eV)
    67      67       --         1.117 au  F             1.00      1 D:z2            3
                        (      30.386 eV)
    68      68       --         1.117 au  F             1.00      1 D:x2-y2         3
                        (      30.386 eV)
    69      69       --         1.117 au  F             1.00      1 D:xy            3
                        (      30.386 eV)
    70      70       --         1.117 au  F             1.00      1 D:xz            3
                        (      30.386 eV)
    71      71       --         1.117 au  F             1.00      1 D:yz            3
                        (      30.386 eV)
    72      72       --         3.416 au  F             1.00      1 F:z3            3
                        (      92.955 eV)
    73      73       --         3.416 au  F             1.00      1 F:z             3
                        (      92.955 eV)
    74      74       --         3.416 au  F             1.00      1 F:xyz           3
                        (      92.955 eV)
    75      75       --         3.416 au  F             1.00      1 F:z2x           3
                        (      92.955 eV)
    76      76       --         3.416 au  F             1.00      1 F:z2y           3
                        (      92.955 eV)
    77      77       --         3.416 au  F             1.00      1 F:x             3
                        (      92.955 eV)
    78      78       --         3.416 au  F             1.00      1 F:y             3
                        (      92.955 eV)



 ================================
 (Slater-type)  F U N C T I O N S  ***  (Basis and Fit)  ***
 ================================
  

 Atom Type    1  (F)
 ==============

 Valence Basis Sets:  10
 -----------------------
   1 S   10.880000
   1 S    7.700000
   2 S    3.240000
   2 S    1.940000
   2 S    0.740000
   2 P    4.540000
   2 P    2.300000
   2 P    1.240000
   3 D    2.000000
   4 F    3.000000


 BAS: List of all Elementary Cartesian Basis Functions
 =====================================================

 The numbering in the list below (to the right of the function characteristics) is referred
 to in print-outs of MO eigenvectors and Mulliken populations in the BAS representation
 (as contrasted to the SFO representation).

 Notes:
 1. The functions are characterized by a polynomial prefactor (powers of x,y,z and r) and
    an exponential decay factor alpha.
 2. Since the basis sets are specific for an atom TYPE, the individual functions occur on
    all atoms of that type.
 3. The word 'Core' in the left margin signals that it is a Core Function (CF) : not a
    degree of freedom in the valence set, but only used to ensure orthogonalization of
    the other valence basis functions on the frozen Core Orbitals.


 (power of) X  Y  Z  R     Alpha  on Atom
            ==========     =====     ==========

 F                                    1    2    3
                                  ---------------------------------------------------------------------------
            0  0  0  0    10.880      1   31   61
            0  0  0  0     7.700      2   32   62
            0  0  0  1     3.240      3   33   63
            0  0  0  1     1.940      4   34   64
            0  0  0  1     0.740      5   35   65
            1  0  0  0     4.540      6   36   66
            0  1  0  0     4.540      7   37   67
            0  0  1  0     4.540      8   38   68
            1  0  0  0     2.300      9   39   69
            0  1  0  0     2.300     10   40   70
            0  0  1  0     2.300     11   41   71
            1  0  0  0     1.240     12   42   72
            0  1  0  0     1.240     13   43   73
            0  0  1  0     1.240     14   44   74
            2  0  0  0     2.000     15   45   75
            1  1  0  0     2.000     16   46   76
            1  0  1  0     2.000     17   47   77
            0  2  0  0     2.000     18   48   78
            0  1  1  0     2.000     19   49   79
            0  0  2  0     2.000     20   50   80
            3  0  0  0     3.000     21   51   81
            2  1  0  0     3.000     22   52   82
            2  0  1  0     3.000     23   53   83
            1  2  0  0     3.000     24   54   84
            1  1  1  0     3.000     25   55   85
            1  0  2  0     3.000     26   56   86
            0  3  0  0     3.000     27   57   87
            0  2  1  0     3.000     28   58   88
            0  1  2  0     3.000     29   59   89
            0  0  3  0     3.000     30   60   90

 Total number of charge fitting functions (nprimf)       255
 Total number of Cartesian basis functions (naos)         90
 Total number of Cartesian core functions  (ncos)          0



 Coordinates (Cartesian)
 =======================

     Atom                    bohr                                 angstrom                 Geometric Variables
                   X           Y           Z              X           Y           Z       (0:frozen, *:LT par.)
 --------------------------------------------------------------------------------------------------------------
     1 F      -9.351633    5.746628    0.041557      -4.948671    3.040985    0.021991      1       2       3
     2 F      -7.112411    2.166996    0.108505      -3.763726    1.146725    0.057418      4       5       6
     3 F     -11.457379    9.658786   -0.409335      -6.062984    5.111209   -0.216611      7       8       9
 --------------------------------------------------------------------------------------------------------------
1
 ***************************************************************************************************



                                              ***********************
                                              *  T E C H N I C A L  *
                                              ***********************
  



 =============================================================
 P A R A L L E L I Z A T I O N  and  V E C T O R I Z A T I O N
 =============================================================
  
 Nr of parallel processes:                               12
 Maximum vector length in NumInt loops:                 128

 IO buffersize (Mb):                                     64.000000



 ===============================
 G E O M E T R Y   U P D A T E S
 ===============================
  
 Optimization coordinates:                       Cartesian
 Optimization code branch:                       NEW
 Hessian update method:                          BFGS (Broyden-Fletcher-Goldfarb-Shanno)

 Iterative Geometry Improvements:
    Max. nr. of iterations:                        300
    Convergence criteria:
         Change in energy (hartree):                 0.0001000000
         Gradients (au/Angstrom):                    0.0001000000
         Cart/bondlength changes (Angstrom):         0.0100000000
    Max. step to take:
         Trust Radius:                               0.2000000000

 GDIIS (Geometry Direct Inversion in Iteration Space):
    First geometry cycle:                            0
    Max. number expansion vectors:                   5



 =====================
 S C F   U P D A T E S
 =====================
  
 Max. nr. of cycles:                               250
 Convergence criterion:                              0.0000010000
   secondary criterion:                              0.0010000000

 Mix parameter (when DIIS does not apply):           0.2000000000
 Mixed ADIIS+DIIS will be used
    Max number of expansion vectors:                10
    Pure ADIIS when Max([F,P]) is above              0.1000000000
    Pure DIIS when Max([F,P]) is below               0.0010000000



 =================
 P R E C I S I O N  ***  (General: NumInt, NeglectFunctionTails, ...)  ***
 =================
  

 NumInt:           Target precision:                 6.0000000000
 -------           Initial precision:                6.0000000000
                   Min. precision (optimization):    6.0000000000

 Neglect Functions:          Basis functions:        0.1000000000E-07
 ------------------          Fit functions:          0.1000000000E-07



 ===========================
 L I N E A R   S C A L I N G
 ===========================
  

 Cut-off radii density fit:                        0.1000000000E-09
 Overlap cut-off criterion AO matrix elements:     0.1000000000E-07
 Cut-offs for Coulomb potential and fitted density:0.1000000000E-09
 Cut-off criterion for Coulomb multipole terms:    0.1000000000E-09
 Progressive Convergence parameter:                 0.000000000    
1
 ***************************************************************************************************



                                            ***************************
                                            *  C O M P U T A T I O N  *
                                            ***************************
  

 Number of elements of the density matrix on this node (used, total):       465      4095



 ===========================================
 Numerical Integration : Fuzzy Cells (Becke)
 ===========================================
  
 Becke grid quality: GOOD           
  
 Lebedev angular grid order:             min:  11 max:  31
 Nr. of radial points:                   min:  65 max:  65

 Total nr. of points:      42366
 Nr. of blocks:              331
 Block length:               128
 Nr. of dummy points:          2


 Test of Precision of the Numerical Integration Grid
 ===================================================

 Integral of the Total Core Density:                   0.00000000000000



 ========================
 Density Fitting (zlmFit)
 ========================
  
 ZlmFit Fit Quality: NORMAL         
  
 Max L-expansion:                        min:   7 max:   7
 Nr. of radial interpolation points:     min:  51 max:  51



 =====
 S C F  ***  ScaSCF  ***
 =====
  
 Initial density matrix is calculated as sum of fragments

 CYCLE    1
 SCF Error: norm([F,P])=      0.321513970789, max([F,P])=      0.135402013281
 orbitals (Q,E):
 ---------------
 A :5...24           ( 2.00    -1.0949)  ( 2.00    -1.0845)  ( 2.00    -0.4511)  ( 2.00    -0.4219)
                     ( 2.00    -0.4217)  ( 2.00    -0.4121)  ( 2.00    -0.4121)  ( 2.00    -0.4115)
                     ( 2.00    -0.4029)  ( 2.00    -0.4026)  ( 0.00    -0.3688)  ( 0.00     0.0133)
                     ( 0.00     0.0452)  ( 0.00     0.1244)  ( 0.00     0.3482)  ( 0.00     0.3485)
                     ( 0.00     0.4230)  ( 0.00     0.4231)  ( 0.00     0.4701)  ( 0.00     0.5605)

 CYCLE    2
  SDIIS (wt  0.000):  0.8112  0.1888
 A-DIIS (wt  1.000):  0.0850  0.9150
  DIIS coefficients:  0.0850  0.9150
 SCF Error: norm([F,P])=      0.670159552745, max([F,P])=      0.243390050259
 orbitals (Q,E):
 ---------------
 A :5...15           ( 2.00    -0.7570)  ( 2.00    -0.5917)  ( 2.00    -0.2459)  ( 2.00    -0.2140)
                     ( 2.00    -0.2140)  ( 2.00    -0.0901)  ( 2.00    -0.0779)  ( 2.00    -0.0779)
                     ( 2.00     0.0608)  ( 2.00     0.0700)  ( 0.00     0.0700)

 CYCLE    3
  SDIIS (wt  0.000):  0.6805  0.2627  0.0567
 A-DIIS (wt  1.000):  0.0000  0.8645  0.1355
  DIIS coefficients:  0.0000  0.8645  0.1355
 SCF Error: norm([F,P])=      2.249845439983, max([F,P])=      0.957865810007
 orbitals (Q,E):
 ---------------
 A :5...15           ( 2.00    -0.7293)  ( 2.00    -0.6786)  ( 2.00    -0.1459)  ( 2.00    -0.1097)
                     ( 2.00    -0.1094)  ( 2.00    -0.0569)  ( 2.00    -0.0556)  ( 2.00    -0.0516)
                     ( 2.00    -0.0073)  ( 2.00    -0.0037)  ( 0.00    -0.0037)

 CYCLE    4
  SDIIS (wt  0.000):  0.7306  0.1480  0.1214
 A-DIIS (wt  1.000):  0.8054  0.1331  0.0615
  DIIS coefficients:  0.8054  0.1331  0.0615
 SCF Error: norm([F,P])=      1.651183797657, max([F,P])=      0.603014208283
 orbitals (Q,E):
 ---------------
 A :5...15           ( 2.00    -0.7393)  ( 2.00    -0.7153)  ( 2.00    -0.1297)  ( 2.00    -0.0857)
                     ( 2.00    -0.0848)  ( 2.00    -0.0640)  ( 2.00    -0.0611)  ( 2.00    -0.0589)
                     ( 2.00    -0.0432)  ( 2.00    -0.0382)  ( 0.00    -0.0274)

 CYCLE    5
  SDIIS (wt  0.000):  0.5574  0.0246  0.0798  0.3382
 A-DIIS (wt  1.000):  0.5694  0.0000  0.0649  0.3656
  DIIS coefficients:  0.5694  0.0000  0.0649  0.3656
 SCF Error: norm([F,P])=      0.954328628993, max([F,P])=      0.367642386647
 orbitals (Q,E):
 ---------------
 A :5...15           ( 2.00    -0.7813)  ( 2.00    -0.7563)  ( 2.00    -0.1634)  ( 2.00    -0.1187)
                     ( 2.00    -0.1181)  ( 2.00    -0.1107)  ( 2.00    -0.0986)  ( 2.00    -0.0984)
                     ( 2.00    -0.0780)  ( 2.00    -0.0754)  ( 0.00    -0.0669)

 CYCLE    6
  SDIIS (wt  0.000):  0.4585  0.0267  0.0090  0.3286  0.1772
 A-DIIS (wt  1.000):  0.4208  0.0000  0.0000  0.3701  0.2090
  DIIS coefficients:  0.4208  0.0000  0.0000  0.3701  0.2090
 SCF Error: norm([F,P])=      0.965844579110, max([F,P])=      0.328314309580
 orbitals (Q,E):
 ---------------
 A :5...15           ( 2.00    -0.7913)  ( 2.00    -0.7783)  ( 2.00    -0.1716)  ( 2.00    -0.1254)
                     ( 2.00    -0.1236)  ( 2.00    -0.1227)  ( 2.00    -0.1077)  ( 2.00    -0.1075)
                     ( 2.00    -0.0955)  ( 2.00    -0.0953)  ( 0.00    -0.0837)

 CYCLE    7
  SDIIS (wt  0.000):  0.2153  0.0239  0.0179  0.1656  0.1973  0.3801
 A-DIIS (wt  1.000):  0.0000  0.0000  0.0000  0.0518  0.2301  0.7181
  DIIS coefficients:  0.0000  0.0000  0.0000  0.0518  0.2301  0.7181
 SCF Error: norm([F,P])=      0.331898415188, max([F,P])=      0.106005649180
 orbitals (Q,E):
 ---------------
 A :5...15           ( 2.00    -0.7944)  ( 2.00    -0.7736)  ( 2.00    -0.2082)  ( 2.00    -0.1695)
                     ( 2.00    -0.1694)  ( 2.00    -0.1218)  ( 2.00    -0.1119)  ( 2.00    -0.1118)
                     ( 2.00    -0.0969)  ( 2.00    -0.0924)  ( 0.00    -0.0924)

 CYCLE    8
  SDIIS (wt  0.000):  0.1724  0.0013  0.0214  0.1493  0.2038  0.4205  0.0313
 A-DIIS (wt  1.000):  0.0000  0.0000  0.0000  0.0000  0.2444  0.7173  0.0383
  DIIS coefficients:  0.0000  0.0000  0.0000  0.0000  0.2444  0.7173  0.0383
 SCF Error: norm([F,P])=      1.585692253512, max([F,P])=      0.485137120171
 orbitals (Q,E):
 ---------------
 A :5...15           ( 2.00    -0.7879)  ( 2.00    -0.7784)  ( 2.00    -0.1920)  ( 2.00    -0.1512)
                     ( 2.00    -0.1510)  ( 2.00    -0.1182)  ( 2.00    -0.1057)  ( 2.00    -0.1057)
                     ( 2.00    -0.0987)  ( 2.00    -0.0970)  ( 0.00    -0.0929)

 CYCLE    9
  SDIIS (wt  0.000):  0.0556  0.0224  0.0114 -0.0084  0.1834  0.5922 -0.0223  0.1657
 A-DIIS (wt  1.000):  0.0000  0.0000  0.0000  0.0000  0.1943  0.6419  0.0000  0.1638
  DIIS coefficients:  0.0000  0.0000  0.0000  0.0000  0.1943  0.6419  0.0000  0.1638
 SCF Error: norm([F,P])=      0.600577005065, max([F,P])=      0.210486483114
 orbitals (Q,E):
 ---------------
 A :5...15           ( 2.00    -0.7906)  ( 2.00    -0.7860)  ( 2.00    -0.1821)  ( 2.00    -0.1369)
                     ( 2.00    -0.1366)  ( 2.00    -0.1255)  ( 2.00    -0.1081)  ( 2.00    -0.1080)
                     ( 2.00    -0.1034)  ( 2.00    -0.1033)  ( 0.00    -0.0925)

 CYCLE   10
  SDIIS (wt  0.000): -0.0059  0.0088  0.0054  0.0205 -0.0447  0.4398 -0.0168  0.0677  0.5252
 A-DIIS (wt  1.000):  0.0000  0.0000  0.0000  0.0000  0.0000  0.4689  0.0000  0.0800  0.4511
  DIIS coefficients:  0.0000  0.0000  0.0000  0.0000  0.0000  0.4689  0.0000  0.0800  0.4511
 SCF Error: norm([F,P])=      0.351344511025, max([F,P])=      0.119513227079
 orbitals (Q,E):
 ---------------
 A :5...15           ( 2.00    -0.7895)  ( 2.00    -0.7753)  ( 2.00    -0.1779)  ( 2.00    -0.1318)
                     ( 2.00    -0.1316)  ( 2.00    -0.1193)  ( 2.00    -0.1065)  ( 2.00    -0.1065)
                     ( 2.00    -0.0933)  ( 2.00    -0.0933)  ( 0.00    -0.0870)

 CYCLE   11
  SDIIS (wt  0.000): -0.0059  0.0087  0.0068 -0.0008 -0.0405  0.3416 -0.0150 -0.0382  0.5098  0.2335
 A-DIIS (wt  1.000):  0.0000  0.0000  0.0000  0.0000  0.0000  0.3535  0.0000  0.0000  0.4453  0.2011
  DIIS coefficients:  0.0000  0.0000  0.0000  0.0000  0.0000  0.3535  0.0000  0.0000  0.4453  0.2011
 SCF Error: norm([F,P])=      0.336252046002, max([F,P])=      0.114252857376
 orbitals (Q,E):
 ---------------
 A :5...15           ( 2.00    -0.7894)  ( 2.00    -0.7821)  ( 2.00    -0.1750)  ( 2.00    -0.1279)
                     ( 2.00    -0.1271)  ( 2.00    -0.1229)  ( 2.00    -0.1066)  ( 2.00    -0.1066)
                     ( 2.00    -0.0992)  ( 2.00    -0.0992)  ( 0.00    -0.0873)

 CYCLE   12
  SDIIS (wt  0.784):  0.0014  0.0001 -0.0123 -0.0155  0.0200 -0.0008  0.0061  0.1413  0.1801  0.6796
 A-DIIS (wt  0.216):  0.0000  0.0000  0.0000  0.0000  0.0000  0.0000  0.0000  0.0601  0.1444  0.7955
  DIIS coefficients:  0.0011  0.0001 -0.0096 -0.0122  0.0156 -0.0006  0.0048  0.1238  0.1724  0.7046
 SCF Error: norm([F,P])=      0.064629814193, max([F,P])=      0.022383657200
 orbitals (Q,E):
 ---------------
 A :5...15           ( 2.00    -0.7897)  ( 2.00    -0.7832)  ( 2.00    -0.1778)  ( 2.00    -0.1311)
                     ( 2.00    -0.1306)  ( 2.00    -0.1236)  ( 2.00    -0.1068)  ( 2.00    -0.1068)
                     ( 2.00    -0.1004)  ( 2.00    -0.1003)  ( 0.00    -0.0895)

 CYCLE   13
  SDIIS (wt  0.819):  0.0000 -0.0082 -0.0045  0.0241 -0.0001 -0.0016 -0.0220  0.0978  0.3213  0.5931
 A-DIIS (wt  0.181):  0.0000  0.0000  0.0000  0.0000  0.0000  0.0000  0.0000  0.0966  0.4838  0.4196
  DIIS coefficients:  0.0000 -0.0067 -0.0036  0.0197 -0.0001 -0.0013 -0.0180  0.0976  0.3507  0.5617
 SCF Error: norm([F,P])=      0.057413159307, max([F,P])=      0.018938730041
 orbitals (Q,E):
 ---------------
 A :5...15           ( 2.00    -0.7907)  ( 2.00    -0.7822)  ( 2.00    -0.1775)  ( 2.00    -0.1304)
                     ( 2.00    -0.1299)  ( 2.00    -0.1236)  ( 2.00    -0.1077)  ( 2.00    -0.1076)
                     ( 2.00    -0.0995)  ( 2.00    -0.0995)  ( 0.00    -0.0893)

 CYCLE   14
  SDIIS (wt  0.859): -0.0014 -0.0006  0.0001  0.0000 -0.0011 -0.0087  0.0060  0.2021  0.3349  0.4688
 A-DIIS (wt  0.141):  0.0000  0.0000  0.0000  0.0000  0.0000  0.0000  0.0000  0.1906  0.2898  0.5196
  DIIS coefficients: -0.0012 -0.0005  0.0001  0.0000 -0.0010 -0.0075  0.0051  0.2005  0.3285  0.4759
 SCF Error: norm([F,P])=      0.040779587643, max([F,P])=      0.014914736999
 orbitals (Q,E):
 ---------------
 A :5...15           ( 2.00    -0.7902)  ( 2.00    -0.7826)  ( 2.00    -0.1771)  ( 2.00    -0.1301)
                     ( 2.00    -0.1295)  ( 2.00    -0.1235)  ( 2.00    -0.1072)  ( 2.00    -0.1072)
                     ( 2.00    -0.0998)  ( 2.00    -0.0997)  ( 0.00    -0.0890)

 CYCLE   15
  SDIIS (wt  1.000): -0.0000 -0.0021  0.0000 -0.0002 -0.0041 -0.0049  0.1108  0.1858  0.3377  0.3770
  DIIS coefficients: -0.0000 -0.0021  0.0000 -0.0002 -0.0041 -0.0049  0.1108  0.1858  0.3377  0.3770
 SCF Error: norm([F,P])=      0.002013474435, max([F,P])=      0.000694519497
 orbitals (Q,E):
 ---------------
 A :5...15           ( 2.00    -0.7902)  ( 2.00    -0.7825)  ( 2.00    -0.1771)  ( 2.00    -0.1301)
                     ( 2.00    -0.1296)  ( 2.00    -0.1235)  ( 2.00    -0.1072)  ( 2.00    -0.1072)
                     ( 2.00    -0.0998)  ( 2.00    -0.0997)  ( 0.00    -0.0890)

 CYCLE   16
  SDIIS (wt  1.000): -0.0005  0.0000 -0.0002 -0.0013  0.0002  0.0174  0.0366  0.0612  0.1446  0.7420
  DIIS coefficients: -0.0005  0.0000 -0.0002 -0.0013  0.0002  0.0174  0.0366  0.0612  0.1446  0.7420
 SCF Error: norm([F,P])=      0.000440152417, max([F,P])=      0.000140924503
 orbitals (Q,E):
 ---------------
 A :5...15           ( 2.00    -0.7902)  ( 2.00    -0.7825)  ( 2.00    -0.1771)  ( 2.00    -0.1301)
                     ( 2.00    -0.1296)  ( 2.00    -0.1235)  ( 2.00    -0.1072)  ( 2.00    -0.1072)
                     ( 2.00    -0.0997)  ( 2.00    -0.0997)  ( 0.00    -0.0890)

 CYCLE   17
  SDIIS (wt  1.000):  0.0000 -0.0001 -0.0004  0.0004  0.0012  0.0063  0.0072  0.0519  0.4008  0.5328
  DIIS coefficients:  0.0000 -0.0001 -0.0004  0.0004  0.0012  0.0063  0.0072  0.0519  0.4008  0.5328
 SCF Error: norm([F,P])=      0.000095557048, max([F,P])=      0.000031339469
 orbitals (Q,E):
 ---------------
 A :5...15           ( 2.00    -0.7902)  ( 2.00    -0.7825)  ( 2.00    -0.1771)  ( 2.00    -0.1301)
                     ( 2.00    -0.1296)  ( 2.00    -0.1235)  ( 2.00    -0.1072)  ( 2.00    -0.1072)
                     ( 2.00    -0.0997)  ( 2.00    -0.0997)  ( 0.00    -0.0890)

 CYCLE   18
  SDIIS (wt  1.000): -0.0000 -0.0002  0.0001  0.0001  0.0016  0.0017  0.0218  0.1773  0.3088  0.4887
  DIIS coefficients: -0.0000 -0.0002  0.0001  0.0001  0.0016  0.0017  0.0218  0.1773  0.3088  0.4887
 SCF Error: norm([F,P])=      0.000059629865, max([F,P])=      0.000022467739
 orbitals (Q,E):
 ---------------
 A :5...15           ( 2.00    -0.7902)  ( 2.00    -0.7825)  ( 2.00    -0.1771)  ( 2.00    -0.1301)
                     ( 2.00    -0.1296)  ( 2.00    -0.1235)  ( 2.00    -0.1072)  ( 2.00    -0.1072)
                     ( 2.00    -0.0997)  ( 2.00    -0.0997)  ( 0.00    -0.0890)

 CYCLE   19
  SDIIS (wt  1.000): -0.0000 -0.0000  0.0003  0.0006  0.0011  0.0083  0.0611  0.1197  0.3135  0.4954
  DIIS coefficients: -0.0000 -0.0000  0.0003  0.0006  0.0011  0.0083  0.0611  0.1197  0.3135  0.4954
 SCF Error: norm([F,P])=      0.000015472401, max([F,P])=      0.000004631941
 orbitals (Q,E):
 ---------------
 A :5...15           ( 2.00    -0.7902)  ( 2.00    -0.7825)  ( 2.00    -0.1771)  ( 2.00    -0.1301)
                     ( 2.00    -0.1296)  ( 2.00    -0.1235)  ( 2.00    -0.1072)  ( 2.00    -0.1072)
                     ( 2.00    -0.0997)  ( 2.00    -0.0997)  ( 0.00    -0.0890)

 CYCLE   20
  SDIIS (wt  1.000): -0.0000  0.0000 -0.0001  0.0002  0.0015  0.0127  0.0262  0.0939  0.2842  0.5814
  DIIS coefficients: -0.0000  0.0000 -0.0001  0.0002  0.0015  0.0127  0.0262  0.0939  0.2842  0.5814
 SCF Error: norm([F,P])=      0.000012715343, max([F,P])=      0.000004592314
 orbitals (Q,E):
 ---------------
 A :5...15           ( 2.00    -0.7902)  ( 2.00    -0.7825)  ( 2.00    -0.1771)  ( 2.00    -0.1301)
                     ( 2.00    -0.1296)  ( 2.00    -0.1235)  ( 2.00    -0.1072)  ( 2.00    -0.1072)
                     ( 2.00    -0.0997)  ( 2.00    -0.0997)  ( 0.00    -0.0890)

 CYCLE   21
  SDIIS (wt  1.000): -0.0000 -0.0000  0.0000  0.0004  0.0036  0.0079  0.0299  0.0976  0.2139  0.6466
  DIIS coefficients: -0.0000 -0.0000  0.0000  0.0004  0.0036  0.0079  0.0299  0.0976  0.2139  0.6466
 SCF Error: norm([F,P])=      0.000001418624, max([F,P])=      0.000000478457
 orbitals (Q,E):
 ---------------
 A :5...15           ( 2.00    -0.7902)  ( 2.00    -0.7825)  ( 2.00    -0.1771)  ( 2.00    -0.1301)
                     ( 2.00    -0.1296)  ( 2.00    -0.1235)  ( 2.00    -0.1072)  ( 2.00    -0.1072)
                     ( 2.00    -0.0997)  ( 2.00    -0.0997)  ( 0.00    -0.0890)

 SCF CONVERGED

 CYCLE   22
 *** Setting up for NEW gradients in Focky
 *** Using FIT density in Focky
 *** Setting up for NEW Hessian in Focky
 orbitals (Q,E):
 ---------------
 A :5...24           ( 2.00    -0.7902)  ( 2.00    -0.7825)  ( 2.00    -0.1771)  ( 2.00    -0.1301)
                     ( 2.00    -0.1296)  ( 2.00    -0.1235)  ( 2.00    -0.1072)  ( 2.00    -0.1072)
                     ( 2.00    -0.0997)  ( 2.00    -0.0997)  ( 0.00    -0.0890)  ( 0.00     0.2041)
                     ( 0.00     0.2274)  ( 0.00     0.3187)  ( 0.00     0.5920)  ( 0.00     0.5924)
                     ( 0.00     0.6648)  ( 0.00     0.6650)  ( 0.00     0.7166)  ( 0.00     0.8025)


 Fit test: (difference of exact and fit density, squared integrated, result summed over spins)
         SCF:                                          0.00002691967304

 Gross Charges per Atom (Z minus electrons)
 ==========================================
            -0.2280   -0.3746   -0.3975
 Net Total: -1.00000000



 =================================================================
 M U L T I P O L E   D E R I V E D   C H A R G E   A N A L Y S I S
 =================================================================

 See: M. Swart, P.Th. van Duijnen, J.G. Snijders, J.Comput.Chem., (2001), p. 79-88.

 --------------------------------------- 
 Multipole derived atomic charges (a.u.)
 --------------------------------------- 

        Atom    Level:     MDC-m        MDC-d        MDC-q
 ---------------------------------------------------------
     1     F           -0.235298    -0.264920    -0.228868
     2     F           -0.370617    -0.355426    -0.370217
     3     F           -0.394084    -0.379654    -0.400915
 *** Using NEW gradient routines ***


 Geometry CYCLE 1
 ==============

 Energy gradients wrt nuclear displacements
 ==========================================

     Atom      Cartesian (a.u./angstrom)
                 X         Y         Z
 ----------------------------------------
     1 F    -0.007579  0.004391  0.005264
     2 F     0.024930 -0.038290 -0.000366
     3 F    -0.017351  0.033899 -0.004897
 ----------------------------------------
 
----------------------------------------------------------------------
Geometry Convergence after Step   1       (Hartree/Angstrom,Angstrom)
----------------------------------------------------------------------
current energy                               -0.31591416 Hartree
energy change                      -0.31591416     0.00010000    F
constrained gradient max            0.03828966     0.00010000    F
constrained gradient rms            0.02018350     0.00006667    F
gradient max                        0.03828966
gradient rms                        0.02018350
cart. step max                      0.11337021     0.01000000    F
cart. step rms                      0.06110412     0.00666667    F
 


 Coordinates (Cartesian)
 =======================

     Atom                    bohr                                 angstrom                 Geometric Variables
                   X           Y           Z              X           Y           Z       (0:frozen, *:LT par.)
 --------------------------------------------------------------------------------------------------------------
     1 F      -9.316692    5.734467    0.011550      -4.930181    3.034549    0.006112      1       2       3
     2 F      -7.251489    2.381234    0.110098      -3.837323    1.260095    0.058261      4       5       6
     3 F     -11.353241    9.456708   -0.380921      -6.007877    5.004275   -0.201575      7       8       9
 --------------------------------------------------------------------------------------------------------------

 Number of elements of the density matrix on this node (used, total):       465      4095



 ===========================================
 Numerical Integration : Fuzzy Cells (Becke)
 ===========================================
  
 Becke grid quality: GOOD           
  
 Lebedev angular grid order:             min:  11 max:  31
 Nr. of radial points:                   min:  65 max:  65

 Total nr. of points:      42366
 Nr. of blocks:              331
 Block length:               128
 Nr. of dummy points:          2


 Test of Precision of the Numerical Integration Grid
 ===================================================

 Integral of the Total Core Density:                   0.00000000000000



 ========================
 Density Fitting (zlmFit)
 ========================
  
 ZlmFit Fit Quality: NORMAL         
  
 Max L-expansion:                        min:   7 max:   7
 Nr. of radial interpolation points:     min:  51 max:  51



 =====
 S C F  ***  ScaSCF  ***
 =====
  
 Initial density matrix is taken from previous geometry

 CYCLE    1
 SCF Error: norm([F,P])=      0.115545909961, max([F,P])=      0.051981055296
 orbitals (Q,E):
 ---------------
 A :5...24           ( 2.00    -0.7756)  ( 2.00    -0.7648)  ( 2.00    -0.1692)  ( 2.00    -0.1150)
                     ( 2.00    -0.1147)  ( 2.00    -0.1093)  ( 2.00    -0.0931)  ( 2.00    -0.0931)
                     ( 2.00    -0.0828)  ( 2.00    -0.0827)  ( 0.00    -0.0573)  ( 0.00     0.2133)
                     ( 0.00     0.2364)  ( 0.00     0.3326)  ( 0.00     0.6062)  ( 0.00     0.6064)
                     ( 0.00     0.6780)  ( 0.00     0.6781)  ( 0.00     0.7624)  ( 0.00     0.8313)

 CYCLE    2
   MIX coefficients:  0.8000  0.2000
 SCF Error: norm([F,P])=      0.270397146757, max([F,P])=      0.086887746418
 orbitals (Q,E):
 ---------------
 A :5...15           ( 2.00    -0.7852)  ( 2.00    -0.7504)  ( 2.00    -0.1832)  ( 2.00    -0.1309)
                     ( 2.00    -0.1309)  ( 2.00    -0.1053)  ( 2.00    -0.1025)  ( 2.00    -0.1021)
                     ( 2.00    -0.0699)  ( 2.00    -0.0699)  ( 0.00    -0.0617)

 CYCLE    3
  SDIIS (wt  0.000):  0.7608  0.2392
 A-DIIS (wt  1.000):  0.7630  0.2370
  DIIS coefficients:  0.7630  0.2370
 SCF Error: norm([F,P])=      0.828336536467, max([F,P])=      0.280476215891
 orbitals (Q,E):
 ---------------
 A :5...15           ( 2.00    -0.7753)  ( 2.00    -0.7701)  ( 2.00    -0.2006)  ( 2.00    -0.1545)
                     ( 2.00    -0.1544)  ( 2.00    -0.1095)  ( 2.00    -0.0934)  ( 2.00    -0.0934)
                     ( 2.00    -0.0889)  ( 2.00    -0.0889)  ( 0.00    -0.0745)

 CYCLE    4
  SDIIS (wt  0.000):  0.6813  0.2292  0.0894
 A-DIIS (wt  1.000):  0.7017  0.2319  0.0664
  DIIS coefficients:  0.7017  0.2319  0.0664
 SCF Error: norm([F,P])=      0.687058713968, max([F,P])=      0.234351657894
 orbitals (Q,E):
 ---------------
 A :5...15           ( 2.00    -0.7839)  ( 2.00    -0.7711)  ( 2.00    -0.1911)  ( 2.00    -0.1400)
                     ( 2.00    -0.1398)  ( 2.00    -0.1133)  ( 2.00    -0.1016)  ( 2.00    -0.1015)
                     ( 2.00    -0.0898)  ( 2.00    -0.0898)  ( 0.00    -0.0739)

 CYCLE    5
  SDIIS (wt  0.243):  0.4510 -0.0053 -0.1100  0.6642
 A-DIIS (wt  0.757):  0.4939  0.0693  0.0000  0.4368
  DIIS coefficients:  0.4835  0.0511 -0.0268  0.4922
 SCF Error: norm([F,P])=      0.224364925903, max([F,P])=      0.075909240178
 orbitals (Q,E):
 ---------------
 A :5...15           ( 2.00    -0.7891)  ( 2.00    -0.7680)  ( 2.00    -0.1841)  ( 2.00    -0.1297)
                     ( 2.00    -0.1296)  ( 2.00    -0.1163)  ( 2.00    -0.1060)  ( 2.00    -0.1059)
                     ( 2.00    -0.0864)  ( 2.00    -0.0864)  ( 0.00    -0.0691)

 CYCLE    6
  SDIIS (wt  0.000):  0.3247 -0.0639  0.0062  0.4576  0.2754
 A-DIIS (wt  1.000):  0.3969  0.0000  0.0000  0.4275  0.1757
  DIIS coefficients:  0.3969  0.0000  0.0000  0.4275  0.1757
 SCF Error: norm([F,P])=      0.318396660432, max([F,P])=      0.105204263989
 orbitals (Q,E):
 ---------------
 A :5...15           ( 2.00    -0.7843)  ( 2.00    -0.7720)  ( 2.00    -0.1837)  ( 2.00    -0.1298)
                     ( 2.00    -0.1296)  ( 2.00    -0.1153)  ( 2.00    -0.1018)  ( 2.00    -0.1017)
                     ( 2.00    -0.0902)  ( 2.00    -0.0902)  ( 0.00    -0.0700)

 CYCLE    7
  SDIIS (wt  0.944):  0.0428  0.0070  0.0077  0.0892 -0.0049  0.8581
 A-DIIS (wt  0.056):  0.0000  0.0000  0.0000  0.0247  0.0000  0.9753
  DIIS coefficients:  0.0404  0.0066  0.0073  0.0856 -0.0046  0.8647
 SCF Error: norm([F,P])=      0.021536580316, max([F,P])=      0.006580689444
 orbitals (Q,E):
 ---------------
 A :5...15           ( 2.00    -0.7839)  ( 2.00    -0.7717)  ( 2.00    -0.1840)  ( 2.00    -0.1304)
                     ( 2.00    -0.1302)  ( 2.00    -0.1149)  ( 2.00    -0.1014)  ( 2.00    -0.1013)
                     ( 2.00    -0.0899)  ( 2.00    -0.0899)  ( 0.00    -0.0702)

 CYCLE    8
  SDIIS (wt  0.996):  0.0005  0.0015  0.0029  0.0135 -0.0075  0.3803  0.6089
 A-DIIS (wt  0.004):  0.0000  0.0000  0.0000  0.0000  0.0000  0.1295  0.8705
  DIIS coefficients:  0.0005  0.0015  0.0029  0.0135 -0.0075  0.3793  0.6098
 SCF Error: norm([F,P])=      0.004972141953, max([F,P])=      0.001374935218
 orbitals (Q,E):
 ---------------
 A :5...15           ( 2.00    -0.7841)  ( 2.00    -0.7718)  ( 2.00    -0.1840)  ( 2.00    -0.1303)
                     ( 2.00    -0.1301)  ( 2.00    -0.1151)  ( 2.00    -0.1015)  ( 2.00    -0.1015)
                     ( 2.00    -0.0900)  ( 2.00    -0.0900)  ( 0.00    -0.0702)

 CYCLE    9
[...]
 <Apr18-2019> <14:03:53>  cart. step rms                      0.01222082     0.00666667    F
  Coordinates in Geometry Cycle 24
    Atom         X           Y           Z   (Angstrom)
    1.F        -4.907884    3.116655   -0.050372
    2.F        -4.117516    1.530183    0.164957
    3.F        -5.749981    4.652081   -0.251786
 <Apr18-2019> <14:03:53>  >>>> CORORT
 <Apr18-2019> <14:03:53>  >>>> CLSMAT
 <Apr18-2019> <14:03:53>  >>>> ORTHON
 <Apr18-2019> <14:03:53>  >>>> GENPT
 <Apr18-2019> <14:03:53>  Block Length= 128
 <Apr18-2019> <14:03:53>  >>>> PTBAS
 <Apr18-2019> <14:03:53>  >>>> CYCLE
 <Apr18-2019> <14:03:53>              |Error|         MaxErr       Wt(A-DIIS)
 <Apr18-2019> <14:03:53>      1      0.04166128      0.01922142
 <Apr18-2019> <14:03:53>      2      0.05622442      0.01767837    100.0
 <Apr18-2019> <14:03:53>      3      0.05481523      0.01639166    100.0
 <Apr18-2019> <14:03:53>      4      0.01649747      0.00474929      3.8
 <Apr18-2019> <14:03:53>      5      0.01457200      0.00463571      3.7
 <Apr18-2019> <14:03:53>      6      0.00096086      0.00024093      0.0
 <Apr18-2019> <14:03:53>      7      0.00032598      0.00010497      0.0
 <Apr18-2019> <14:03:53>      8      0.00002147      0.00000488      0.0
 <Apr18-2019> <14:03:53>      9      0.00000708      0.00000199      0.0
 <Apr18-2019> <14:03:53>     10      0.00000067      0.00000018      0.0
 <Apr18-2019> <14:03:53>  SCF converged
 <Apr18-2019> <14:03:54>     11      0.00000013      0.00000004      0.0
 <Apr18-2019> <14:03:54>  >>>> TOTEN
 <Apr18-2019> <14:03:54>  >>>> POPAN
 <Apr18-2019> <14:03:54>  >>>> DEBYE
 <Apr18-2019> <14:03:54>  >>>> ENGRAD
 <Apr18-2019> <14:03:54>  current energy                               -0.35498073 Hartree
 <Apr18-2019> <14:03:54>  energy change                       0.00010819     0.00010000    F
 <Apr18-2019> <14:03:54>  constrained gradient max            0.00582424     0.00010000    F
 <Apr18-2019> <14:03:54>  constrained gradient rms            0.00287317     0.00006667    F
 <Apr18-2019> <14:03:54>  gradient max                        0.00582424
 <Apr18-2019> <14:03:54>  gradient rms                        0.00287317
 <Apr18-2019> <14:03:54>  cart. step max                      0.01591182     0.01000000    F
 <Apr18-2019> <14:03:54>  cart. step rms                      0.00733101     0.00666667    F
  Coordinates in Geometry Cycle 25
    Atom         X           Y           Z   (Angstrom)
    1.F        -4.911018    3.100744   -0.057400
    2.F        -4.113533    1.536832    0.168383
    3.F        -5.750830    4.661344   -0.248185
 <Apr18-2019> <14:03:54>  >>>> CORORT
 <Apr18-2019> <14:03:54>  >>>> CLSMAT
 <Apr18-2019> <14:03:54>  >>>> ORTHON
 <Apr18-2019> <14:03:54>  >>>> GENPT
 <Apr18-2019> <14:03:54>  Block Length= 128
 <Apr18-2019> <14:03:54>  >>>> PTBAS
 <Apr18-2019> <14:03:54>  >>>> CYCLE
 <Apr18-2019> <14:03:54>              |Error|         MaxErr       Wt(A-DIIS)
 <Apr18-2019> <14:03:54>      1      0.03521431      0.01227649
 <Apr18-2019> <14:03:54>      2      0.08906184      0.02878359    100.0
 <Apr18-2019> <14:03:54>      3      0.04329104      0.01197933    100.0
 <Apr18-2019> <14:03:54>      4      0.03338142      0.00902724      8.1
 <Apr18-2019> <14:03:54>      5      0.00778018      0.00240112      1.4
 <Apr18-2019> <14:03:54>      6      0.00061054      0.00019978      0.0
 <Apr18-2019> <14:03:54>      7      0.00016151      0.00004119      0.0
 <Apr18-2019> <14:03:54>      8      0.00005977      0.00001980      0.0
 <Apr18-2019> <14:03:55>      9      0.00000608      0.00000172      0.0
 <Apr18-2019> <14:03:55>     10      0.00000056      0.00000017      0.0
 <Apr18-2019> <14:03:55>  SCF converged
 <Apr18-2019> <14:03:55>     11      0.00000004      0.00000001      0.0
 <Apr18-2019> <14:03:55>  >>>> TOTEN
 <Apr18-2019> <14:03:55>  >>>> POPAN
 <Apr18-2019> <14:03:55>  >>>> DEBYE
 <Apr18-2019> <14:03:55>  >>>> ENGRAD
 <Apr18-2019> <14:03:55>  current energy                               -0.35503752 Hartree
 <Apr18-2019> <14:03:55>  energy change                      -0.00005679     0.00010000    T
 <Apr18-2019> <14:03:55>  constrained gradient max            0.00302553     0.00010000    F
 <Apr18-2019> <14:03:55>  constrained gradient rms            0.00186038     0.00006667    F
 <Apr18-2019> <14:03:55>  gradient max                        0.00302553
 <Apr18-2019> <14:03:55>  gradient rms                        0.00186038
 <Apr18-2019> <14:03:55>  cart. step max                      0.01489532     0.01000000    F
 <Apr18-2019> <14:03:55>  cart. step rms                      0.00988707     0.00666667    F
  Coordinates in Geometry Cycle 26
    Atom         X           Y           Z   (Angstrom)
    1.F        -4.918830    3.103940   -0.042504
    2.F        -4.098713    1.525225    0.161809
    3.F        -5.757838    4.669754   -0.256506
 <Apr18-2019> <14:03:55>  >>>> CORORT
 <Apr18-2019> <14:03:55>  >>>> CLSMAT
 <Apr18-2019> <14:03:55>  >>>> ORTHON
 <Apr18-2019> <14:03:55>  >>>> GENPT
 <Apr18-2019> <14:03:55>  Block Length= 128
 <Apr18-2019> <14:03:55>  >>>> PTBAS
 <Apr18-2019> <14:03:55>  >>>> CYCLE
 <Apr18-2019> <14:03:55>              |Error|         MaxErr       Wt(A-DIIS)
 <Apr18-2019> <14:03:55>      1      0.03724244      0.01661588
 <Apr18-2019> <14:03:55>      2      0.03839170      0.01192772    100.0
 <Apr18-2019> <14:03:55>      3      0.31686497      0.09568275    100.0
 <Apr18-2019> <14:03:55>      4      0.13740827      0.04101659    100.0
 <Apr18-2019> <14:03:55>      5      0.04775922      0.01471588    100.0
 <Apr18-2019> <14:03:55>      6      0.00717911      0.00206568      1.1
 <Apr18-2019> <14:03:56>      7      0.00053570      0.00014419      0.0
 <Apr18-2019> <14:03:56>      8      0.00020813      0.00005856      0.0
 <Apr18-2019> <14:03:56>      9      0.00005772      0.00001764      0.0
 <Apr18-2019> <14:03:56>     10      0.00000443      0.00000115      0.0
 <Apr18-2019> <14:03:56>     11      0.00000044      0.00000012      0.0
 <Apr18-2019> <14:03:56>  SCF converged
 <Apr18-2019> <14:03:56>     12      0.00000011      0.00000003      0.0
 <Apr18-2019> <14:03:56>  >>>> TOTEN
 <Apr18-2019> <14:03:56>  >>>> POPAN
 <Apr18-2019> <14:03:56>  >>>> DEBYE
 <Apr18-2019> <14:03:56>  >>>> ENGRAD
 <Apr18-2019> <14:03:56>  current energy                               -0.35505685 Hartree
 <Apr18-2019> <14:03:56>  energy change                      -0.00001933     0.00010000    T
 <Apr18-2019> <14:03:56>  constrained gradient max            0.00310349     0.00010000    F
 <Apr18-2019> <14:03:56>  constrained gradient rms            0.00153314     0.00006667    F
 <Apr18-2019> <14:03:56>  gradient max                        0.00310349
 <Apr18-2019> <14:03:56>  gradient rms                        0.00153314
 <Apr18-2019> <14:03:56>  cart. step max                      0.01072673     0.01000000    F
 <Apr18-2019> <14:03:56>  cart. step rms                      0.00611027     0.00666667    T
  Coordinates in Geometry Cycle 27
    Atom         X           Y           Z   (Angstrom)
    1.F        -4.929556    3.104069   -0.047149
    2.F        -4.097027    1.532290    0.163048
    3.F        -5.748797    4.662561   -0.253100
 <Apr18-2019> <14:03:56>  >>>> CORORT
 <Apr18-2019> <14:03:56>  >>>> CLSMAT
 <Apr18-2019> <14:03:56>  >>>> ORTHON
 <Apr18-2019> <14:03:56>  >>>> GENPT
 <Apr18-2019> <14:03:56>  Block Length= 128
 <Apr18-2019> <14:03:56>  >>>> PTBAS
 <Apr18-2019> <14:03:56>  >>>> CYCLE
 <Apr18-2019> <14:03:56>              |Error|         MaxErr       Wt(A-DIIS)
 <Apr18-2019> <14:03:56>      1      0.02571625      0.01311256
 <Apr18-2019> <14:03:56>      2      0.04343265      0.01405819    100.0
 <Apr18-2019> <14:03:56>      3      0.04340881      0.01277120    100.0
 <Apr18-2019> <14:03:57>      4      0.01463527      0.00425668      3.3
 <Apr18-2019> <14:03:57>      5      0.01071968      0.00334545      2.4
 <Apr18-2019> <14:03:57>      6      0.00050092      0.00013507      0.0
 <Apr18-2019> <14:03:57>      7      0.00014066      0.00004473      0.0
 <Apr18-2019> <14:03:57>      8      0.00001357      0.00000314      0.0
 <Apr18-2019> <14:03:57>      9      0.00000391      0.00000119      0.0
 <Apr18-2019> <14:03:57>     10      0.00000076      0.00000023      0.0
 <Apr18-2019> <14:03:57>  SCF converged
 <Apr18-2019> <14:03:57>     11      0.00000008      0.00000003      0.0
 <Apr18-2019> <14:03:57>  >>>> TOTEN
 <Apr18-2019> <14:03:57>  >>>> POPAN
 <Apr18-2019> <14:03:57>  >>>> DEBYE
 <Apr18-2019> <14:03:57>  >>>> ENGRAD
 <Apr18-2019> <14:03:57>  current energy                               -0.35507511 Hartree
 <Apr18-2019> <14:03:57>  energy change                      -0.00001826     0.00010000    T
 <Apr18-2019> <14:03:57>  constrained gradient max            0.00310960     0.00010000    F
 <Apr18-2019> <14:03:57>  constrained gradient rms            0.00151925     0.00006667    F
 <Apr18-2019> <14:03:57>  gradient max                        0.00310960
 <Apr18-2019> <14:03:57>  gradient rms                        0.00151925
 <Apr18-2019> <14:03:57>  cart. step max                      0.00976061     0.01000000    T
 <Apr18-2019> <14:03:57>  cart. step rms                      0.00605393     0.00666667    T
  Coordinates in Geometry Cycle 28
    Atom         X           Y           Z   (Angstrom)
    1.F        -4.919796    3.094377   -0.045037
    2.F        -4.102091    1.541483    0.161126
    3.F        -5.753494    4.663059   -0.253290
 <Apr18-2019> <14:03:57>  >>>> CORORT
 <Apr18-2019> <14:03:57>  >>>> CLSMAT
 <Apr18-2019> <14:03:57>  >>>> ORTHON
 <Apr18-2019> <14:03:57>  >>>> GENPT
 <Apr18-2019> <14:03:57>  Block Length= 128
 <Apr18-2019> <14:03:57>  >>>> PTBAS
 <Apr18-2019> <14:03:57>  >>>> CYCLE
 <Apr18-2019> <14:03:57>              |Error|         MaxErr       Wt(A-DIIS)
 <Apr18-2019> <14:03:57>      1      0.03677930      0.01391165
 <Apr18-2019> <14:03:58>      2      0.10000030      0.03241959    100.0
 <Apr18-2019> <14:03:58>      3      0.09962021      0.02936431    100.0
 <Apr18-2019> <14:03:58>      4      0.01348887      0.00338201      2.4
 <Apr18-2019> <14:03:58>      5      0.00269389      0.00084795      0.0
 <Apr18-2019> <14:03:58>      6      0.00139717      0.00043257      0.0
 <Apr18-2019> <14:03:58>      7      0.00035544      0.00011449      0.0
 <Apr18-2019> <14:03:58>      8      0.00012761      0.00004191      0.0
 <Apr18-2019> <14:03:58>      9      0.00000970      0.00000290      0.0
 <Apr18-2019> <14:03:58>     10      0.00000037      0.00000010      0.0
 <Apr18-2019> <14:03:58>  SCF converged
 <Apr18-2019> <14:03:58>     11      0.00000006      0.00000002      0.0
 <Apr18-2019> <14:03:58>  >>>> TOTEN
 <Apr18-2019> <14:03:58>  >>>> POPAN
 <Apr18-2019> <14:03:58>  >>>> DEBYE
 <Apr18-2019> <14:03:58>  >>>> ENGRAD
 <Apr18-2019> <14:03:58>  current energy                               -0.35506322 Hartree
 <Apr18-2019> <14:03:58>  energy change                       0.00001189     0.00010000    T
 <Apr18-2019> <14:03:58>  constrained gradient max            0.00376940     0.00010000    F
 <Apr18-2019> <14:03:58>  constrained gradient rms            0.00198372     0.00006667    F
 <Apr18-2019> <14:03:58>  gradient max                        0.00376940
 <Apr18-2019> <14:03:58>  gradient rms                        0.00198372
 <Apr18-2019> <14:03:58>  cart. step max                      0.00949207     0.01000000    T
 <Apr18-2019> <14:03:58>  cart. step rms                      0.00514525     0.00666667    T
  Coordinates in Geometry Cycle 29
    Atom         X           Y           Z   (Angstrom)
    1.F        -4.925282    3.103869   -0.046089
    2.F        -4.094144    1.535814    0.161176
    3.F        -5.755954    4.659235   -0.252289
 <Apr18-2019> <14:03:58>  >>>> CORORT
 <Apr18-2019> <14:03:58>  >>>> CLSMAT
 <Apr18-2019> <14:03:58>  >>>> ORTHON
 <Apr18-2019> <14:03:58>  >>>> GENPT
 <Apr18-2019> <14:03:58>  Block Length= 128
 <Apr18-2019> <14:03:58>  >>>> PTBAS
 <Apr18-2019> <14:03:58>  >>>> CYCLE
 <Apr18-2019> <14:03:59>              |Error|         MaxErr       Wt(A-DIIS)
 <Apr18-2019> <14:03:59>      1      0.03023892      0.01147919
 <Apr18-2019> <14:03:59>      2      0.08375944      0.02715494    100.0
 <Apr18-2019> <14:03:59>      3      0.09593578      0.02854884    100.0
 <Apr18-2019> <14:03:59>      4      0.01292744      0.00287895      1.9
 <Apr18-2019> <14:03:59>      5      0.01577936      0.00506305    100.0
 <Apr18-2019> <14:03:59>      6      0.02903446      0.00935645    100.0
 <Apr18-2019> <14:03:59>      7      0.00554748      0.00152479      0.5
 <Apr18-2019> <14:03:59>      8      0.00012175      0.00003702      0.0
 <Apr18-2019> <14:03:59>      9      0.00003728      0.00001208      0.0
 <Apr18-2019> <14:03:59>     10      0.00001121      0.00000353      0.0
 <Apr18-2019> <14:03:59>     11      0.00000192      0.00000060      0.0
 <Apr18-2019> <14:03:59>  SCF converged
 <Apr18-2019> <14:03:59>     12      0.00000009      0.00000003      0.0
 <Apr18-2019> <14:03:59>  >>>> TOTEN
 <Apr18-2019> <14:04:00>  >>>> POPAN
 <Apr18-2019> <14:04:00>  >>>> DEBYE
 <Apr18-2019> <14:04:00>  >>>> ENGRAD
 <Apr18-2019> <14:04:00>  current energy                               -0.35508528 Hartree
 <Apr18-2019> <14:04:00>  energy change                      -0.00002206     0.00010000    T
 <Apr18-2019> <14:04:00>  constrained gradient max            0.00217402     0.00010000    F
 <Apr18-2019> <14:04:00>  constrained gradient rms            0.00097021     0.00006667    F
 <Apr18-2019> <14:04:00>  gradient max                        0.00217402
 <Apr18-2019> <14:04:00>  gradient rms                        0.00097021
 <Apr18-2019> <14:04:00>  cart. step max                      0.01225583     0.01000000    F
 <Apr18-2019> <14:04:00>  cart. step rms                      0.00631669     0.00666667    T
  Coordinates in Geometry Cycle 30
    Atom         X           Y           Z   (Angstrom)
    1.F        -4.929621    3.093847   -0.040726
    2.F        -4.088123    1.533581    0.159593
    3.F        -5.757636    4.671491   -0.256068
 <Apr18-2019> <14:04:00>  >>>> CORORT
 <Apr18-2019> <14:04:00>  >>>> CLSMAT
 <Apr18-2019> <14:04:00>  >>>> ORTHON
 <Apr18-2019> <14:04:00>  >>>> GENPT
 <Apr18-2019> <14:04:00>  Block Length= 128
 <Apr18-2019> <14:04:00>  >>>> PTBAS
 <Apr18-2019> <14:04:00>  >>>> CYCLE
 <Apr18-2019> <14:04:00>              |Error|         MaxErr       Wt(A-DIIS)
 <Apr18-2019> <14:04:00>      1      0.02831932      0.01002339
 <Apr18-2019> <14:04:00>      2      0.05734413      0.01845399    100.0
 <Apr18-2019> <14:04:00>      3      0.44290656      0.13257847    100.0
 <Apr18-2019> <14:04:00>      4      0.19071026      0.05834663    100.0
 <Apr18-2019> <14:04:00>      5      0.06636086      0.02106811    100.0
 <Apr18-2019> <14:04:00>      6      0.01664708      0.00447269      3.5
 <Apr18-2019> <14:04:00>      7      0.00227111      0.00069376      0.0
 <Apr18-2019> <14:04:00>      8      0.00019155      0.00005696      0.0
 <Apr18-2019> <14:04:00>      9      0.00009099      0.00002944      0.0
 <Apr18-2019> <14:04:00>     10      0.00000166      0.00000031      0.0
 <Apr18-2019> <14:04:00>  SCF converged
 <Apr18-2019> <14:04:01>     11      0.00000044      0.00000012      0.0
 <Apr18-2019> <14:04:01>  >>>> TOTEN
 <Apr18-2019> <14:04:01>  >>>> POPAN
 <Apr18-2019> <14:04:01>  >>>> DEBYE
 <Apr18-2019> <14:04:01>  >>>> ENGRAD
 <Apr18-2019> <14:04:01>  current energy                               -0.35505558 Hartree
 <Apr18-2019> <14:04:01>  energy change                       0.00002970     0.00010000    T
 <Apr18-2019> <14:04:01>  constrained gradient max            0.00356030     0.00010000    F
 <Apr18-2019> <14:04:01>  constrained gradient rms            0.00164278     0.00006667    F
 <Apr18-2019> <14:04:01>  gradient max                        0.00356030
 <Apr18-2019> <14:04:01>  gradient rms                        0.00164278
 <Apr18-2019> <14:04:01>  cart. step max                      0.01106664     0.01000000    F
 <Apr18-2019> <14:04:01>  cart. step rms                      0.00611041     0.00666667    T
  Coordinates in Geometry Cycle 31
    Atom         X           Y           Z   (Angstrom)
    1.F        -4.925131    3.099648   -0.045735
    2.F        -4.099231    1.533937    0.157550
    3.F        -5.751018    4.665335   -0.249017
 <Apr18-2019> <14:04:01>  >>>> CORORT
 <Apr18-2019> <14:04:01>  >>>> CLSMAT
 <Apr18-2019> <14:04:01>  >>>> ORTHON
 <Apr18-2019> <14:04:01>  >>>> GENPT
 <Apr18-2019> <14:04:01>  Block Length= 128
 <Apr18-2019> <14:04:01>  >>>> PTBAS
 <Apr18-2019> <14:04:01>  >>>> CYCLE
 <Apr18-2019> <14:04:01>              |Error|         MaxErr       Wt(A-DIIS)
 <Apr18-2019> <14:04:01>      1      0.02135582      0.00869219
 <Apr18-2019> <14:04:01>      2      0.02760452      0.00864626    100.0
 <Apr18-2019> <14:04:01>      3      0.02713298      0.00809918    100.0
 <Apr18-2019> <14:04:01>      4      0.01402066      0.00424666      3.3
 <Apr18-2019> <14:04:01>      5      0.00676868      0.00193962      0.9
 <Apr18-2019> <14:04:01>      6      0.00042135      0.00013097      0.0
 <Apr18-2019> <14:04:01>      7      0.00013268      0.00004350      0.0
 <Apr18-2019> <14:04:01>      8      0.00001003      0.00000250      0.0
 <Apr18-2019> <14:04:02>      9      0.00000254      0.00000069      0.0
 <Apr18-2019> <14:04:02>  SCF converged
 <Apr18-2019> <14:04:02>     10      0.00000046      0.00000014      0.0
 <Apr18-2019> <14:04:02>  >>>> TOTEN
 <Apr18-2019> <14:04:02>  >>>> POPAN
 <Apr18-2019> <14:04:02>  >>>> DEBYE
 <Apr18-2019> <14:04:02>  >>>> ENGRAD
 <Apr18-2019> <14:04:02>  current energy                               -0.35509236 Hartree
 <Apr18-2019> <14:04:02>  energy change                      -0.00003678     0.00010000    T
 <Apr18-2019> <14:04:02>  constrained gradient max            0.00000606     0.00010000    T
 <Apr18-2019> <14:04:02>  constrained gradient rms            0.00000298     0.00006667    T
 <Apr18-2019> <14:04:02>  gradient max                        0.00000606
 <Apr18-2019> <14:04:02>  gradient rms                        0.00000298
 <Apr18-2019> <14:04:02>  cart. step max                      0.01935841     0.01000000    F
 <Apr18-2019> <14:04:02>  cart. step rms                      0.01222073     0.00666667    F
 <Apr18-2019> <14:04:02>  GEOMETRY CONVERGED
 <Apr18-2019> <14:04:02>  Calculating Energy Terms for Final Geometry
  Coordinates in Geometry Cycle 31
    Atom         X           Y           Z   (Angstrom)
    1.F        -4.925131    3.099648   -0.045735
    2.F        -4.099231    1.533937    0.157550
    3.F        -5.751018    4.665335   -0.249017
 <Apr18-2019> <14:04:02>  >>>> CORORT
 <Apr18-2019> <14:04:02>  >>>> CLSMAT
 <Apr18-2019> <14:04:02>  >>>> ORTHON
 <Apr18-2019> <14:04:02>  >>>> GENPT
 <Apr18-2019> <14:04:02>  Block Length= 128
 <Apr18-2019> <14:04:02>  >>>> PTBAS
 <Apr18-2019> <14:04:02>  >>>> CYCLE
 <Apr18-2019> <14:04:02>              |Error|         MaxErr       Wt(A-DIIS)
 <Apr18-2019> <14:04:02>      1      0.00000006      0.00000002
 <Apr18-2019> <14:04:02>      2      0.00000032      0.00000012    100.0
 <Apr18-2019> <14:04:02>  SCF converged
 <Apr18-2019> <14:04:02>      3      0.00000216      0.00000071    100.0
 <Apr18-2019> <14:04:02>  >>>> TOTEN
 <Apr18-2019> <14:04:02>  >>>> POPAN
 <Apr18-2019> <14:04:02>  >>>> DEBYE
 <Apr18-2019> <14:04:02>  >>>> AMETS
 <Apr18-2019> <14:04:02>  >>>> POPUL
 <Apr18-2019> <14:04:02>   Bond Energy          -0.35509235 a.u.
 <Apr18-2019> <14:04:02>   Bond Energy          -9.66255461 eV
 <Apr18-2019> <14:04:02>   Bond Energy        -222.82       kcal/mol
 <Apr18-2019> <14:04:02>  >>>> ENHESS
 <Apr18-2019> <14:04:02>  === NUCLEUS:     1
 <Apr18-2019> <14:04:04>  === NUCLEUS:     2
 <Apr18-2019> <14:04:06>  === NUCLEUS:     3
 <Apr18-2019> <14:04:07>  >>>> CALC_HESS_PMAT
 <Apr18-2019> <14:04:08>  >>>> CALC_HESS_WMAT
 <Apr18-2019> <14:04:08>  NORMAL TERMINATION
 <Apr18-2019> <14:04:08>  END
