

 Parallel Execution: Process Information
 ==============================================================================
 Rank   Node Name                              NodeID   MyNodeRank  NodeMaster
    0   BAZIS-cn022                               0          0          0
    1   BAZIS-cn022                               0          1         -1
    2   BAZIS-cn022                               0          2         -1
    3   BAZIS-cn022                               0          3         -1
    4   BAZIS-cn022                               0          4         -1
    5   BAZIS-cn022                               0          5         -1
    6   BAZIS-cn022                               0          6         -1
    7   BAZIS-cn022                               0          7         -1
    8   BAZIS-cn022                               0          8         -1
    9   BAZIS-cn022                               0          9         -1
   10   BAZIS-cn022                               0         10         -1
   11   BAZIS-cn022                               0         11         -1
 ==============================================================================


May use up to 30771MB of RAM as shared memory on node 0


XC
    GGA BLYP
END

SCF
    iterations 250
END

EPRINT
    SFO Eig Ovl
END

ZLMFIT
    Quality normal
END

BECKEGRID
    Quality good
End

SYMMETRY T(d)
CHARGE 0

ATOMS
Ni       0.00000000       0.00000000       0.00000000 f=1
C      -1.69105041      -0.45311559      -0.61896741 f=2
O      -2.73847408      -0.73377192      -1.00235108 f=2
C       0.00000000       0.00000000       1.85690223 f=2
O       0.00000000       0.00000000       3.00705324 f=2
C       0.45311559       1.69105041      -0.61896741 f=2
O       0.73377192       2.73847408      -1.00235108 f=2
C       1.23793482      -1.23793482      -0.61896741 f=2
O       2.00470216      -2.00470216      -1.00235108 f=2
END

Fragments
1 /home/tcst25/advanced_comp_chemistry/exercise3/NiCO4/method2/sp_Ni.t21
2 /home/tcst25/advanced_comp_chemistry/exercise3/NiCO4/method2/sp_CO4.t21
End
end input

 *******************************************************************************
 *                                                                             *
 *  -------------------------------------                                      *
 *   Amsterdam Density Functional  (ADF)         2017                          *
 *  -------------------------------------                                      *
 *                                               r58813 2017-04-12             *
 *                                                                             *
 *                                                                             *
 *                              =================                              *
 *                              |               |                              *
 *                              |     A D F     |                              *
 *                              |               |                              *
 *                              =================                              *
 *                                                                             *
 *                                                                             *
 *   Online information and documentation:  https://www.scm.com/support/       *
 *   E-mail:  support@scm.com   info@scm.com                                   *
 *                                                                             *
 *   Scientific publications using ADF results must be properly referenced     *
 *   See the User Manuals (or the web site) for recommended citations          *
 *   The terms and conditions of the End User License Agreement apply to       *
 *   the use of ADF, https://www.scm.com/license-terms/                        *
 *                                                                             *
 **********************  x86_64_linux_intel / intelmpi  ************************
 
 Licensed to: VU/FEW (+ SARA) / ALGEMEEN / Amsterdam / THE NETHERLANDS
 SCM User ID: u7668
  
 ADF 2017  RunTime: May15-2019 13:53:12  Nodes: 1  Procs: 12

 Temporary files are created in /local/datastore0/tcst25/190401/kid_0.QXBnGt


Communication costs MPI_COMM_WORLD:      3.832 usec per message,   0.0177 usec per 8-byte item
Communication costs for intra-node:      3.861 usec per message,   0.0180 usec per 8-byte item

 *** (NO TITLE) ***



 ===========================
 A T T A C H E D   F I L E S
 ===========================
  



 ===============================
 M O D E L   P A R A M E T E R S
 ===============================
  
 DENSITY FUNCTIONAL POTENTIAL (scf)
    LDA:                               Exchange only                           == Not Default ==
    Gradient Corrections:              Becke88 LYP                             == Not Default ==

 SPIN  (restricted / unrestr.)
    Molecule:                          Restricted                               
    Fragments:                         Restricted                               

 OTHER ASPECTS
    Relativistic Corrections:          ---                                      

    Nuclear Charge Density Model:      Point Charge Nuclei                      
    Core Treatment:                    Frozen Orbital(s)                        

    Hyperfine or Zeeman Interaction:   ---                                      


 Fragment File(s)
 ----------------
 1:
         file : /home/tcst25/advanced_comp_chemistry/exercise3/NiCO4/method2/sp_Ni.t21
         jobid: ADF development version  RunTime: May02-2019 16:25:53  Nodes: 1  Procs: 12
         title: *** (NO TITLE) ***
 2:
         file : /home/tcst25/advanced_comp_chemistry/exercise3/NiCO4/method2/sp_CO4.t21
         jobid: ADF development version  RunTime: May02-2019 16:19:33  Nodes: 1  Procs: 12
         title: *** (NO TITLE) ***



                                        ************************************
                                        *  R U N   T Y P E : SINGLE POINT  *
                                        ************************************
  



 ===============
 G E O M E T R Y  ***  3D  Molecule  ***
 ===============
  

 ATOMS
 =====                            X Y Z                    CHARGE
                                (Angstrom)             Nucl     +Core       At.Mass
                       --------------------------    ----------------       -------
    1  Ni              0.0000    0.0000    0.0000     28.00     28.00       57.9353
    2  C              -1.0721   -1.0721   -1.0721      6.00      6.00       12.0000
    3  O              -1.7361   -1.7361   -1.7361      8.00      8.00       15.9949
    4  C              -1.0721    1.0721    1.0721      6.00      6.00       12.0000
    5  O              -1.7361    1.7361    1.7361      8.00      8.00       15.9949
    6  C               1.0721    1.0721   -1.0721      6.00      6.00       12.0000
    7  O               1.7361    1.7361   -1.7361      8.00      8.00       15.9949
    8  C               1.0721   -1.0721    1.0721      6.00      6.00       12.0000
    9  O               1.7361   -1.7361    1.7361      8.00      8.00       15.9949


 FRAGMENTS
 =========                                     Atoms in this Fragment     Cart. coord.s (Angstrom)
                                               -------------------------------------------------------
    1  1                                                 1  Ni           0.0000    0.0000    0.0000
    2  2                                                 2  C           -1.0721   -1.0721   -1.0721
                                                         4  C           -1.0721    1.0721    1.0721
                                                         6  C            1.0721    1.0721   -1.0721
                                                         8  C            1.0721   -1.0721    1.0721
                                                         3  O           -1.7361   -1.7361   -1.7361
                                                         5  O           -1.7361    1.7361    1.7361
                                                         7  O            1.7361    1.7361   -1.7361
                                                         9  O            1.7361   -1.7361    1.7361


 Interatomic Distance Matrix (Angstrom)
 --------------------------------------

   1)     0.000
   2)     1.857   0.000
   3)     3.007   1.150   0.000
   4)     1.857   3.032   4.027   0.000
   5)     3.007   4.027   4.910   1.150   0.000
   6)     1.857   3.032   4.027   3.032   4.027   0.000
   7)     3.007   4.027   4.910   4.027   4.910   1.150   0.000
   8)     1.857   3.032   4.027   3.032   4.027   3.032   4.027   0.000
   9)     3.007   4.027   4.910   4.027   4.910   4.027   4.910   1.150   0.000

 Min. Distance =    1.1502
 Max. Distance =    4.9105



 =====================================
 S Y M M E T R Y ,   E L E C T R O N S
 =====================================
  
 Symmetry: T(D)

 Irreducible Representations, including subspecies
 -------------------------------------------------
 A1
 A2
 E:1  E:2
 T1:1  T1:2  T1:3
 T2:1  T2:2  T2:3


 Configuration of Valence Electrons
 ==================================
 ( determined in the SCF procedure )

 Total:   84

 Net Charge: 0 (Nuclei minus Electrons)

 Aufbau principle for MO occupations will be applied through SCF cycle no.     125
 Thereafter, the program will assign electrons to MOs that are spatially
 similar to the occupied MOs in a "reference" cycle ("KeepOrbitals").
 The reference cycle is always the PREVIOUS cycle: it will evolve with
 the SCF procedure.
1
 ***************************************************************************************************



                                      ****************************************
                                      *  B U I L D : (Fragments, Functions)  *
                                      ****************************************
  

 The individual fragments are copies of the corresponding 'Master' fragments defined on the fragment files.
 However, they may have been rotated (and translated) with respect to the Master. The local coordinate axes
 of each fragment (which define for instance the spatial orientation in the current molecule of a fragment
 P:x orbital) are not necessarily those of the molecule.
 The local frame (if different from the molecular one) is printed to enable an interpretation of the expan-
 sion of an MO in Fragment Orbitals.



                                              ***********************
                                              *  Fragment Type : 1  *
                                              ***********************
  

 Fragment no.    1   (in the list of all fragments)
 -----------------
 The local coordinate frame is identical to the molecular frame.

 Check Atomic Coordinates:

                  Master (on file)          After Computed Tranformation               As specified on Input
           ----------------------------     ----------------------------     ---------------------------------
     1)     0.00000   0.00000   0.00000      0.00000   0.00000   0.00000       1   0.00000   0.00000   0.00000



                                              ***********************
                                              *  Fragment Type : 2  *
                                              ***********************
  

 Fragment no.    2   (in the list of all fragments)
 -----------------
 The local coordinate frame is identical to the molecular frame.

 Check Atomic Coordinates:

                  Master (on file)          After Computed Tranformation               As specified on Input
           ----------------------------     ----------------------------     ---------------------------------
     1)    -1.07208  -1.07208  -1.07208     -1.07208  -1.07208  -1.07208       2  -1.07208  -1.07208  -1.07208
     2)    -1.07208   1.07208   1.07208     -1.07208   1.07208   1.07208       4  -1.07208   1.07208   1.07208
     3)     1.07208   1.07208  -1.07208      1.07208   1.07208  -1.07208       6   1.07208   1.07208  -1.07208
     4)     1.07208  -1.07208   1.07208      1.07208  -1.07208   1.07208       8   1.07208  -1.07208   1.07208
     5)    -1.73612  -1.73612  -1.73612     -1.73612  -1.73612  -1.73612       3  -1.73612  -1.73612  -1.73612
     6)    -1.73612   1.73612   1.73612     -1.73612   1.73612   1.73612       5  -1.73612   1.73612   1.73612
     7)     1.73612   1.73612  -1.73612      1.73612   1.73612  -1.73612       7   1.73612   1.73612  -1.73612
     8)     1.73612  -1.73612   1.73612      1.73612  -1.73612   1.73612       9   1.73612  -1.73612   1.73612



 =======
 S F O s  ***  (Symmetrized Fragment Orbitals)  ***
 =======
  
 SFOs are linear combinations of (valence) Fragment Orbitals (FOs), such that the SFOs transform as the
 irreducible representations of the (molecular) symmetry group. Each SFO is therefore characterized by
 an irrep of the molecule and by a few (or only one) generating FOs.
 The SFOs constitute a symmetry-adapted basis for the Fock matrix. The MO eigenvector coefficients in
 this basis provide a direct interpretation of the MOs in terms of Frontier Orbital Theory.

 The SFOs are combined with auxiliary Core Functions (CFs) to ensure orthogonalization on the (frozen)
 Core Orbitals (COs). The Core-orthogonalized SFOs (CSFOs) constitute the true Fock basis.

 The FOs, and hence also the (C)SFOs are combinations of the elementary basis functions (BAS). The basis
 functions that participate in the description of the SFOs depend on the irrep. The indices of the
 involved functions are printed below for each irrep.
 (The complete list of primitive basis functions is printed in another section)

 Total nr. of (C)SFOs (summation over all irreps) :   257

 NOTE: a (C)SFO that is defined as a combination of more than one FO is usually NOT normalized.



                                       === A1 ===
 Nr. of SFOs :   32
 Cartesian basis functions that participate in this irrep (total number =   259) :
      1     2     3     4    11    12    40    41    42    27
     22    25    33    28    31    39    34    37    50    56
     86   116   146    57    87   117   147    58    88   118
    148    59    89   119   149    60    90   120   150    63
     61    62    93    91    92   123   121   122   153   151
    152    66    64    65    96    94    95   126   124   125
    156   154   155    69    67    68    99    97    98   129
    127   128   159   157   158    75    70    73   105   100
    103   135   130   133   165   160   163    72    74    71
    102   104   101   132   134   131   162   164   161    80
    110   140   170    85    76    82   115   106   112   145
    136   142   175   166   172    81    84    78    83    77
     79   111   114   108   113   107   109   141   144   138
    143   137   139   171   174   168   173   167   169   176
    206   236   266   177   207   237   267   178   208   238
    268   179   209   239   269   180   210   240   270   183
    181   182   213   211   212   243   241   242   273   271
    272   186   184   185   216   214   215   246   244   245
    276   274   275   189   187   188   219   217   218   249
    247   248   279   277   278   195   190   193   225   220
    223   255   250   253   285   280   283   192   194   191
    222   224   221   252   254   251   282   284   281   200
    230   260   290   205   196   202   235   226   232   265
    256   262   295   286   292   201   204   198   203   197
    199   231   234   228   233   227   229   261   264   258
    263   257   259   291   294   288   293   287   289

    SFO  (index         Fragment          Generating    Expansion in Fragment Orbitals
  indx  incl.CFs)   Occup   Orb.Energy   FragmentType  Coeff.   Orbital     on Fragment
 --------------------------------------------------------------------------------------
     1       1      2.000    -298.190 au  1             1.00      1 S               1
                        (   -8114.154 eV)
     2       2      2.000     -34.964 au  1             1.00      2 S               1
                        (    -951.424 eV)
     3       3      2.000      -3.559 au  1             1.00      3 S               1
                        (     -96.853 eV)
     4       4       --        -0.097 au  1             1.00      4 S               1
                        (      -2.647 eV)
     5       5       --         0.110 au  1             1.00      5 S               1
                        (       3.004 eV)
     6       6       --         0.829 au  1             1.00      6 S               1
                        (      22.569 eV)
     7       7       --         5.192 au  1             1.00      7 S               1
                        (     141.274 eV)
     8       8       --        35.278 au  1             1.00      8 S               1
                        (     959.964 eV)
     9       9       --       612.347 au  1             1.00      9 S               1
                        (   16662.799 eV)
    10      10       --         1.684 au  1             1.00      1 F:xyz           1
                        (      45.811 eV)
    11      11      2.000     -18.880 au  2             1.00      1 A1              2
                        (    -513.751 eV)
    12      12      2.000     -10.027 au  2             1.00      2 A1              2
                        (    -272.848 eV)
    13      13      2.000      -1.055 au  2             1.00      3 A1              2
                        (     -28.706 eV)
    14      14      2.000      -0.515 au  2             1.00      4 A1              2
                        (     -14.002 eV)
    15      15      2.000      -0.375 au  2             1.00      5 A1              2
                        (     -10.196 eV)
    16      16       --         0.142 au  2             1.00      6 A1              2
                        (       3.870 eV)
    17      17       --         0.332 au  2             1.00      7 A1              2
                        (       9.027 eV)
    18      18       --         0.357 au  2             1.00      8 A1              2
                        (       9.705 eV)
    19      19       --         0.599 au  2             1.00      9 A1              2
                        (      16.301 eV)
    20      20       --         1.456 au  2             1.00     10 A1              2
                        (      39.616 eV)
    21      21       --         2.011 au  2             1.00     11 A1              2
                        (      54.723 eV)
    22      22       --         2.139 au  2             1.00     12 A1              2
                        (      58.215 eV)
    23      23       --         2.907 au  2             1.00     13 A1              2
                        (      79.106 eV)
    24      24       --         3.245 au  2             1.00     14 A1              2
                        (      88.295 eV)
    25      25       --         3.866 au  2             1.00     15 A1              2
                        (     105.198 eV)
    26      26       --         4.193 au  2             1.00     16 A1              2
                        (     114.098 eV)
    27      27       --         5.117 au  2             1.00     17 A1              2
                        (     139.227 eV)
    28      28       --         5.960 au  2             1.00     18 A1              2
                        (     162.180 eV)
    29      29       --         9.934 au  2             1.00     19 A1              2
                        (     270.311 eV)
    30      30       --        15.434 au  2             1.00     20 A1              2
                        (     419.968 eV)
    31      31       --        53.793 au  2             1.00     21 A1              2
                        (    1463.788 eV)
    32      32       --       128.768 au  2             1.00     22 A1              2
                        (    3503.949 eV)



                                       === A2 ===
 Nr. of SFOs :    2
 Cartesian basis functions that participate in this irrep (total number =    48) :
     81    84    78    83    77    79   111   114   108   113
    107   109   141   144   138   143   137   139   171   174
    168   173   167   169   201   204   198   203   197   199
    231   234   228   233   227   229   261   264   258   263
    257   259   291   294   288   293   287   289

    SFO  (index         Fragment          Generating    Expansion in Fragment Orbitals
  indx  incl.CFs)   Occup   Orb.Energy   FragmentType  Coeff.   Orbital     on Fragment
 --------------------------------------------------------------------------------------
     1       1       --         3.245 au  2             1.00      1 A2              2
                        (      88.311 eV)
     2       2       --         4.203 au  2             1.00      2 A2              2
                        (     114.366 eV)



                                       === E:1 ===
 Nr. of SFOs :   17
 Cartesian basis functions that participate in this irrep (total number =   201) :
     27    22    25    33    28    31    39    34    37    63
     61    62    93    91    92   123   121   122   153   151
    152    66    64    65    96    94    95   126   124   125
    156   154   155    69    67    68    99    97    98   129
    127   128   159   157   158    75    70    73   105   100
    103   135   130   133   165   160   163    72    74    71
    102   104   101   132   134   131   162   164   161    85
     76    82   115   106   112   145   136   142   175   166
    172    81    84    78    83    77    79   111   114   108
    113   107   109   141   144   138   143   137   139   171
    174   168   173   167   169   183   181   182   213   211
    212   243   241   242   273   271   272   186   184   185
    216   214   215   246   244   245   276   274   275   189
    187   188   219   217   218   249   247   248   279   277
    278   195   190   193   225   220   223   255   250   253
    285   280   283   192   194   191   222   224   221   252
    254   251   282   284   281   205   196   202   235   226
    232   265   256   262   295   286   292   201   204   198
    203   197   199   231   234   228   233   227   229   261
    264   258   263   257   259   291   294   288   293   287
    289

    SFO  (index         Fragment          Generating    Expansion in Fragment Orbitals
  indx  incl.CFs)   Occup   Orb.Energy   FragmentType  Coeff.   Orbital     on Fragment
 --------------------------------------------------------------------------------------
     1       1      2.000       0.010 au  1             1.00      1 D:z2            1
                        (       0.265 eV)
     2       2       --         0.747 au  1             1.00      2 D:z2            1
                        (      20.321 eV)
     3       3       --         5.934 au  1             1.00      3 D:z2            1
                        (     161.481 eV)
     4       4      2.000      -0.421 au  2             1.00      1 E:1             2
                        (     -11.449 eV)
     5       5       --        -0.082 au  2             1.00      2 E:1             2
                        (      -2.233 eV)
     6       6       --         0.181 au  2             1.00      3 E:1             2
                        (       4.922 eV)
     7       7       --         0.532 au  2             1.00      4 E:1             2
                        (      14.469 eV)
     8       8       --         0.922 au  2             1.00      5 E:1             2
                        (      25.088 eV)
     9       9       --         1.106 au  2             1.00      6 E:1             2
                        (      30.096 eV)
    10      10       --         1.517 au  2             1.00      7 E:1             2
                        (      41.279 eV)
    11      11       --         1.955 au  2             1.00      8 E:1             2
                        (      53.209 eV)
    12      12       --         2.437 au  2             1.00      9 E:1             2
                        (      66.320 eV)
    13      13       --         3.287 au  2             1.00     10 E:1             2
                        (      89.438 eV)
    14      14       --         3.926 au  2             1.00     11 E:1             2
                        (     106.827 eV)
    15      15       --         4.079 au  2             1.00     12 E:1             2
                        (     110.985 eV)
    16      16       --         5.193 au  2             1.00     13 E:1             2
                        (     141.295 eV)
    17      17       --         6.911 au  2             1.00     14 E:1             2
                        (     188.064 eV)



                                       === E:2 ===
 Nr. of SFOs :   17
 Cartesian basis functions that participate in this irrep (total number =   150) :
     22    25    28    31    34    37    61    62    91    92
    121   122   151   152    64    65    94    95   124   125
    154   155    67    68    97    98   127   128   157   158
     70    73   100   103   130   133   160   163    72    74
    102   104   132   134   162   164    76    82   106   112
    136   142   166   172    81    84    78    83    77    79
    111   114   108   113   107   109   141   144   138   143
    137   139   171   174   168   173   167   169   181   182
    211   212   241   242   271   272   184   185   214   215
    244   245   274   275   187   188   217   218   247   248
    277   278   190   193   220   223   250   253   280   283
    192   194   222   224   252   254   282   284   196   202
    226   232   256   262   286   292   201   204   198   203
    197   199   231   234   228   233   227   229   261   264
    258   263   257   259   291   294   288   293   287   289

    SFO  (index         Fragment          Generating    Expansion in Fragment Orbitals
  indx  incl.CFs)   Occup   Orb.Energy   FragmentType  Coeff.   Orbital     on Fragment
 --------------------------------------------------------------------------------------
     1       1      2.000       0.010 au  1             1.00      1 D:x2-y2         1
                        (       0.265 eV)
     2       2       --         0.747 au  1             1.00      2 D:x2-y2         1
                        (      20.321 eV)
     3       3       --         5.934 au  1             1.00      3 D:x2-y2         1
                        (     161.481 eV)
     4       4      2.000      -0.421 au  2             1.00      1 E:2             2
                        (     -11.449 eV)
     5       5       --        -0.082 au  2             1.00      2 E:2             2
                        (      -2.233 eV)
     6       6       --         0.181 au  2             1.00      3 E:2             2
                        (       4.922 eV)
     7       7       --         0.532 au  2             1.00      4 E:2             2
                        (      14.469 eV)
     8       8       --         0.922 au  2             1.00      5 E:2             2
                        (      25.088 eV)
     9       9       --         1.106 au  2             1.00      6 E:2             2
                        (      30.096 eV)
    10      10       --         1.517 au  2             1.00      7 E:2             2
                        (      41.279 eV)
    11      11       --         1.955 au  2             1.00      8 E:2             2
                        (      53.209 eV)
    12      12       --         2.437 au  2             1.00      9 E:2             2
                        (      66.320 eV)
    13      13       --         3.287 au  2             1.00     10 E:2             2
                        (      89.438 eV)
    14      14       --         3.926 au  2             1.00     11 E:2             2
                        (     106.827 eV)
    15      15       --         4.079 au  2             1.00     12 E:2             2
                        (     110.985 eV)
    16      16       --         5.193 au  2             1.00     13 E:2             2
                        (     141.295 eV)
    17      17       --         6.911 au  2             1.00     14 E:2             2
                        (     188.064 eV)



                                       === T1:1 ===
 Nr. of SFOs :   17
 Cartesian basis functions that participate in this irrep (total number =   146) :
     51    49    63    62    93    92   123   122   153   152
     66    65    96    95   126   125   156   155    69    68
     99    98   129   128   159   158    75    73   105   103
    135   133   165   163    72    71   102   101   132   131
    162   161    85    82   115   112   145   142   175   172
     81    84    78    83    77    79   111   114   108   113
    107   109   141   144   138   143   137   139   171   174
    168   173   167   169   183   182   213   212   243   242
    273   272   186   185   216   215   246   245   276   275
    189   188   219   218   249   248   279   278   195   193
    225   223   255   253   285   283   192   191   222   221
    252   251   282   281   205   202   235   232   265   262
    295   292   201   204   198   203   197   199   231   234
    228   233   227   229   261   264   258   263   257   259
    291   294   288   293   287   289

    SFO  (index         Fragment          Generating    Expansion in Fragment Orbitals
  indx  incl.CFs)   Occup   Orb.Energy   FragmentType  Coeff.   Orbital     on Fragment
 --------------------------------------------------------------------------------------
     1       1       --         1.684 au  1             0.79      1 F:z2x           1
                        (      45.811 eV)               0.61      1 F:x             1
     2       2      2.000      -0.417 au  2             1.00      1 T1:1            2
                        (     -11.351 eV)
     3       3       --        -0.042 au  2             1.00      2 T1:1            2
                        (      -1.133 eV)
     4       4       --         0.271 au  2             1.00      3 T1:1            2
                        (       7.362 eV)
     5       5       --         0.675 au  2             1.00      4 T1:1            2
                        (      18.362 eV)
     6       6       --         0.928 au  2             1.00      5 T1:1            2
                        (      25.241 eV)
     7       7       --         1.184 au  2             1.00      6 T1:1            2
                        (      32.222 eV)
     8       8       --         1.534 au  2             1.00      7 T1:1            2
                        (      41.746 eV)
     9       9       --         2.164 au  2             1.00      8 T1:1            2
                        (      58.885 eV)
    10      10       --         2.476 au  2             1.00      9 T1:1            2
                        (      67.387 eV)
    11      11       --         3.245 au  2             1.00     10 T1:1            2
                        (      88.305 eV)
    12      12       --         3.299 au  2             1.00     11 T1:1            2
                        (      89.759 eV)
    13      13       --         3.939 au  2             1.00     12 T1:1            2
                        (     107.192 eV)
    14      14       --         4.187 au  2             1.00     13 T1:1            2
                        (     113.925 eV)
    15      15       --         4.288 au  2             1.00     14 T1:1            2
                        (     116.678 eV)
    16      16       --         5.197 au  2             1.00     15 T1:1            2
                        (     141.430 eV)
    17      17       --         6.978 au  2             1.00     16 T1:1            2
                        (     189.873 eV)



                                       === T1:2 ===
 Nr. of SFOs :   17
 Cartesian basis functions that participate in this irrep (total number =   146) :
     54    47    63    61    93    91   123   121   153   151
     66    64    96    94   126   124   156   154    69    67
     99    97   129   127   159   157    75    70   105   100
    135   130   165   160    74    71   104   101   134   131
    164   161    85    76   115   106   145   136   175   166
     81    84    78    83    77    79   111   114   108   113
    107   109   141   144   138   143   137   139   171   174
    168   173   167   169   183   181   213   211   243   241
    273   271   186   184   216   214   246   244   276   274
    189   187   219   217   249   247   279   277   195   190
    225   220   255   250   285   280   194   191   224   221
    254   251   284   281   205   196   235   226   265   256
    295   286   201   204   198   203   197   199   231   234
    228   233   227   229   261   264   258   263   257   259
    291   294   288   293   287   289

    SFO  (index         Fragment          Generating    Expansion in Fragment Orbitals
  indx  incl.CFs)   Occup   Orb.Energy   FragmentType  Coeff.   Orbital     on Fragment
 --------------------------------------------------------------------------------------
     1       1       --         1.684 au  1            -0.79      1 F:z2y           1
                        (      45.811 eV)               0.61      1 F:y             1
     2       2      2.000      -0.417 au  2             1.00      1 T1:2            2
                        (     -11.351 eV)
     3       3       --        -0.042 au  2             1.00      2 T1:2            2
                        (      -1.133 eV)
     4       4       --         0.271 au  2             1.00      3 T1:2            2
                        (       7.362 eV)
     5       5       --         0.675 au  2             1.00      4 T1:2            2
                        (      18.362 eV)
     6       6       --         0.928 au  2             1.00      5 T1:2            2
                        (      25.241 eV)
     7       7       --         1.184 au  2             1.00      6 T1:2            2
                        (      32.222 eV)
     8       8       --         1.534 au  2             1.00      7 T1:2            2
                        (      41.746 eV)
     9       9       --         2.164 au  2             1.00      8 T1:2            2
                        (      58.885 eV)
    10      10       --         2.476 au  2             1.00      9 T1:2            2
                        (      67.387 eV)
    11      11       --         3.245 au  2             1.00     10 T1:2            2
                        (      88.305 eV)
    12      12       --         3.299 au  2             1.00     11 T1:2            2
                        (      89.759 eV)
    13      13       --         3.939 au  2             1.00     12 T1:2            2
                        (     107.192 eV)
    14      14       --         4.187 au  2             1.00     13 T1:2            2
                        (     113.925 eV)
    15      15       --         4.288 au  2             1.00     14 T1:2            2
                        (     116.678 eV)
    16      16       --         5.197 au  2             1.00     15 T1:2            2
                        (     141.430 eV)
    17      17       --         6.978 au  2             1.00     16 T1:2            2
                        (     189.873 eV)



                                       === T1:3 ===
 Nr. of SFOs :   17
 Cartesian basis functions that participate in this irrep (total number =   146) :
     48    53    61    62    91    92   121   122   151   152
     64    65    94    95   124   125   154   155    67    68
     97    98   127   128   157   158    70    73   100   103
    130   133   160   163    72    74   102   104   132   134
    162   164    76    82   106   112   136   142   166   172
     81    84    78    83    77    79   111   114   108   113
    107   109   141   144   138   143   137   139   171   174
    168   173   167   169   181   182   211   212   241   242
    271   272   184   185   214   215   244   245   274   275
    187   188   217   218   247   248   277   278   190   193
    220   223   250   253   280   283   192   194   222   224
    252   254   282   284   196   202   226   232   256   262
    286   292   201   204   198   203   197   199   231   234
    228   233   227   229   261   264   258   263   257   259
    291   294   288   293   287   289

    SFO  (index         Fragment          Generating    Expansion in Fragment Orbitals
  indx  incl.CFs)   Occup   Orb.Energy   FragmentType  Coeff.   Orbital     on Fragment
 --------------------------------------------------------------------------------------
     1       1       --         1.684 au  1            -1.00      1 F:z             1
                        (      45.811 eV)
     2       2      2.000      -0.417 au  2             1.00      1 T1:3            2
                        (     -11.351 eV)
     3       3       --        -0.042 au  2             1.00      2 T1:3            2
                        (      -1.133 eV)
     4       4       --         0.271 au  2             1.00      3 T1:3            2
                        (       7.362 eV)
     5       5       --         0.675 au  2             1.00      4 T1:3            2
                        (      18.362 eV)
     6       6       --         0.928 au  2             1.00      5 T1:3            2
                        (      25.241 eV)
     7       7       --         1.184 au  2             1.00      6 T1:3            2
                        (      32.222 eV)
     8       8       --         1.534 au  2             1.00      7 T1:3            2
                        (      41.746 eV)
     9       9       --         2.164 au  2             1.00      8 T1:3            2
                        (      58.885 eV)
    10      10       --         2.476 au  2             1.00      9 T1:3            2
                        (      67.387 eV)
    11      11       --         3.245 au  2             1.00     10 T1:3            2
                        (      88.305 eV)
    12      12       --         3.299 au  2             1.00     11 T1:3            2
                        (      89.759 eV)
    13      13       --         3.939 au  2             1.00     12 T1:3            2
                        (     107.192 eV)
    14      14       --         4.187 au  2             1.00     13 T1:3            2
                        (     113.925 eV)
    15      15       --         4.288 au  2             1.00     14 T1:3            2
                        (     116.678 eV)
    16      16       --         5.197 au  2             1.00     15 T1:3            2
                        (     141.430 eV)
    17      17       --         6.978 au  2             1.00     16 T1:3            2
                        (     189.873 eV)



                                       === T2:1 ===
 Nr. of SFOs :   46
 Cartesian basis functions that participate in this irrep (total number =   252) :
      5     8    13    16    19    43    26    32    38    46
     51    49    56    86   116   146    57    87   117   147
     58    88   118   148    59    89   119   149    60    90
    120   150    63    61    62    93    91    92   123   121
    122   153   151   152    66    64    65    96    94    95
    126   124   125   156   154   155    69    67    68    99
     97    98   129   127   128   159   157   158    75    70
     73   105   100   103   135   130   133   165   160   163
     72    74    71   102   104   101   132   134   131   162
    164   161    80   110   140   170    85    76    82   115
    106   112   145   136   142   175   166   172    81    84
     78    83    77    79   111   114   108   113   107   109
    141   144   138   143   137   139   171   174   168   173
    167   169   176   206   236   266   177   207   237   267
    178   208   238   268   179   209   239   269   180   210
    240   270   183   181   182   213   211   212   243   241
    242   273   271   272   186   184   185   216   214   215
    246   244   245   276   274   275   189   187   188   219
    217   218   249   247   248   279   277   278   195   190
    193   225   220   223   255   250   253   285   280   283
    192   194   191   222   224   221   252   254   251   282
    284   281   200   230   260   290   205   196   202   235
    226   232   265   256   262   295   286   292   201   204
    198   203   197   199   231   234   228   233   227   229
    261   264   258   263   257   259   291   294   288   293
    287   289

    SFO  (index         Fragment          Generating    Expansion in Fragment Orbitals
  indx  incl.CFs)   Occup   Orb.Energy   FragmentType  Coeff.   Orbital     on Fragment
 --------------------------------------------------------------------------------------
     1       1      2.000     -30.488 au  1             1.00      1 P:x             1
                        (    -829.631 eV)
     2       2      2.000      -2.200 au  1             1.00      2 P:x             1
                        (     -59.866 eV)
     3       3       --         0.081 au  1             1.00      3 P:x             1
                        (       2.203 eV)
     4       4       --         1.589 au  1             1.00      4 P:x             1
                        (      43.227 eV)
     5       5       --         9.873 au  1             1.00      5 P:x             1
                        (     268.669 eV)
     6       6       --        75.848 au  1             1.00      6 P:x             1
                        (    2063.933 eV)
     7       7      2.000       0.010 au  1             1.00      1 D:yz            1
                        (       0.265 eV)
     8       8       --         0.747 au  1             1.00      2 D:yz            1
                        (      20.321 eV)
     9       9       --         5.934 au  1             1.00      3 D:yz            1
                        (     161.481 eV)
    10      10       --         1.684 au  1             0.61      1 F:z2x           1
                        (      45.811 eV)              -0.79      1 F:x             1
    11      11      2.000     -18.880 au  2             1.00      1 T2:1            2
                        (    -513.751 eV)
    12      12      2.000     -10.027 au  2             1.00      2 T2:1            2
                        (    -272.848 eV)
    13      13      2.000      -1.055 au  2             1.00      3 T2:1            2
                        (     -28.701 eV)
    14      14      2.000      -0.509 au  2             1.00      4 T2:1            2
                        (     -13.847 eV)
    15      15      2.000      -0.421 au  2             1.00      5 T2:1            2
                        (     -11.461 eV)
    16      16      2.000      -0.307 au  2             1.00      6 T2:1            2
                        (      -8.366 eV)
    17      17       --        -0.085 au  2             1.00      7 T2:1            2
                        (      -2.326 eV)
    18      18       --         0.089 au  2             1.00      8 T2:1            2
                        (       2.411 eV)
    19      19       --         0.175 au  2             1.00      9 T2:1            2
                        (       4.762 eV)
    20      20       --         0.384 au  2             1.00     10 T2:1            2
                        (      10.437 eV)
    21      21       --         0.472 au  2             1.00     11 T2:1            2
                        (      12.854 eV)
    22      22       --         0.548 au  2             1.00     12 T2:1            2
                        (      14.921 eV)
    23      23       --         0.738 au  2             1.00     13 T2:1            2
                        (      20.089 eV)
    24      24       --         0.916 au  2             1.00     14 T2:1            2
                        (      24.918 eV)
    25      25       --         1.176 au  2             1.00     15 T2:1            2
                        (      31.987 eV)
    26      26       --         1.375 au  2             1.00     16 T2:1            2
                        (      37.427 eV)
    27      27       --         1.508 au  2             1.00     17 T2:1            2
                        (      41.038 eV)
    28      28       --         1.901 au  2             1.00     18 T2:1            2
                        (      51.736 eV)
    29      29       --         1.955 au  2             1.00     19 T2:1            2
                        (      53.185 eV)
    30      30       --         2.203 au  2             1.00     20 T2:1            2
                        (      59.959 eV)
    31      31       --         2.443 au  2             1.00     21 T2:1            2
                        (      66.489 eV)
    32      32       --         2.950 au  2             1.00     22 T2:1            2
                        (      80.263 eV)
    33      33       --         3.245 au  2             1.00     23 T2:1            2
                        (      88.295 eV)
    34      34       --         3.277 au  2             1.00     24 T2:1            2
                        (      89.185 eV)
    35      35       --         3.911 au  2             1.00     25 T2:1            2
                        (     106.417 eV)
    36      36       --         4.008 au  2             1.00     26 T2:1            2
                        (     109.063 eV)
    37      37       --         4.199 au  2             1.00     27 T2:1            2
                        (     114.255 eV)
    38      38       --         4.366 au  2             1.00     28 T2:1            2
                        (     118.807 eV)
    39      39       --         5.172 au  2             1.00     29 T2:1            2
                        (     140.745 eV)
    40      40       --         5.195 au  2             1.00     30 T2:1            2
                        (     141.372 eV)
    41      41       --         6.221 au  2             1.00     31 T2:1            2
                        (     169.284 eV)
    42      42       --         6.954 au  2             1.00     32 T2:1            2
                        (     189.217 eV)
    43      43       --         9.862 au  2             1.00     33 T2:1            2
                        (     268.361 eV)
    44      44       --        15.390 au  2             1.00     34 T2:1            2
                        (     418.783 eV)
    45      45       --        54.041 au  2             1.00     35 T2:1            2
                        (    1470.522 eV)
    46      46       --       128.712 au  2             1.00     36 T2:1            2
                        (    3502.434 eV)



                                       === T2:2 ===
 Nr. of SFOs :   46
 Cartesian basis functions that participate in this irrep (total number =   252) :
      6     9    14    17    20    44    24    30    36    52
     54    47    56    86   116   146    57    87   117   147
     58    88   118   148    59    89   119   149    60    90
    120   150    63    61    62    93    91    92   123   121
    122   153   151   152    66    64    65    96    94    95
    126   124   125   156   154   155    69    67    68    99
     97    98   129   127   128   159   157   158    75    70
     73   105   100   103   135   130   133   165   160   163
     72    74    71   102   104   101   132   134   131   162
    164   161    80   110   140   170    85    76    82   115
    106   112   145   136   142   175   166   172    81    84
     78    83    77    79   111   114   108   113   107   109
    141   144   138   143   137   139   171   174   168   173
    167   169   176   206   236   266   177   207   237   267
    178   208   238   268   179   209   239   269   180   210
    240   270   183   181   182   213   211   212   243   241
    242   273   271   272   186   184   185   216   214   215
    246   244   245   276   274   275   189   187   188   219
    217   218   249   247   248   279   277   278   195   190
    193   225   220   223   255   250   253   285   280   283
    192   194   191   222   224   221   252   254   251   282
    284   281   200   230   260   290   205   196   202   235
    226   232   265   256   262   295   286   292   201   204
    198   203   197   199   231   234   228   233   227   229
    261   264   258   263   257   259   291   294   288   293
    287   289

    SFO  (index         Fragment          Generating    Expansion in Fragment Orbitals
  indx  incl.CFs)   Occup   Orb.Energy   FragmentType  Coeff.   Orbital     on Fragment
 --------------------------------------------------------------------------------------
     1       1      2.000     -30.488 au  1             1.00      1 P:y             1
                        (    -829.631 eV)
     2       2      2.000      -2.200 au  1             1.00      2 P:y             1
                        (     -59.866 eV)
     3       3       --         0.081 au  1             1.00      3 P:y             1
                        (       2.203 eV)
     4       4       --         1.589 au  1             1.00      4 P:y             1
                        (      43.227 eV)
     5       5       --         9.873 au  1             1.00      5 P:y             1
                        (     268.669 eV)
     6       6       --        75.848 au  1             1.00      6 P:y             1
                        (    2063.933 eV)
     7       7      2.000       0.010 au  1             1.00      1 D:xz            1
                        (       0.265 eV)
     8       8       --         0.747 au  1             1.00      2 D:xz            1
                        (      20.321 eV)
     9       9       --         5.934 au  1             1.00      3 D:xz            1
                        (     161.481 eV)
    10      10       --         1.684 au  1             0.61      1 F:z2y           1
                        (      45.811 eV)               0.79      1 F:y             1
    11      11      2.000     -18.880 au  2             1.00      1 T2:2            2
                        (    -513.751 eV)
    12      12      2.000     -10.027 au  2             1.00      2 T2:2            2
                        (    -272.848 eV)
    13      13      2.000      -1.055 au  2             1.00      3 T2:2            2
                        (     -28.701 eV)
    14      14      2.000      -0.509 au  2             1.00      4 T2:2            2
                        (     -13.847 eV)
    15      15      2.000      -0.421 au  2             1.00      5 T2:2            2
                        (     -11.461 eV)
    16      16      2.000      -0.307 au  2             1.00      6 T2:2            2
                        (      -8.366 eV)
    17      17       --        -0.085 au  2             1.00      7 T2:2            2
                        (      -2.326 eV)
    18      18       --         0.089 au  2             1.00      8 T2:2            2
                        (       2.411 eV)
    19      19       --         0.175 au  2             1.00      9 T2:2            2
                        (       4.762 eV)
    20      20       --         0.384 au  2             1.00     10 T2:2            2
                        (      10.437 eV)
    21      21       --         0.472 au  2             1.00     11 T2:2            2
                        (      12.854 eV)
    22      22       --         0.548 au  2             1.00     12 T2:2            2
                        (      14.921 eV)
    23      23       --         0.738 au  2             1.00     13 T2:2            2
                        (      20.089 eV)
    24      24       --         0.916 au  2             1.00     14 T2:2            2
                        (      24.918 eV)
    25      25       --         1.176 au  2             1.00     15 T2:2            2
                        (      31.987 eV)
    26      26       --         1.375 au  2             1.00     16 T2:2            2
                        (      37.427 eV)
    27      27       --         1.508 au  2             1.00     17 T2:2            2
                        (      41.038 eV)
    28      28       --         1.901 au  2             1.00     18 T2:2            2
                        (      51.736 eV)
    29      29       --         1.955 au  2             1.00     19 T2:2            2
                        (      53.185 eV)
    30      30       --         2.203 au  2             1.00     20 T2:2            2
                        (      59.959 eV)
    31      31       --         2.443 au  2             1.00     21 T2:2            2
                        (      66.489 eV)
    32      32       --         2.950 au  2             1.00     22 T2:2            2
                        (      80.263 eV)
    33      33       --         3.245 au  2             1.00     23 T2:2            2
                        (      88.295 eV)
    34      34       --         3.277 au  2             1.00     24 T2:2            2
                        (      89.185 eV)
    35      35       --         3.911 au  2             1.00     25 T2:2            2
                        (     106.417 eV)
    36      36       --         4.008 au  2             1.00     26 T2:2            2
                        (     109.063 eV)
    37      37       --         4.199 au  2             1.00     27 T2:2            2
                        (     114.255 eV)
    38      38       --         4.366 au  2             1.00     28 T2:2            2
                        (     118.807 eV)
    39      39       --         5.172 au  2             1.00     29 T2:2            2
                        (     140.745 eV)
    40      40       --         5.195 au  2             1.00     30 T2:2            2
                        (     141.372 eV)
    41      41       --         6.221 au  2             1.00     31 T2:2            2
                        (     169.284 eV)
    42      42       --         6.954 au  2             1.00     32 T2:2            2
                        (     189.217 eV)
    43      43       --         9.862 au  2             1.00     33 T2:2            2
                        (     268.361 eV)
    44      44       --        15.390 au  2             1.00     34 T2:2            2
                        (     418.783 eV)
    45      45       --        54.041 au  2             1.00     35 T2:2            2
                        (    1470.522 eV)
    46      46       --       128.712 au  2             1.00     36 T2:2            2
                        (    3502.434 eV)



                                       === T2:3 ===
 Nr. of SFOs :   46
 Cartesian basis functions that participate in this irrep (total number =   252) :
      7    10    15    18    21    45    23    29    35    55
     48    53    56    86   116   146    57    87   117   147
     58    88   118   148    59    89   119   149    60    90
    120   150    63    61    62    93    91    92   123   121
    122   153   151   152    66    64    65    96    94    95
    126   124   125   156   154   155    69    67    68    99
     97    98   129   127   128   159   157   158    75    70
     73   105   100   103   135   130   133   165   160   163
     72    74    71   102   104   101   132   134   131   162
    164   161    80   110   140   170    85    76    82   115
    106   112   145   136   142   175   166   172    81    84
     78    83    77    79   111   114   108   113   107   109
    141   144   138   143   137   139   171   174   168   173
    167   169   176   206   236   266   177   207   237   267
    178   208   238   268   179   209   239   269   180   210
    240   270   183   181   182   213   211   212   243   241
    242   273   271   272   186   184   185   216   214   215
    246   244   245   276   274   275   189   187   188   219
    217   218   249   247   248   279   277   278   195   190
    193   225   220   223   255   250   253   285   280   283
    192   194   191   222   224   221   252   254   251   282
    284   281   200   230   260   290   205   196   202   235
    226   232   265   256   262   295   286   292   201   204
    198   203   197   199   231   234   228   233   227   229
    261   264   258   263   257   259   291   294   288   293
    287   289

    SFO  (index         Fragment          Generating    Expansion in Fragment Orbitals
  indx  incl.CFs)   Occup   Orb.Energy   FragmentType  Coeff.   Orbital     on Fragment
 --------------------------------------------------------------------------------------
     1       1      2.000     -30.488 au  1             1.00      1 P:z             1
                        (    -829.631 eV)
     2       2      2.000      -2.200 au  1             1.00      2 P:z             1
                        (     -59.866 eV)
     3       3       --         0.081 au  1             1.00      3 P:z             1
                        (       2.203 eV)
     4       4       --         1.589 au  1             1.00      4 P:z             1
                        (      43.227 eV)
     5       5       --         9.873 au  1             1.00      5 P:z             1
                        (     268.669 eV)
     6       6       --        75.848 au  1             1.00      6 P:z             1
                        (    2063.933 eV)
     7       7      2.000       0.010 au  1             1.00      1 D:xy            1
                        (       0.265 eV)
     8       8       --         0.747 au  1             1.00      2 D:xy            1
                        (      20.321 eV)
     9       9       --         5.934 au  1             1.00      3 D:xy            1
                        (     161.481 eV)
    10      10       --         1.684 au  1            -1.00      1 F:z3            1
                        (      45.811 eV)
    11      11      2.000     -18.880 au  2             1.00      1 T2:3            2
                        (    -513.751 eV)
    12      12      2.000     -10.027 au  2             1.00      2 T2:3            2
                        (    -272.848 eV)
    13      13      2.000      -1.055 au  2             1.00      3 T2:3            2
                        (     -28.701 eV)
    14      14      2.000      -0.509 au  2             1.00      4 T2:3            2
                        (     -13.847 eV)
    15      15      2.000      -0.421 au  2             1.00      5 T2:3            2
                        (     -11.461 eV)
    16      16      2.000      -0.307 au  2             1.00      6 T2:3            2
                        (      -8.366 eV)
    17      17       --        -0.085 au  2             1.00      7 T2:3            2
                        (      -2.326 eV)
    18      18       --         0.089 au  2             1.00      8 T2:3            2
                        (       2.411 eV)
    19      19       --         0.175 au  2             1.00      9 T2:3            2
                        (       4.762 eV)
    20      20       --         0.384 au  2             1.00     10 T2:3            2
                        (      10.437 eV)
    21      21       --         0.472 au  2             1.00     11 T2:3            2
                        (      12.854 eV)
    22      22       --         0.548 au  2             1.00     12 T2:3            2
                        (      14.921 eV)
    23      23       --         0.738 au  2             1.00     13 T2:3            2
                        (      20.089 eV)
    24      24       --         0.916 au  2             1.00     14 T2:3            2
                        (      24.918 eV)
    25      25       --         1.176 au  2             1.00     15 T2:3            2
                        (      31.987 eV)
    26      26       --         1.375 au  2             1.00     16 T2:3            2
                        (      37.427 eV)
    27      27       --         1.508 au  2             1.00     17 T2:3            2
                        (      41.038 eV)
    28      28       --         1.901 au  2             1.00     18 T2:3            2
                        (      51.736 eV)
    29      29       --         1.955 au  2             1.00     19 T2:3            2
                        (      53.185 eV)
    30      30       --         2.203 au  2             1.00     20 T2:3            2
                        (      59.959 eV)
    31      31       --         2.443 au  2             1.00     21 T2:3            2
                        (      66.489 eV)
    32      32       --         2.950 au  2             1.00     22 T2:3            2
                        (      80.263 eV)
    33      33       --         3.245 au  2             1.00     23 T2:3            2
                        (      88.295 eV)
    34      34       --         3.277 au  2             1.00     24 T2:3            2
                        (      89.185 eV)
    35      35       --         3.911 au  2             1.00     25 T2:3            2
                        (     106.417 eV)
    36      36       --         4.008 au  2             1.00     26 T2:3            2
                        (     109.063 eV)
    37      37       --         4.199 au  2             1.00     27 T2:3            2
                        (     114.255 eV)
    38      38       --         4.366 au  2             1.00     28 T2:3            2
                        (     118.807 eV)
    39      39       --         5.172 au  2             1.00     29 T2:3            2
                        (     140.745 eV)
    40      40       --         5.195 au  2             1.00     30 T2:3            2
                        (     141.372 eV)
    41      41       --         6.221 au  2             1.00     31 T2:3            2
                        (     169.284 eV)
    42      42       --         6.954 au  2             1.00     32 T2:3            2
                        (     189.217 eV)
    43      43       --         9.862 au  2             1.00     33 T2:3            2
                        (     268.361 eV)
    44      44       --        15.390 au  2             1.00     34 T2:3            2
                        (     418.783 eV)
    45      45       --        54.041 au  2             1.00     35 T2:3            2
                        (    1470.522 eV)
    46      46       --       128.712 au  2             1.00     36 T2:3            2
                        (    3502.434 eV)



 ================================
 (Slater-type)  F U N C T I O N S  ***  (Basis and Fit)  ***
 ================================
  

 Atom Type    1  (Ni)
 ==============

 Valence Basis Sets:  19
 -----------------------
   1 S   33.000000
   1 S   25.900000
   2 S   10.950000
   2 S    7.150000
   2 P   15.450000
   2 P   10.000000
   3 S    6.600000
   3 S    4.000000
   3 P    6.800000
   3 P    4.500000
   3 P    3.050000
   3 D    7.000000
   3 D    3.350000
   3 D    1.540000
   4 S    2.450000
   4 S    1.480000
   4 S    0.940000
   4 P    1.470000
   4 F    2.300000

 Atom Type    2  (C)
 ==============

 Valence Basis Sets:  10
 -----------------------
   1 S    7.680000
   1 S    5.000000
   2 S    1.280000
   2 S    2.100000
   2 S    4.600000
   2 P    0.820000
   2 P    1.480000
   2 P    2.940000
   3 D    2.200000
   4 F    3.300000

 Atom Type    3  (O)
 ==============

 Valence Basis Sets:  10
 -----------------------
   1 S    9.800000
   1 S    6.800000
   2 S    7.580000
   2 S    2.880000
   2 S    1.720000
   2 P    4.080000
   2 P    2.080000
   2 P    1.120000
   3 D    2.000000
   4 F    3.000000


 BAS: List of all Elementary Cartesian Basis Functions
 =====================================================

 The numbering in the list below (to the right of the function characteristics) is referred
 to in print-outs of MO eigenvectors and Mulliken populations in the BAS representation
 (as contrasted to the SFO representation).

 Notes:
 1. The functions are characterized by a polynomial prefactor (powers of x,y,z and r) and
    an exponential decay factor alpha.
 2. Since the basis sets are specific for an atom TYPE, the individual functions occur on
    all atoms of that type.
 3. The word 'Core' in the left margin signals that it is a Core Function (CF) : not a
    degree of freedom in the valence set, but only used to ensure orthogonalization of
    the other valence basis functions on the frozen Core Orbitals.


 (power of) X  Y  Z  R     Alpha  on Atom
            ==========     =====     ==========

 Ni                                   1
                                  ---------------------------------------------------------------------------
            0  0  0  0    33.000      1
            0  0  0  0    25.900      2
            0  0  0  1    10.950      3
            0  0  0  1     7.150      4
            1  0  0  0    15.450      5
            0  1  0  0    15.450      6
            0  0  1  0    15.450      7
            1  0  0  0    10.000      8
            0  1  0  0    10.000      9
            0  0  1  0    10.000     10
            0  0  0  2     6.600     11
            0  0  0  2     4.000     12
            1  0  0  1     6.800     13
            0  1  0  1     6.800     14
            0  0  1  1     6.800     15
            1  0  0  1     4.500     16
            0  1  0  1     4.500     17
            0  0  1  1     4.500     18
            1  0  0  1     3.050     19
            0  1  0  1     3.050     20
            0  0  1  1     3.050     21
            2  0  0  0     7.000     22
            1  1  0  0     7.000     23
            1  0  1  0     7.000     24
            0  2  0  0     7.000     25
            0  1  1  0     7.000     26
            0  0  2  0     7.000     27
            2  0  0  0     3.350     28
            1  1  0  0     3.350     29
            1  0  1  0     3.350     30
            0  2  0  0     3.350     31
            0  1  1  0     3.350     32
            0  0  2  0     3.350     33
            2  0  0  0     1.540     34
            1  1  0  0     1.540     35
            1  0  1  0     1.540     36
            0  2  0  0     1.540     37
            0  1  1  0     1.540     38
            0  0  2  0     1.540     39
            0  0  0  3     2.450     40
            0  0  0  3     1.480     41
            0  0  0  3     0.940     42
            1  0  0  2     1.470     43
            0  1  0  2     1.470     44
            0  0  1  2     1.470     45
            3  0  0  0     2.300     46
            2  1  0  0     2.300     47
            2  0  1  0     2.300     48
            1  2  0  0     2.300     49
            1  1  1  0     2.300     50
            1  0  2  0     2.300     51
            0  3  0  0     2.300     52
            0  2  1  0     2.300     53
            0  1  2  0     2.300     54
            0  0  3  0     2.300     55

 C                                    2    3    4    5
                                  ---------------------------------------------------------------------------
            0  0  0  0     7.680     56   86  116  146
            0  0  0  0     5.000     57   87  117  147
            0  0  0  1     1.280     58   88  118  148
            0  0  0  1     2.100     59   89  119  149
            0  0  0  1     4.600     60   90  120  150
            1  0  0  0     0.820     61   91  121  151
            0  1  0  0     0.820     62   92  122  152
            0  0  1  0     0.820     63   93  123  153
            1  0  0  0     1.480     64   94  124  154
            0  1  0  0     1.480     65   95  125  155
            0  0  1  0     1.480     66   96  126  156
            1  0  0  0     2.940     67   97  127  157
            0  1  0  0     2.940     68   98  128  158
            0  0  1  0     2.940     69   99  129  159
            2  0  0  0     2.200     70  100  130  160
            1  1  0  0     2.200     71  101  131  161
            1  0  1  0     2.200     72  102  132  162
            0  2  0  0     2.200     73  103  133  163
            0  1  1  0     2.200     74  104  134  164
            0  0  2  0     2.200     75  105  135  165
            3  0  0  0     3.300     76  106  136  166
            2  1  0  0     3.300     77  107  137  167
            2  0  1  0     3.300     78  108  138  168
            1  2  0  0     3.300     79  109  139  169
            1  1  1  0     3.300     80  110  140  170
            1  0  2  0     3.300     81  111  141  171
            0  3  0  0     3.300     82  112  142  172
            0  2  1  0     3.300     83  113  143  173
            0  1  2  0     3.300     84  114  144  174
            0  0  3  0     3.300     85  115  145  175

 O                                    6    7    8    9
                                  ---------------------------------------------------------------------------
            0  0  0  0     9.800    176  206  236  266
            0  0  0  0     6.800    177  207  237  267
            0  0  0  1     7.580    178  208  238  268
            0  0  0  1     2.880    179  209  239  269
            0  0  0  1     1.720    180  210  240  270
            1  0  0  0     4.080    181  211  241  271
            0  1  0  0     4.080    182  212  242  272
            0  0  1  0     4.080    183  213  243  273
            1  0  0  0     2.080    184  214  244  274
            0  1  0  0     2.080    185  215  245  275
            0  0  1  0     2.080    186  216  246  276
            1  0  0  0     1.120    187  217  247  277
            0  1  0  0     1.120    188  218  248  278
            0  0  1  0     1.120    189  219  249  279
            2  0  0  0     2.000    190  220  250  280
            1  1  0  0     2.000    191  221  251  281
            1  0  1  0     2.000    192  222  252  282
            0  2  0  0     2.000    193  223  253  283
            0  1  1  0     2.000    194  224  254  284
            0  0  2  0     2.000    195  225  255  285
            3  0  0  0     3.000    196  226  256  286
            2  1  0  0     3.000    197  227  257  287
            2  0  1  0     3.000    198  228  258  288
            1  2  0  0     3.000    199  229  259  289
            1  1  1  0     3.000    200  230  260  290
            1  0  2  0     3.000    201  231  261  291
            0  3  0  0     3.000    202  232  262  292
            0  2  1  0     3.000    203  233  263  293
            0  1  2  0     3.000    204  234  264  294
            0  0  3  0     3.000    205  235  265  295

 Total number of charge fitting functions (nprimf)       842
 Total number of Cartesian basis functions (naos)        295
 Total number of Cartesian core functions  (ncos)          0

1
 ***************************************************************************************************



                                              ***********************
                                              *  T E C H N I C A L  *
                                              ***********************
  



 =============================================================
 P A R A L L E L I Z A T I O N  and  V E C T O R I Z A T I O N
 =============================================================
  
 Nr of parallel processes:                               12
 Maximum vector length in NumInt loops:                 128

 IO buffersize (Mb):                                     64.000000



 =====================
 S C F   U P D A T E S
 =====================
  
 Max. nr. of cycles:                               250
 Convergence criterion:                              0.0000010000
   secondary criterion:                              0.0010000000

 Mix parameter (when DIIS does not apply):           0.2000000000
 Mixed ADIIS+DIIS will be used
    Max number of expansion vectors:                10
    Pure ADIIS when Max([F,P]) is above              0.1000000000
    Pure DIIS when Max([F,P]) is below               0.0010000000
 Automatic ElectronSmearing (in case of problematic SCF convergence) disabled



 =================
 P R E C I S I O N  ***  (General: NumInt, NeglectFunctionTails, ...)  ***
 =================
  

 NumInt:           Target precision:                 6.0000000000
 -------           Initial precision:                6.0000000000
                   Min. precision (optimization):    6.0000000000

 Neglect Functions:          Basis functions:        0.1000000000E-07
 ------------------          Fit functions:          0.1000000000E-07



 ===========================
 L I N E A R   S C A L I N G
 ===========================
  

 Cut-off radii density fit:                        0.1000000000E-09
 Overlap cut-off criterion AO matrix elements:     0.1000000000E-07
 Cut-offs for Coulomb potential and fitted density:0.1000000000E-09
 Cut-off criterion for Coulomb multipole terms:    0.1000000000E-09
 Progressive Convergence parameter:                 0.000000000    
1
 ***************************************************************************************************



                                            ***************************
                                            *  C O M P U T A T I O N  *
                                            ***************************
  

 Number of elements of the density matrix on this node (used, total):      1540     43660



 ===========================================
 Numerical Integration : Fuzzy Cells (Becke)
 ===========================================
  
 Becke grid quality: GOOD           
  
 Lebedev angular grid order:             min:  11 max:  35
 Nr. of radial points:                   min:  58 max:  87

 Total nr. of points:       7242
 Nr. of blocks:               57
 Block length:               128
 Nr. of dummy points:         54


 Test of Precision of the Numerical Integration Grid
 ===================================================

 Integral of the Total Core Density:                   0.00000000000000



 ========================
 Density Fitting (zlmFit)
 ========================
  
 ZlmFit Fit Quality: NORMAL         
  
 Max L-expansion:                        min:   7 max:   8
 Nr. of radial interpolation points:     min:  48 max:  72



 =====
 S C F  ***  ScaSCF  ***
 =====
  
 Initial density matrix is calculated as sum of fragments

 CYCLE    1
 SCF Error: norm([F,P])=      4.284024654387, max([F,P])=      2.734380925645
 orbitals (Q,E):
 ---------------
 A1 :1...18          ( 2.00  -298.1393)  ( 2.00   -34.9148)  ( 2.00   -18.8807)  ( 2.00   -10.0333)
                     ( 2.00    -3.5196)  ( 2.00    -1.0562)  ( 2.00    -0.5218)  ( 2.00    -0.4072)
                     ( 0.00     0.0090)  ( 0.00     0.1799)  ( 0.00     0.2981)  ( 0.00     0.4450)
                     ( 0.00     0.5630)  ( 0.00     0.8575)  ( 0.00     1.2767)  ( 0.00     1.6386)
                     ( 0.00     2.1404)  ( 0.00     2.3007)
 A2 :1...2           ( 0.00     3.2440)  ( 0.00     4.1962)
 E :1...12           ( 4.00    -0.4242)  ( 4.00    -0.1203)  ( 0.00     0.0809)  ( 0.00     0.1708)
                     ( 0.00     0.5316)  ( 0.00     0.8583)  ( 0.00     0.9256)  ( 0.00     1.4189)
                     ( 0.00     1.5375)  ( 0.00     2.3289)  ( 0.00     2.4702)  ( 0.00     3.3017)
 T1 :1...11          ( 6.00    -0.4193)  ( 0.00    -0.0515)  ( 0.00     0.2679)  ( 0.00     0.6707)
                     ( 0.00     0.9234)  ( 0.00     1.1110)  ( 0.00     1.5211)  ( 0.00     1.8390)
                     ( 0.00     2.4183)  ( 0.00     2.6433)  ( 0.00     3.2447)
 T2 :1...19          ( 6.00   -30.4387)  ( 6.00   -18.8807)  ( 6.00   -10.0333)  ( 6.00    -2.1628)
                     ( 6.00    -1.0560)  ( 6.00    -0.5127)  ( 6.00    -0.4243)  ( 6.00    -0.3487)
                     ( 6.00    -0.1188)  ( 0.00     0.0652)  ( 0.00     0.1015)  ( 0.00     0.1482)
                     ( 0.00     0.3751)  ( 0.00     0.3871)  ( 0.00     0.5072)  ( 0.00     0.5903)
                     ( 0.00     0.8127)  ( 0.00     0.9497)  ( 0.00     1.1887)

 CYCLE    2
  SDIIS (wt  0.000):  0.8198  0.1802
 A-DIIS (wt  1.000):  0.9800  0.0200
  DIIS coefficients:  0.9800  0.0200
 SCF Error: norm([F,P])=      9.714355261262, max([F,P])=      2.986925574142
 orbitals (Q,E):
 ---------------
 A1 :1...9           ( 2.00  -298.3073)  ( 2.00   -35.0780)  ( 2.00   -18.8708)  ( 2.00   -10.0342)
                     ( 2.00    -3.6383)  ( 2.00    -1.0521)  ( 2.00    -0.5227)  ( 2.00    -0.4192)
                     ( 0.00     0.0059)
 A2 :1...1           ( 0.00     3.2468)
 E :1...3            ( 4.00    -0.4220)  ( 4.00    -0.1441)  ( 0.00     0.0053)
 T1 :1...2           ( 6.00    -0.4164)  ( 0.00    -0.0541)
 T2 :1...10          ( 6.00   -30.6032)  ( 6.00   -18.8708)  ( 6.00   -10.0342)  ( 6.00    -2.2784)
                     ( 6.00    -1.0518)  ( 6.00    -0.5102)  ( 6.00    -0.4220)  ( 6.00    -0.3639)
                     ( 6.00    -0.1367)  ( 0.00     0.0058)

 CYCLE    3
  SDIIS (wt  0.000):  0.8040 -0.1130  0.3090
 A-DIIS (wt  1.000):  0.9718  0.0000  0.0282
  DIIS coefficients:  0.9718  0.0000  0.0282
 SCF Error: norm([F,P])=      9.285624183426, max([F,P])=      3.045275543666
 orbitals (Q,E):
 ---------------
 A1 :1...9           ( 2.00  -298.3260)  ( 2.00   -35.0967)  ( 2.00   -18.8706)  ( 2.00   -10.0348)
                     ( 2.00    -3.6520)  ( 2.00    -1.0521)  ( 2.00    -0.5231)  ( 2.00    -0.4204)
                     ( 0.00     0.0056)
 A2 :1...1           ( 0.00     3.2468)
 E :1...3            ( 4.00    -0.4221)  ( 4.00    -0.1480)  ( 0.00    -0.0023)
 T1 :1...2           ( 6.00    -0.4164)  ( 0.00    -0.0545)
 T2 :1...10          ( 6.00   -30.6220)  ( 6.00   -18.8706)  ( 6.00   -10.0348)  ( 6.00    -2.2916)
                     ( 6.00    -1.0519)  ( 6.00    -0.5104)  ( 6.00    -0.4222)  ( 6.00    -0.3656)
                     ( 6.00    -0.1396)  ( 0.00    -0.0018)

 CYCLE    4
  SDIIS (wt  0.000): -0.0953 -1.9047  3.0000
 A-DIIS (wt  1.000):  0.0000  0.0000  1.0000
  DIIS coefficients:  0.0000  0.0000  1.0000
 SCF Error: norm([F,P])=      9.027411492393, max([F,P])=      2.948380963599
 orbitals (Q,E):
 ---------------
 A1 :1...9           ( 2.00  -304.4551)  ( 2.00   -41.0707)  ( 2.00   -18.5423)  ( 2.00   -10.0869)
                     ( 2.00    -8.1298)  ( 2.00    -1.8014)  ( 2.00    -0.9326)  ( 2.00    -0.6323)
                     ( 0.00    -0.3262)
 A2 :1...1           ( 0.00     3.3259)
 E :1...3            ( 4.00    -4.3830)  ( 4.00    -0.7416)  ( 0.00    -0.3326)
 T1 :1...2           ( 6.00    -0.4546)  ( 0.00    -0.1575)
 T2 :1...10          ( 6.00   -36.6440)  ( 6.00   -18.5423)  ( 6.00   -10.0869)  ( 6.00    -6.7206)
                     ( 6.00    -4.3865)  ( 6.00    -1.4006)  ( 6.00    -0.9356)  ( 6.00    -0.8400)
                     ( 6.00    -0.4357)  ( 0.00    -0.3561)

 CYCLE    5
  SDIIS (wt  0.000): -0.0996 -2.0000  3.0000  0.0996
 A-DIIS (wt  1.000):  0.0000  0.0000  0.8445  0.1555
  DIIS coefficients:  0.0000  0.0000  0.8445  0.1555
 SCF Error: norm([F,P])=     29.632934820689, max([F,P])=      7.205116401152
 orbitals (Q,E):
 ---------------
 A1 :1...9           ( 2.00  -300.8438)  ( 2.00   -37.7269)  ( 2.00   -19.0907)  ( 2.00    -9.8512)
                     ( 2.00    -5.7020)  ( 2.00    -1.1111)  ( 2.00    -0.6864)  ( 2.00    -0.5792)
                     ( 0.00    -0.0541)
 A2 :1...1           ( 0.00     3.2031)
 E :1...3            ( 4.00    -1.9433)  ( 4.00    -0.4787)  ( 0.00    -0.1082)
 T1 :1...2           ( 6.00    -0.4767)  ( 0.00    -0.0312)
 T2 :1...10          ( 6.00   -33.2475)  ( 6.00   -19.0907)  ( 6.00    -9.8512)  ( 6.00    -4.3006)
[...]
     13:    0.00  -0.00  -0.00  -0.00  99.42   0.02   0.00   0.01  -0.00   0.00   0.00   0.02   0.11
     14:    0.00  -0.00  -0.00  -0.00   0.00  92.82   0.17   6.23   0.02   0.05  -0.04  -0.05   0.60
     15:    0.00   0.00   0.00  -0.00  -0.00   0.03  97.47   0.56   1.21   0.06  -0.01   0.05   0.68
     16:    0.00   0.00   0.00   0.02  -0.01   2.85   0.52  64.83  16.20   2.23  -0.48  -0.58  11.93
     17:    0.00  -0.00  -0.00  -0.01   0.00   0.04   0.11   0.77  11.71  80.69   0.09   0.01   5.50
     18:   -0.00  -0.00  -0.00   0.02   0.00   0.04   0.01   0.23  -0.06   0.35  98.54   0.16  -0.46
     19:    0.00   0.00   0.00  -0.01   0.00  -0.00  -0.00   0.00  -0.17   0.00   0.09 116.95  -6.13
     20:   -0.00   0.00   0.00   0.01   0.00   0.01   0.00   0.07   0.03   0.03   0.02   0.03   3.71
     21:    0.00  -0.00  -0.00  -0.01  -0.00   0.00  -0.00   0.01  -0.10   0.00   0.06  -0.54   1.75
     22:   -0.00   0.00   0.00   0.01   0.00   0.03   0.00   0.37   0.22   0.15  -0.00   0.39   8.26
     23:    0.00  -0.00  -0.00  -0.02  -0.00  -0.00  -0.00  -0.02   0.00  -0.02   0.10  -1.15  -9.70
     25:    0.00  -0.00  -0.00  -0.00   0.00  -0.00   0.00  -0.01   0.14  -0.02  -0.02   0.33   2.51


 Summation over all MOs, multiplied by occupation: Total SFO Gross Populations in this Irrep
 ===========================================================================================

     2.00    2.00    0.38   -0.00   -0.00   -0.00    1.69    0.01   -0.00    0.00    2.00    2.00
     1.99    1.98    1.99    1.69    0.25    0.00   -0.00    0.00   -0.00    0.01   -0.00    0.00
     0.00   -0.00    0.00    0.00   -0.00   -0.00    0.00    0.00    0.00    0.00    0.00    0.00
    -0.00   -0.00    0.00    0.00    0.00    0.00   -0.00   -0.00   -0.00   -0.00



 List of all MOs, ordered by energy, with the most significant SFO gross populations
 ===================================================================================

 Each percentage contribution in the table below corresponds to the indicated SFO.
 In general, a SFO may be a linear combination of several Fragment Orbitals on the same,
 or on symmetry-related Fragments. Only the first 'member' of such a combination is
 specified here. A full definition of all SFOs is given in an earlier part of the output.
 The numbering of the SFOs in this table does NOT include the Core Orbitals, and starts
 from one for each symmetry representation, as in the SFO definition list earlier.

       E(eV)  Occ       MO           %     SFO (first member)   E(eV)  Occ   Fragment
 -------------------------------------------------------------------------------------

     -14.648  2.00     7 A1        81.54%     4 A1            -14.002  2.00     2 2
                                   11.43%     5 A1            -10.196  2.00     2 2
                                    5.40%     4 S              -2.647  0.00     1 1
                                    1.89%     5 S               3.004  0.00     1 1
     -14.089  2.00     6 T2:1      92.82%     4 T2:1          -13.847  2.00     2 2
                                    2.85%     6 T2:1           -8.366  2.00     2 2
                                    2.50%     1 D:yz            0.265  2.00     1 1
                                    1.79%     3 P:x             2.203  0.00     1 1
     -14.089  2.00     6 T2:2      92.82%     4 T2:2          -13.847  2.00     2 2
                                    2.85%     6 T2:2           -8.366  2.00     2 2
                                    2.50%     1 D:xz            0.265  2.00     1 1
                                    1.79%     3 P:y             2.203  0.00     1 1
     -14.089  2.00     6 T2:3      92.82%     4 T2:3          -13.847  2.00     2 2
                                    2.85%     6 T2:3           -8.366  2.00     2 2
                                    2.50%     1 D:xy            0.265  2.00     1 1
                                    1.79%     3 P:z             2.203  0.00     1 1
     -12.162  2.00     8 A1        70.40%     5 A1            -10.196  2.00     2 2
                                   17.51%     4 A1            -14.002  2.00     2 2
                                   10.49%     4 S              -2.647  0.00     1 1
     -11.658  2.00     1 E:1       96.62%     1 E:1           -11.449  2.00     2 2
                                    3.15%     1 D:z2            0.265  2.00     1 1
     -11.658  2.00     1 E:2       96.62%     1 E:2           -11.449  2.00     2 2
                                    3.15%     1 D:x2-y2         0.265  2.00     1 1
     -11.631  2.00     7 T2:1      97.47%     5 T2:1          -11.461  2.00     2 2
                                    1.57%     3 P:x             2.203  0.00     1 1
     -11.631  2.00     7 T2:2      97.47%     5 T2:2          -11.461  2.00     2 2
                                    1.57%     3 P:y             2.203  0.00     1 1
     -11.631  2.00     7 T2:3      97.47%     5 T2:3          -11.461  2.00     2 2
                                    1.57%     3 P:z             2.203  0.00     1 1
     -11.441  2.00     1 T1:1      99.85%     1 T1:1          -11.351  2.00     2 2
                                    0.08%     2 T1:1           -1.133  0.00     2 2
     -11.441  2.00     1 T1:2      99.85%     1 T1:2          -11.351  2.00     2 2
                                    0.08%     2 T1:2           -1.133  0.00     2 2
     -11.441  2.00     1 T1:3      99.85%     1 T1:3          -11.351  2.00     2 2
                                    0.08%     2 T1:3           -1.133  0.00     2 2
     -11.126  2.00     8 T2:1      64.83%     6 T2:1           -8.366  2.00     2 2
                                   22.84%     1 D:yz            0.265  2.00     1 1
                                    6.23%     4 T2:1          -13.847  2.00     2 2
                                    4.64%     3 P:x             2.203  0.00     1 1
     -11.126  2.00     8 T2:2      64.83%     6 T2:2           -8.366  2.00     2 2
                                   22.84%     1 D:xz            0.265  2.00     1 1
                                    6.23%     4 T2:2          -13.847  2.00     2 2
                                    4.64%     3 P:y             2.203  0.00     1 1
     -11.126  2.00     8 T2:3      64.83%     6 T2:3           -8.366  2.00     2 2
                                   22.84%     1 D:xy            0.265  2.00     1 1
                                    6.23%     4 T2:3          -13.847  2.00     2 2
                                    4.64%     3 P:z             2.203  0.00     1 1
      -7.442  2.00     2 E:1       86.35%     1 D:z2            0.265  2.00     1 1
                                   10.01%     2 E:1            -2.233  0.00     2 2
                                    3.23%     1 E:1           -11.449  2.00     2 2
      -7.442  2.00     2 E:2       86.35%     1 D:x2-y2         0.265  2.00     1 1
                                   10.01%     2 E:2            -2.233  0.00     2 2
                                    3.23%     1 E:2           -11.449  2.00     2 2
      -6.430  2.00     9 T2:1      59.09%     1 D:yz            0.265  2.00     1 1
                                   16.20%     6 T2:1           -8.366  2.00     2 2
                                   11.71%     7 T2:1           -2.326  0.00     2 2
                                   10.30%     3 P:x             2.203  0.00     1 1
                                    1.35%     2 D:yz           20.321  0.00     1 1
                                    1.21%     5 T2:1          -11.461  2.00     2 2
      -6.430  2.00     9 T2:2      59.09%     1 D:xz            0.265  2.00     1 1
                                   16.20%     6 T2:2           -8.366  2.00     2 2
                                   11.71%     7 T2:2           -2.326  0.00     2 2
                                   10.30%     3 P:y             2.203  0.00     1 1
                                    1.35%     2 D:xz           20.321  0.00     1 1
                                    1.21%     5 T2:2          -11.461  2.00     2 2
      -6.430  2.00     9 T2:3      59.09%     1 D:xy            0.265  2.00     1 1
                                   16.20%     6 T2:3           -8.366  2.00     2 2
                                   11.71%     7 T2:3           -2.326  0.00     2 2
                                   10.30%     3 P:z             2.203  0.00     1 1
                                    1.35%     2 D:xy           20.321  0.00     1 1
                                    1.21%     5 T2:3          -11.461  2.00     2 2
      -2.328  0.00    10 T2:1      80.69%     7 T2:1           -2.326  0.00     2 2
                                   10.87%     1 D:yz            0.265  2.00     1 1
                                    4.20%     2 D:yz           20.321  0.00     1 1
                                    2.23%     6 T2:1           -8.366  2.00     2 2
                                    1.35%     3 P:x             2.203  0.00     1 1
      -2.328  0.00    10 T2:2      80.69%     7 T2:2           -2.326  0.00     2 2
                                   10.87%     1 D:xz            0.265  2.00     1 1
                                    4.20%     2 D:xz           20.321  0.00     1 1
                                    2.23%     6 T2:2           -8.366  2.00     2 2
                                    1.35%     3 P:y             2.203  0.00     1 1
      -2.328  0.00    10 T2:3      80.69%     7 T2:3           -2.326  0.00     2 2
                                   10.87%     1 D:xy            0.265  2.00     1 1
                                    4.20%     2 D:xy           20.321  0.00     1 1
                                    2.23%     6 T2:3           -8.366  2.00     2 2
                                    1.35%     3 P:z             2.203  0.00     1 1
      -2.095  0.00     3 E:1       87.42%     2 E:1            -2.233  0.00     2 2
                                    8.18%     1 D:z2            0.265  2.00     1 1
                                    4.48%     2 D:z2           20.321  0.00     1 1
      -2.095  0.00     3 E:2       87.42%     2 E:2            -2.233  0.00     2 2
                                    8.18%     1 D:x2-y2         0.265  2.00     1 1
                                    4.48%     2 D:x2-y2        20.321  0.00     1 1
      -1.714  0.00     2 T1:1      99.21%     2 T1:1           -1.133  0.00     2 2
                                    0.66%     1 F:z2x          45.811  0.00     1 1
      -1.714  0.00     2 T1:2      99.21%     2 T1:2           -1.133  0.00     2 2
                                    0.66%     1 F:z2y          45.811  0.00     1 1
      -1.714  0.00     2 T1:3      99.21%     2 T1:3           -1.133  0.00     2 2
                                    0.66%     1 F:z            45.811  0.00     1 1
       0.001  0.00     9 A1        58.93%     4 S              -2.647  0.00     1 1
                                   48.93%     5 S               3.004  0.00     1 1
                                  -19.71%     7 A1              9.027  0.00     2 2
                                   17.33%     6 A1              3.870  0.00     2 2
                                   -5.24%     5 A1            -10.196  2.00     2 2
       2.098  0.00    11 T2:1      98.54%     8 T2:1            2.411  0.00     2 2
                                    1.91%     3 P:x             2.203  0.00     1 1
       2.098  0.00    11 T2:2      98.54%     8 T2:2            2.411  0.00     2 2
                                    1.91%     3 P:y             2.203  0.00     1 1
       2.098  0.00    11 T2:3      98.54%     8 T2:3            2.411  0.00     2 2
                                    1.91%     3 P:z             2.203  0.00     1 1



 =======================================================================
 Electrostatic potential at the Nuclei due to electrons and other nuclei
 =======================================================================
  
         Atom                  Potential
         ----                  ---------
     1)   Ni                128.62728821
     2)   C                  14.67275322
     3)   O                  22.27255339
     4)   C                  14.67275322
     5)   O                  22.27255339
     6)   C                  14.67275322
     7)   O                  22.27255339
     8)   C                  14.67275322
     9)   O                  22.27255339
 
 
 ========================
 No memory problems found
 ========================
 
 Maximum number of active allocate calls:        1326
 
 *******************************************************************************

                             A D F   E X I T
 NORMAL TERMINATION



 =================
 Timing Statistics
 =================
  
 Total Used :                     CPU=       12.27      System=        0.37     Elapsed=       13.37

 Calls  Section                     ( Mean, Percentage )
 ---------------------------------------------------------------------------------------------------
     3  ><      ................      0.00    0.00             0.00    0.00             0.00    0.01
     1  INIT    ................      0.47    3.83             0.02    6.43             0.50    3.71
     1  GEOMET  ................      0.05    0.44             0.01    3.75             0.68    5.12
     1  FRAGM   ................      0.02    0.20             0.01    3.49             0.05    0.38
     1  INPUTA  ................      0.00    0.01             0.00    0.00             0.00    0.00
     1  ATDEN   ................      0.01    0.07             0.00    0.54             0.01    0.10
     1  MAINSY  ................      0.01    0.10             0.01    2.68             0.03    0.21
     1  SYMFIT  ................      0.00    0.01             0.00    0.00             0.00    0.01
     1  CORORT  ................      0.00    0.01             0.00    0.00             0.00    0.00
     1  SYMORB  ................      0.01    0.05             0.00    0.00             0.01    0.05
     1  CLSMAT  ................      0.01    0.11             0.00    0.54             0.02    0.12
     1  ORTHON  ................      0.02    0.16             0.00    0.27             0.02    0.16
     1  GENPT   ................      0.15    1.26             0.01    1.61             0.16    1.21
     1  PTBAS   ................      0.04    0.37             0.01    1.61             0.05    0.39
    22  FOCKY   ................      0.15   26.16             0.00   11.26             0.15   24.45
    22  FOCKTR  ................      0.01    1.34             0.00    0.00             0.01    1.30
    22  SDIIS   ................      0.00    0.77             0.00    2.14             0.00    0.71
     1  COREPS  ................      0.13    1.04             0.00    0.54             0.14    1.01
     1  TOTEN   ................      0.35    2.82             0.01    1.61             0.35    2.65
     1  POPAN   ................      0.01    0.08             0.00    0.27             0.02    0.12
     1  DEBYE   ................      0.01    0.08             0.00    0.27             0.01    0.08
     1  INPUTE  ................      0.00    0.00             0.00    0.00             0.00    0.01
     1  SYMORE  ................      0.00    0.03             0.00    0.00             0.00    0.03
     1  METS    ................      0.00    0.00             0.00    0.27             0.00    0.01
     1  CETS    ................      0.01    0.11             0.00    0.80             0.03    0.25
     1  POPUL   ................      7.44   60.66             0.22   60.32             7.70   57.62
     1  EXIT PROCEDURE .........      0.03    0.29             0.01    1.61             0.04    0.31


 Currently Open Files (EXIT00)
 ====================

 Unit    Access Format  Status   Type       Ident (file)
 -------------------------------------------------------
   3      SEQ    FORM   TRANSP  NORMAL      LOGFILE
                                          ( logfile )


 Buffered I/O statistics
 =======================
 Memory available:                     67108864
 Number of records fitting in memory:     16131
 Input :   1.0% of                       108147  *4k bytes
 Output:  15.1% of                         8886  *4k bytes
 Records from serial files evicted:           0
                    others evicted:           0
 Hash table lookups:     317016 with          0 conflicts (  0.00%)

 ***************************************************************************************************
 (LOGFILE)
 <May15-2019> <13:53:12>  ADF 2017  RunTime: May15-2019 13:53:12  Nodes: 1  Procs: 12
 <May15-2019> <13:53:13>  *** (NO TITLE) ***
 <May15-2019> <13:53:13>  RunType   : SINGLE POINT
 <May15-2019> <13:53:13>  Net Charge: 0 (Nuclei minus Electrons)
 <May15-2019> <13:53:13>  Symmetry  : T(D)
 <May15-2019> <13:53:13>  >>>> FRAGM
  Coordinates
    Atom         X           Y           Z   (Angstrom)
    1.Ni        0.000000    0.000000    0.000000
    2.C        -1.072083   -1.072083   -1.072083
    3.O        -1.736123   -1.736123   -1.736123
    4.C        -1.072083    1.072083    1.072083
    5.O        -1.736123    1.736123    1.736123
    6.C         1.072083    1.072083   -1.072083
    7.O         1.736123    1.736123   -1.736123
    8.C         1.072083   -1.072083    1.072083
    9.O         1.736123   -1.736123    1.736123
 <May15-2019> <13:53:13>  >>>> CORORT
 <May15-2019> <13:53:13>  >>>> CLSMAT
 <May15-2019> <13:53:13>  >>>> ORTHON
 <May15-2019> <13:53:13>  >>>> GENPT
 <May15-2019> <13:53:14>  Block Length= 128
 <May15-2019> <13:53:14>  >>>> PTBAS
 <May15-2019> <13:53:14>  >>>> CYCLE
 <May15-2019> <13:53:14>              |Error|         MaxErr       Wt(A-DIIS)
 <May15-2019> <13:53:14>      1      4.28402465      2.73438093
 <May15-2019> <13:53:14>      2      9.71435526      2.98692557    100.0
 <May15-2019> <13:53:14>      3      9.28562418      3.04527554    100.0
 <May15-2019> <13:53:14>      4      9.02741149      2.94838096    100.0
 <May15-2019> <13:53:15>      5     29.63293482      7.20511640    100.0
 <May15-2019> <13:53:15>      6     11.87746278      3.38362633    100.0
 <May15-2019> <13:53:15>      7      7.34586856      1.59505383    100.0
 <May15-2019> <13:53:15>      8      2.82895445      0.82226060    100.0
 <May15-2019> <13:53:15>      9      2.30799004      0.47975429    100.0
 <May15-2019> <13:53:15>     10      2.40439960      0.60411019    100.0
 <May15-2019> <13:53:15>     11      1.61680912      0.38605377    100.0
 <May15-2019> <13:53:16>     12      0.27233460      0.06069434     60.3
 <May15-2019> <13:53:16>     13      0.84592763      0.20044225    100.0
 <May15-2019> <13:53:16>     14      0.51776335      0.11289011    100.0
 <May15-2019> <13:53:16>     15      0.46173385      0.12230248    100.0
 <May15-2019> <13:53:16>     16      0.17046938      0.04456228     44.0
 <May15-2019> <13:53:16>     17      0.07651545      0.01985841     19.0
 <May15-2019> <13:53:17>     18      0.01135789      0.00284359      1.9
 <May15-2019> <13:53:17>     19      0.00101045      0.00025371      0.0
 <May15-2019> <13:53:17>     20      0.00006765      0.00001789      0.0
 <May15-2019> <13:53:17>     21      0.00000175      0.00000046      0.0
 <May15-2019> <13:53:17>  SCF converged
 <May15-2019> <13:53:17>     22      0.00000019      0.00000005      0.0
 <May15-2019> <13:53:17>  >>>> TOTEN
 <May15-2019> <13:53:18>  >>>> POPAN
 <May15-2019> <13:53:18>  >>>> DEBYE
 <May15-2019> <13:53:18>  >>>> AMETS
 <May15-2019> <13:53:25>   Bond Energy          -0.33935247 a.u.
 <May15-2019> <13:53:25>   Bond Energy          -9.23425047 eV
 <May15-2019> <13:53:25>   Bond Energy        -212.95       kcal/mol
 <May15-2019> <13:53:25>  >>>> POPUL
 <May15-2019> <13:53:25>  NORMAL TERMINATION
 <May15-2019> <13:53:25>  END
