
Create O   file=TZ2P-O
XC
  GGA blyp
End
End Input

 *******************************************************************************
 *                                                                             *
 *  -------------------------------------                                      *
 *   Amsterdam Density Functional  (ADF)         development version           *
 *  -------------------------------------                                      *
 *                                               r61132 2017-09-08             *
 *                                                                             *
 *                                                                             *
 *                              =================                              *
 *                              |               |                              *
 *                              |     A D F     |                              *
 *                              |               |                              *
 *                              =================                              *
 *                                                                             *
 *                                                                             *
 *   Online information and documentation:  https://www.scm.com/support/       *
 *   E-mail:  support@scm.com   info@scm.com                                   *
 *                                                                             *
 *   Scientific publications using ADF results must be properly referenced     *
 *   See the User Manuals (or the web site) for recommended citations          *
 *   The terms and conditions of the End User License Agreement apply to       *
 *   the use of ADF, https://www.scm.com/license-terms/                        *
 *                                                                             *
 **********************  x86_64_linux_intel / intelmpi  ************************
 
 Licensed to: VU/FEW (+ SARA) / ALGEMEEN / Amsterdam / THE NETHERLANDS
 SCM User ID: u7668
  
 ADF development version  RunTime: May02-2019 16:19:31  Nodes: 1  Procs: 1

 Temporary files are created in /local/datastore0/tcst25/188691/kid_0.hn5J9i

 Oxygen (TZ2P)



 ===========================
 A T T A C H E D   F I L E S
 ===========================
  
 CREATE - Data File:    TZ2P-O
                        Oxygen (TZ2P)



 ===============================
 M O D E L   P A R A M E T E R S
 ===============================
  
 DENSITY FUNCTIONAL POTENTIAL (scf)
    LDA:                               Exchange only                           == Not Default ==
    Gradient Corrections:              Becke88 LYP                             == Not Default ==

 SPIN  (restricted / unrestr.)
    Molecule:                          Restricted                               

 OTHER ASPECTS
    Relativistic Corrections:          ---                                      

    Nuclear Charge Density Model:      Point Charge Nuclei                      
    Core Treatment:                    Frozen Orbital(s)                        

    Hyperfine or Zeeman Interaction:   ---                                      



 =====================================
 S Y M M E T R Y ,   E L E C T R O N S
 =====================================
  
 Symmetry: ATOM

 Irreducible Representations, including subspecies
 -------------------------------------------------
 S
 P:x  P:y  P:z
 D:z2  D:x2-y2  D:xy  D:xz  D:yz
 F:z3  F:z  F:xyz  F:z2x  F:z2y  F:x  F:y


 Configuration of Valence Electrons
 ==================================

          Occupation Numbers
          -------------------------------------------------
 S        2*2
 P        4
 D        0
 F        0
          -------------------------------------------------

 Total:   8

 Net Charge: 0 (Nuclei minus Electrons)

 Preset values for MO occupations will be applied through SCF cycle no. 1000000
 Thereafter, the program will assign electrons to MOs that are spatially
 similar to the occupied MOs in a "reference" cycle ("KeepOrbitals").
 The reference cycle is always the PREVIOUS cycle: it will evolve with
 the SCF procedure.



 ================================
 (Slater-type)  F U N C T I O N S  ***  (Basis and Fit)  ***
 ================================
  

 Atom Type    1  (O)
 ==============

 Valence Basis Sets:  10
 -----------------------
   1 S    9.800000
   1 S    6.800000
   2 S    7.580000
   2 S    2.880000
   2 S    1.720000
   2 P    4.080000
   2 P    2.080000
   2 P    1.120000
   3 D    2.000000
   4 F    3.000000


 BAS: List of all Elementary Cartesian Basis Functions
 =====================================================

 The numbering in the list below (to the right of the function characteristics) is referred
 to in print-outs of MO eigenvectors and Mulliken populations in the BAS representation
 (as contrasted to the SFO representation).

 Notes:
 1. The functions are characterized by a polynomial prefactor (powers of x,y,z and r) and
    an exponential decay factor alpha.
 2. Since the basis sets are specific for an atom TYPE, the individual functions occur on
    all atoms of that type.
 3. The word 'Core' in the left margin signals that it is a Core Function (CF) : not a
    degree of freedom in the valence set, but only used to ensure orthogonalization of
    the other valence basis functions on the frozen Core Orbitals.


 (power of) X  Y  Z  R     Alpha  on Atom
            ==========     =====     ==========

 O                                    1
                                  ---------------------------------------------------------------------------
            0  0  0  0     9.800      1
            0  0  0  0     6.800      2
            0  0  0  1     7.580      3
            0  0  0  1     2.880      4
            0  0  0  1     1.720      5
            1  0  0  0     4.080      6
            0  1  0  0     4.080      7
            0  0  1  0     4.080      8
            1  0  0  0     2.080      9
            0  1  0  0     2.080     10
            0  0  1  0     2.080     11
            1  0  0  0     1.120     12
            0  1  0  0     1.120     13
            0  0  1  0     1.120     14
            2  0  0  0     2.000     15
            1  1  0  0     2.000     16
            1  0  1  0     2.000     17
            0  2  0  0     2.000     18
            0  1  1  0     2.000     19
            0  0  2  0     2.000     20
            3  0  0  0     3.000     21
            2  1  0  0     3.000     22
            2  0  1  0     3.000     23
            1  2  0  0     3.000     24
            1  1  1  0     3.000     25
            1  0  2  0     3.000     26
            0  3  0  0     3.000     27
            0  2  1  0     3.000     28
            0  1  2  0     3.000     29
            0  0  3  0     3.000     30

 Total number of charge fitting functions (nprimf)        84
 Total number of Cartesian basis functions (naos)         30
 Total number of Cartesian core functions  (ncos)          0



 BAS: List of all Elementary Cartesian Basis Functions
 =====================================================

 The numbering in the list below (to the right of the function characteristics) is referred
 to in print-outs of MO eigenvectors and Mulliken populations in the BAS representation
 (as contrasted to the SFO representation).

 Notes:
 1. The functions are characterized by a polynomial prefactor (powers of x,y,z and r) and
    an exponential decay factor alpha.
 2. Since the basis sets are specific for an atom TYPE, the individual functions occur on
    all atoms of that type.
 3. The word 'Core' in the left margin signals that it is a Core Function (CF) : not a
    degree of freedom in the valence set, but only used to ensure orthogonalization of
    the other valence basis functions on the frozen Core Orbitals.


 (power of) X  Y  Z  R     Alpha  on Atom
            ==========     =====     ==========

 O                                    1
                                  ---------------------------------------------------------------------------
            0  0  0  0     9.800      1
            0  0  0  0     6.800      2
            0  0  0  1     7.580      3
            0  0  0  1     2.880      4
            0  0  0  1     1.720      5
            1  0  0  0     4.080      6
            0  1  0  0     4.080      7
            0  0  1  0     4.080      8
            1  0  0  0     2.080      9
            0  1  0  0     2.080     10
            0  0  1  0     2.080     11
            1  0  0  0     1.120     12
            0  1  0  0     1.120     13
            0  0  1  0     1.120     14
            2  0  0  0     2.000     15
            1  1  0  0     2.000     16
            1  0  1  0     2.000     17
            0  2  0  0     2.000     18
            0  1  1  0     2.000     19
            0  0  2  0     2.000     20
            3  0  0  0     3.000     21
            2  1  0  0     3.000     22
            2  0  1  0     3.000     23
            1  2  0  0     3.000     24
            1  1  1  0     3.000     25
            1  0  2  0     3.000     26
            0  3  0  0     3.000     27
            0  2  1  0     3.000     28
            0  1  2  0     3.000     29
            0  0  3  0     3.000     30
1
 ***************************************************************************************************



                                              ***********************
                                              *  T E C H N I C A L  *
                                              ***********************
  



 =============================================================
 P A R A L L E L I Z A T I O N  and  V E C T O R I Z A T I O N
 =============================================================
  
 Nr of parallel processes:                                1
 Maximum vector length in NumInt loops:                 128

 IO buffersize (Mb):                                     64.000000



 =====================
 S C F   U P D A T E S
 =====================
  
 Max. nr. of cycles:                               300
 Convergence criterion:                              0.0000000100
   secondary criterion:                              0.0000000100

 Mix parameter (when DIIS does not apply):           0.2000000000
 Special mix parameter for the first cycle:          1.0000000000
 Mixed ADIIS+DIIS will be used
    Max number of expansion vectors:                10
    Pure ADIIS when Max([F,P]) is above              0.1000000000
    Pure DIIS when Max([F,P]) is below               0.0010000000
 Automatic ElectronSmearing (in case of problematic SCF convergence) disabled



 =================
 P R E C I S I O N  ***  (General: NumInt, NeglectFunctionTails, ...)  ***
 =================
  

 NumInt:           Target precision:                12.0000000000
 -------           Initial precision:               10.0000000000
                   Min. precision (optimization):   10.0000000000

 Neglect Functions:          Basis functions:        0.1000000000E-13
 ------------------          Fit functions:          0.1000000000E-13



 ===========================
 L I N E A R   S C A L I N G
 ===========================
  

 Cut-off radii density fit:                        0.1000000000E-97
 Overlap cut-off criterion AO matrix elements:     0.1000000000E-97
 Cut-offs for Coulomb potential and fitted density:0.1000000000E-97
 Cut-off criterion for Coulomb multipole terms:    0.1000000000E-97
 Progressive Convergence parameter:                 0.000000000    
1
 ***************************************************************************************************



                                            ***************************
                                            *  C O M P U T A T I O N  *
                                            ***************************
  

 Number of elements of the density matrix on this node (used, total):       465       465



 ===========================================
 Numerical Integration : Fuzzy Cells (Becke)
 ===========================================
  
 Becke grid quality: VERYGOOD       
  
 Lebedev angular grid order:             min:  13 max:  41
 Nr. of radial points:                   min:  68 max:  68

 Total nr. of points:         68
 Nr. of blocks:                1
 Block length:                68
 Nr. of dummy points:          0


 Test of Precision of the Numerical Integration Grid
 ===================================================

 Integral of the Total Core Density:                   0.00000000000000



 ========================
 Density Fitting (zlmFit)
 ========================
  
 ZlmFit Fit Quality: VERYGOOD       
  
 Max L-expansion:                        min:   0 max:   0
 Nr. of radial interpolation points:     min: 180 max: 180



 =====
 S C F  ***  ScaSCF  ***
 =====
  

 CYCLE    1
 SCF Error: norm([F,P])=      0.000000000000, max([F,P])=      0.000000000000
 orbitals (Q,E):
 ---------------
 S :1...5            ( 2.00   -31.9999)  ( 2.00    -7.9363)  ( 0.00    -3.4636)  ( 0.00     4.3191)
                     ( 0.00   110.5486)
 P :1...3            ( 4.00    -7.9991)  ( 0.00    -3.4855)  ( 0.00    -1.8903)
 D :1...1            ( 0.00    -3.3333)
 F :1...1            ( 0.00    -1.5000)

 CYCLE    2
  SDIIS (wt  0.000):  1.0000 -0.0000
 A-DIIS (wt  1.000):  0.0000  1.0000
  DIIS coefficients:  0.0000  1.0000
 SCF Error: norm([F,P])=      8.765745414074, max([F,P])=      5.518031311555
 orbitals (Q,E):
 ---------------
 S :1...3            ( 2.00   -14.5579)  ( 2.00    -0.0124)  ( 0.00     1.8192)
 P :1...2            ( 4.00     0.2183)  ( 0.00     1.2385)
 D :1...1            ( 0.00     1.5388)
 F :1...1            ( 0.00     3.9464)

 CYCLE    3
  SDIIS (wt  0.000):  0.2278  0.7722
 A-DIIS (wt  1.000):  0.3148  0.6852
  DIIS coefficients:  0.3148  0.6852
 SCF Error: norm([F,P])=      3.585499450444, max([F,P])=      2.499410108106
 orbitals (Q,E):
 ---------------
 S :1...3            ( 2.00   -19.8063)  ( 2.00    -1.5198)  ( 0.00     0.3996)
 P :1...2            ( 4.00    -0.9763)  ( 0.00     0.1325)
 D :1...1            ( 0.00     0.6540)
 F :1...1            ( 0.00     2.8642)

 CYCLE    4
  SDIIS (wt  0.000): -0.0456  0.1707  0.8749
 A-DIIS (wt  1.000):  0.0000  0.0000  1.0000
  DIIS coefficients:  0.0000  0.0000  1.0000
 SCF Error: norm([F,P])=      1.147919112368, max([F,P])=      0.583019620058
 orbitals (Q,E):
 ---------------
 S :1...3            ( 2.00   -18.0523)  ( 2.00    -0.5465)  ( 0.00     1.0349)
 P :1...2            ( 4.00    -0.0477)  ( 0.00     0.5307)
 D :1...1            ( 0.00     1.2443)
 F :1...1            ( 0.00     3.5731)

 CYCLE    5
  SDIIS (wt  0.000): -0.0195 -0.0760  0.5845  0.5110
 A-DIIS (wt  1.000):  0.0000  0.0000  0.6414  0.3586
  DIIS coefficients:  0.0000  0.0000  0.6414  0.3586
 SCF Error: norm([F,P])=      1.519585468023, max([F,P])=      0.840542006159
 orbitals (Q,E):
 ---------------
 S :1...3            ( 2.00   -18.8182)  ( 2.00    -0.8502)  ( 0.00     0.8091)
 P :1...2            ( 4.00    -0.3077)  ( 0.00     0.3582)
 D :1...1            ( 0.00     1.0753)
 F :1...1            ( 0.00     3.3669)

 CYCLE    6
  SDIIS (wt  0.000):  0.0038 -0.0006  0.0668 -0.0496  0.9795
 A-DIIS (wt  1.000):  0.0000  0.0000  0.0000  0.0000  1.0000
  DIIS coefficients:  0.0000  0.0000  0.0000  0.0000  1.0000
 SCF Error: norm([F,P])=      0.178828926625, max([F,P])=      0.104242033505
 orbitals (Q,E):
 ---------------
 S :1...3            ( 2.00   -19.0541)  ( 2.00    -0.9245)  ( 0.00     0.7610)
 P :1...2            ( 4.00    -0.3806)  ( 0.00     0.3267)
 D :1...1            ( 0.00     1.0451)
 F :1...1            ( 0.00     3.3284)

 CYCLE    7
  SDIIS (wt  0.000): -0.0003  0.0004 -0.0182  0.0130  0.4190  0.5861
 A-DIIS (wt  1.000):  0.0000  0.0000  0.0000  0.0000  0.5807  0.4193
  DIIS coefficients:  0.0000  0.0000  0.0000  0.0000  0.5807  0.4193
 SCF Error: norm([F,P])=      0.200125290981, max([F,P])=      0.113649127569
 orbitals (Q,E):
 ---------------
 S :1...3            ( 2.00   -18.9379)  ( 2.00    -0.8781)  ( 0.00     0.7909)
 P :1...2            ( 4.00    -0.3354)  ( 0.00     0.3452)
 D :1...1            ( 0.00     1.0687)
 F :1...1            ( 0.00     3.3572)

 CYCLE    8
  SDIIS (wt  0.910): -0.0000  0.0002  0.0044 -0.0011 -0.0192 -0.1454  1.1612
 A-DIIS (wt  0.090):  0.0000  0.0000  0.0000  0.0000  0.0000  0.0000  1.0000
  DIIS coefficients: -0.0000  0.0002  0.0040 -0.0010 -0.0175 -0.1323  1.1466
 SCF Error: norm([F,P])=      0.016951777154, max([F,P])=      0.009947196225
 orbitals (Q,E):
 ---------------
 S :1...3            ( 2.00   -18.9255)  ( 2.00    -0.8739)  ( 0.00     0.7936)
 P :1...2            ( 4.00    -0.3314)  ( 0.00     0.3469)
 D :1...1            ( 0.00     1.0707)
 F :1...1            ( 0.00     3.3597)

 CYCLE    9
  SDIIS (wt  1.000): -0.0000  0.0000  0.0000 -0.0001  0.0003  0.0067  0.0145  0.9786
  DIIS coefficients: -0.0000  0.0000  0.0000 -0.0001  0.0003  0.0067  0.0145  0.9786
 SCF Error: norm([F,P])=      0.001748429775, max([F,P])=      0.000984374868
 orbitals (Q,E):
 ---------------
 S :1...3            ( 2.00   -18.9266)  ( 2.00    -0.8743)  ( 0.00     0.7933)
 P :1...2            ( 4.00    -0.3318)  ( 0.00     0.3467)
 D :1...1            ( 0.00     1.0705)
 F :1...1            ( 0.00     3.3595)

 CYCLE   10
  SDIIS (wt  1.000): -0.0000 -0.0000 -0.0000 -0.0000  0.0000  0.0001 -0.0011 -0.0034  1.0043
  DIIS coefficients: -0.0000 -0.0000 -0.0000 -0.0000  0.0000  0.0001 -0.0011 -0.0034  1.0043
 SCF Error: norm([F,P])=      0.000001425750, max([F,P])=      0.000000713890
 orbitals (Q,E):
 ---------------
 S :1...3            ( 2.00   -18.9266)  ( 2.00    -0.8743)  ( 0.00     0.7933)
 P :1...2            ( 4.00    -0.3318)  ( 0.00     0.3467)
 D :1...1            ( 0.00     1.0705)
 F :1...1            ( 0.00     3.3595)

 CYCLE   11
  SDIIS (wt  1.000):  0.0000 -0.0000 -0.0000 -0.0001 -0.0046  1.0047
  DIIS coefficients:  0.0000 -0.0000 -0.0000 -0.0001 -0.0046  1.0047
 SCF Error: norm([F,P])=      0.000000048697, max([F,P])=      0.000000022967
 orbitals (Q,E):
 ---------------
 S :1...3            ( 2.00   -18.9266)  ( 2.00    -0.8743)  ( 0.00     0.7933)
 P :1...2            ( 4.00    -0.3318)  ( 0.00     0.3467)
 D :1...1            ( 0.00     1.0705)
 F :1...1            ( 0.00     3.3595)

 CYCLE   12
  SDIIS (wt  1.000):  0.0000  0.0003  0.0049  0.9948
  DIIS coefficients:  0.0000  0.0003  0.0049  0.9948
 SCF Error: norm([F,P])=      0.000000002390, max([F,P])=      0.000000001167
 orbitals (Q,E):
 ---------------
 S :1...3            ( 2.00   -18.9266)  ( 2.00    -0.8743)  ( 0.00     0.7933)
 P :1...2            ( 4.00    -0.3318)  ( 0.00     0.3467)
 D :1...1            ( 0.00     1.0705)
 F :1...1            ( 0.00     3.3595)

 SCF CONVERGED

 CYCLE   13
1
 ***************************************************************************************************



                                                *******************
                                                *  R E S U L T S  *
                                                *******************
  
 *** Setting up for NEW gradients in Focky
 *** Using FIT density in Focky

 Orbital Energies, per Irrep and Spin:
 ======================================
                        Occup              E (au)              E (eV)       Diff (eV) with prev. cycle
                        -----      --------------------        ------       --------------------------
 S
               1        2.000     -0.18926622910087E+02      -515.020               5.76E-10
               2        2.000     -0.87432318445324E+00       -23.792               3.91E-10
               3        0.000      0.79334608634550E+00        21.588
               4        0.000      0.13459763470982E+02       366.259
               5        0.000      0.12310776301335E+03      3349.933
 P
               1        4.000     -0.33177161342559E+00        -9.028               3.71E-10
               2        0.000      0.34673871865826E+00         9.435
               3        0.000      0.38246989192600E+01       104.075
 D
               1        0.000      0.10704889823391E+01        29.129
 F
               1        0.000      0.33594552407685E+01        91.415


 Partially Occupied:
               1 P                -0.33177161342559E+00
  
 HOMO :        2 S                -0.87432318445324E+00
 LUMO :        2 P                 0.34673871865826E+00
  


 Orbital Energies, all Irreps
 ========================================

 Irrep        no.  (spin)   Occup              E (au)                E (eV)
 ---------------------------------------------------------------------------
 S             1             2.00       -0.18926622910087E+02      -515.0196
 S             2             2.00       -0.87432318445324E+00       -23.7915
 P             1             4.00       -0.33177161342559E+00        -9.0280
 P             2             0.00        0.34673871865826E+00         9.4352
 S             3             0.00        0.79334608634550E+00        21.5880
 D             1             0.00        0.10704889823391E+01        29.1295
 F             1             0.00        0.33594552407685E+01        91.4154
 P             3             0.00        0.38246989192600E+01       104.0754
 S             4             0.00        0.13459763470982E+02       366.2588
 S             5             0.00        0.12310776301335E+03      3349.9327


 All Electron Calculation, thus no Orbital Energies of the Core Orbitals are calculated



 =======================================
 M U L L I K E N   P O P U L A T I O N S
 =======================================
  
 The survey below gives for each atom:
 a) the total charge (Z minus electrons)
 b) the net spin polarization (nr of electrons spin-A minus spin-B)
 c) for each spin the atomic electron valence density (integrated) per L-value.

 Atom              Charge    Spin density          S         P         D         F
 ----              ------    ------------       ------    ------    ------    ------
 1 O               0.0000                       4.0000    4.0000    0.0000    0.0000

 Populations of individual BAS functions
 ----------------------------------------
 1 O            0.6447  1.3214  0.0008  1.1425  0.8905  0.2537  0.2537  0.2537  0.7364  0.7364
                0.7364  0.3432  0.3432  0.3432  0.0000  0.0000  0.0000  0.0000  0.0000  0.0000
                0.0000  0.0000  0.0000  0.0000  0.0000  0.0000  0.0000  0.0000  0.0000  0.0000

 Gross Charges per Atom (Z minus electrons)
 ==========================================
             0.0000
 Net Total:  0.00000000



 =======================================================================
 Electrostatic potential at the Nuclei due to electrons and other nuclei
 =======================================================================
  
         Atom                  Potential
         ----                  ---------
     1)   O                  22.23872615
 
 
 ========================
 No memory problems found
 ========================
 
 Maximum number of active allocate calls:         447
 
 *******************************************************************************

                             A D F   E X I T
 NORMAL TERMINATION



 =================
 Timing Statistics
 =================
  
 Total Used :                     CPU=        0.82      System=        0.03     Elapsed=        0.86

 Calls  Section                     ( Mean, Percentage )
 ---------------------------------------------------------------------------------------------------
     3  ><      ................      0.00    0.24             0.00    0.00             0.00    0.16
     1  INIT    ................      0.01    1.83             0.02   51.43             0.03    3.99
     1  GEOMET  ................      0.01    0.73             0.01   17.14             0.01    1.46
     1  INPUTA  ................      0.00    0.24             0.00    0.00             0.00    0.29
     1  MAINSY  ................      0.01    0.85             0.00    8.57             0.01    1.08
     1  SYMFIT  ................      0.00    0.12             0.00    0.00             0.00    0.14
     1  CORORT  ................      0.00    0.00             0.00    0.00             0.00    0.05
     1  SYMORB  ................      0.00    0.12             0.00    0.00             0.00    0.12
     1  CLSMAT  ................      0.01    1.10             0.00    0.00             0.01    1.05
     1  ORTHON  ................      0.00    0.37             0.00    0.00             0.00    0.28
     1  GENPT   ................      0.02    2.44             0.00    2.86             0.02    2.44
     1  PTBAS   ................      0.01    0.73             0.00    0.00             0.01    0.72
    13  FOCKY   ................      0.05   75.88             0.00   11.43             0.05   72.95
    13  FOCKTR  ................      0.00    2.07             0.00    2.86             0.00    2.16
    13  SDIIS   ................      0.00    4.02             0.00    2.86             0.00    4.12
     1  COREPS  ................      0.04    4.51             0.00    2.86             0.04    4.46
     1  POPAN   ................      0.01    1.10             0.00    0.00             0.01    1.05
     1  DEBYE   ................      0.00    0.12             0.00    0.00             0.00    0.11
     1  EXIT PROCEDURE .........      0.03    3.53             0.00    0.00             0.03    3.38


 Currently Open Files (EXIT00)
 ====================

 Unit    Access Format  Status   Type       Ident (file)
 -------------------------------------------------------
   3      SEQ    FORM   TRANSP  NORMAL      LOGFILE
                                          ( logfile )


 Buffered I/O statistics
 =======================
 Memory available:                     67108864
 Number of records fitting in memory:     16131
 Input :   0.1% of                        27846  *4k bytes
 Output:  13.4% of                         1391  *4k bytes
 Records from serial files evicted:           0
                    others evicted:           0
 Hash table lookups:      71928 with          0 conflicts (  0.00%)

 ***************************************************************************************************
 (LOGFILE)
 <May02-2019> <16:19:31>  ADF development version  RunTime: May02-2019 16:19:31  Nodes: 1  Procs: 1
 <May02-2019> <16:19:31>  Oxygen (TZ2P)
 <May02-2019> <16:19:31>  RunType   : CREATE
 <May02-2019> <16:19:31>  Net Charge: 0 (Nuclei minus Electrons)
 <May02-2019> <16:19:31>  Symmetry  : ATOM
  Coordinates
    Atom         X           Y           Z   (Angstrom)
    1.O         0.000000    0.000000    0.000000
 <May02-2019> <16:19:31>  >>>> CORORT
 <May02-2019> <16:19:31>  >>>> CLSMAT
 <May02-2019> <16:19:31>  >>>> ORTHON
 <May02-2019> <16:19:31>  >>>> GENPT
 <May02-2019> <16:19:31>  Block Length=  68
 <May02-2019> <16:19:31>  >>>> PTBAS
 <May02-2019> <16:19:31>  >>>> CYCLE
 <May02-2019> <16:19:31>              |Error|         MaxErr       Wt(A-DIIS)
 <May02-2019> <16:19:31>      1      0.00000000      0.00000000
 <May02-2019> <16:19:31>      2      8.76574541      5.51803131    100.0
 <May02-2019> <16:19:31>      3      3.58549945      2.49941011    100.0
 <May02-2019> <16:19:31>      4      1.14791911      0.58301962    100.0
 <May02-2019> <16:19:31>      5      1.51958547      0.84054201    100.0
 <May02-2019> <16:19:31>      6      0.17882893      0.10424203    100.0
 <May02-2019> <16:19:31>      7      0.20012529      0.11364913    100.0
 <May02-2019> <16:19:31>      8      0.01695178      0.00994720      9.0
 <May02-2019> <16:19:31>      9      0.00174843      0.00098437      0.0
 <May02-2019> <16:19:31>     10      0.00000143      0.00000071      0.0
 <May02-2019> <16:19:31>     11      0.00000005      0.00000002      0.0
 <May02-2019> <16:19:31>     12      0.00000000      0.00000000      0.0
 <May02-2019> <16:19:32>  SCF converged
 <May02-2019> <16:19:32>     13      0.00000000      0.00000000      0.0
 <May02-2019> <16:19:32>  >>>> POPAN
 <May02-2019> <16:19:32>  >>>> DEBYE
 <May02-2019> <16:19:32>  NORMAL TERMINATION
 <May02-2019> <16:19:32>  END

Create C   file=TZ2P-C
XC
  GGA blyp
End
End Input

 *******************************************************************************
 *                                                                             *
 *  -------------------------------------                                      *
 *   Amsterdam Density Functional  (ADF)         development version           *
 *  -------------------------------------                                      *
 *                                               r61132 2017-09-08             *
 *                                                                             *
 *                                                                             *
 *                              =================                              *
 *                              |               |                              *
 *                              |     A D F     |                              *
 *                              |               |                              *
 *                              =================                              *
 *                                                                             *
 *                                                                             *
 *   Online information and documentation:  https://www.scm.com/support/       *
 *   E-mail:  support@scm.com   info@scm.com                                   *
 *                                                                             *
 *   Scientific publications using ADF results must be properly referenced     *
 *   See the User Manuals (or the web site) for recommended citations          *
 *   The terms and conditions of the End User License Agreement apply to       *
 *   the use of ADF, https://www.scm.com/license-terms/                        *
 *                                                                             *
 **********************  x86_64_linux_intel / intelmpi  ************************
 
 Licensed to: VU/FEW (+ SARA) / ALGEMEEN / Amsterdam / THE NETHERLANDS
 SCM User ID: u7668
  
 ADF development version  RunTime: May02-2019 16:19:32  Nodes: 1  Procs: 1

 Temporary files are created in /local/datastore0/tcst25/188691/kid_0.6to8Ef

 Carbon (TZ2P)



 ===========================
 A T T A C H E D   F I L E S
 ===========================
  
 CREATE - Data File:    TZ2P-C
                        Carbon (TZ2P)



 ===============================
 M O D E L   P A R A M E T E R S
 ===============================
  
 DENSITY FUNCTIONAL POTENTIAL (scf)
    LDA:                               Exchange only                           == Not Default ==
    Gradient Corrections:              Becke88 LYP                             == Not Default ==

 SPIN  (restricted / unrestr.)
    Molecule:                          Restricted                               

 OTHER ASPECTS
    Relativistic Corrections:          ---                                      

    Nuclear Charge Density Model:      Point Charge Nuclei                      
    Core Treatment:                    Frozen Orbital(s)                        

    Hyperfine or Zeeman Interaction:   ---                                      



 =====================================
 S Y M M E T R Y ,   E L E C T R O N S
 =====================================
  
 Symmetry: ATOM

 Irreducible Representations, including subspecies
 -------------------------------------------------
 S
 P:x  P:y  P:z
 D:z2  D:x2-y2  D:xy  D:xz  D:yz
 F:z3  F:z  F:xyz  F:z2x  F:z2y  F:x  F:y


 Configuration of Valence Electrons
 ==================================

          Occupation Numbers
          -------------------------------------------------
 S        2*2
 P        2
 D        0
 F        0
          -------------------------------------------------

 Total:   6

 Net Charge: 0 (Nuclei minus Electrons)

 Preset values for MO occupations will be applied through SCF cycle no. 1000000
 Thereafter, the program will assign electrons to MOs that are spatially
 similar to the occupied MOs in a "reference" cycle ("KeepOrbitals").
 The reference cycle is always the PREVIOUS cycle: it will evolve with
 the SCF procedure.



 ================================
 (Slater-type)  F U N C T I O N S  ***  (Basis and Fit)  ***
 ================================
  

 Atom Type    1  (C)
 ==============

 Valence Basis Sets:  10
 -----------------------
   1 S    7.680000
   1 S    5.000000
   2 S    1.280000
   2 S    2.100000
   2 S    4.600000
   2 P    0.820000
   2 P    1.480000
   2 P    2.940000
   3 D    2.200000
   4 F    3.300000


 BAS: List of all Elementary Cartesian Basis Functions
 =====================================================

 The numbering in the list below (to the right of the function characteristics) is referred
 to in print-outs of MO eigenvectors and Mulliken populations in the BAS representation
 (as contrasted to the SFO representation).

 Notes:
 1. The functions are characterized by a polynomial prefactor (powers of x,y,z and r) and
    an exponential decay factor alpha.
 2. Since the basis sets are specific for an atom TYPE, the individual functions occur on
    all atoms of that type.
 3. The word 'Core' in the left margin signals that it is a Core Function (CF) : not a
    degree of freedom in the valence set, but only used to ensure orthogonalization of
    the other valence basis functions on the frozen Core Orbitals.


 (power of) X  Y  Z  R     Alpha  on Atom
            ==========     =====     ==========

 C                                    1
                                  ---------------------------------------------------------------------------
            0  0  0  0     7.680      1
            0  0  0  0     5.000      2
            0  0  0  1     1.280      3
            0  0  0  1     2.100      4
            0  0  0  1     4.600      5
            1  0  0  0     0.820      6
            0  1  0  0     0.820      7
            0  0  1  0     0.820      8
            1  0  0  0     1.480      9
            0  1  0  0     1.480     10
            0  0  1  0     1.480     11
            1  0  0  0     2.940     12
            0  1  0  0     2.940     13
            0  0  1  0     2.940     14
            2  0  0  0     2.200     15
            1  1  0  0     2.200     16
            1  0  1  0     2.200     17
            0  2  0  0     2.200     18
            0  1  1  0     2.200     19
            0  0  2  0     2.200     20
            3  0  0  0     3.300     21
            2  1  0  0     3.300     22
            2  0  1  0     3.300     23
            1  2  0  0     3.300     24
            1  1  1  0     3.300     25
            1  0  2  0     3.300     26
            0  3  0  0     3.300     27
            0  2  1  0     3.300     28
            0  1  2  0     3.300     29
            0  0  3  0     3.300     30

 Total number of charge fitting functions (nprimf)        84
 Total number of Cartesian basis functions (naos)         30
 Total number of Cartesian core functions  (ncos)          0



 BAS: List of all Elementary Cartesian Basis Functions
 =====================================================

 The numbering in the list below (to the right of the function characteristics) is referred
 to in print-outs of MO eigenvectors and Mulliken populations in the BAS representation
 (as contrasted to the SFO representation).

 Notes:
 1. The functions are characterized by a polynomial prefactor (powers of x,y,z and r) and
    an exponential decay factor alpha.
 2. Since the basis sets are specific for an atom TYPE, the individual functions occur on
    all atoms of that type.
 3. The word 'Core' in the left margin signals that it is a Core Function (CF) : not a
    degree of freedom in the valence set, but only used to ensure orthogonalization of
    the other valence basis functions on the frozen Core Orbitals.


 (power of) X  Y  Z  R     Alpha  on Atom
            ==========     =====     ==========

 C                                    1
                                  ---------------------------------------------------------------------------
            0  0  0  0     7.680      1
            0  0  0  0     5.000      2
            0  0  0  1     1.280      3
            0  0  0  1     2.100      4
            0  0  0  1     4.600      5
            1  0  0  0     0.820      6
            0  1  0  0     0.820      7
            0  0  1  0     0.820      8
            1  0  0  0     1.480      9
            0  1  0  0     1.480     10
            0  0  1  0     1.480     11
            1  0  0  0     2.940     12
            0  1  0  0     2.940     13
            0  0  1  0     2.940     14
            2  0  0  0     2.200     15
            1  1  0  0     2.200     16
            1  0  1  0     2.200     17
            0  2  0  0     2.200     18
            0  1  1  0     2.200     19
            0  0  2  0     2.200     20
            3  0  0  0     3.300     21
            2  1  0  0     3.300     22
            2  0  1  0     3.300     23
            1  2  0  0     3.300     24
            1  1  1  0     3.300     25
            1  0  2  0     3.300     26
            0  3  0  0     3.300     27
            0  2  1  0     3.300     28
            0  1  2  0     3.300     29
            0  0  3  0     3.300     30
1
 ***************************************************************************************************



                                              ***********************
                                              *  T E C H N I C A L  *
                                              ***********************
  



 =============================================================
 P A R A L L E L I Z A T I O N  and  V E C T O R I Z A T I O N
 =============================================================
  
 Nr of parallel processes:                                1
 Maximum vector length in NumInt loops:                 128

 IO buffersize (Mb):                                     64.000000



 =====================
 S C F   U P D A T E S
 =====================
  
 Max. nr. of cycles:                               300
 Convergence criterion:                              0.0000000100
   secondary criterion:                              0.0000000100

 Mix parameter (when DIIS does not apply):           0.2000000000
 Special mix parameter for the first cycle:          1.0000000000
 Mixed ADIIS+DIIS will be used
    Max number of expansion vectors:                10
    Pure ADIIS when Max([F,P]) is above              0.1000000000
    Pure DIIS when Max([F,P]) is below               0.0010000000
 Automatic ElectronSmearing (in case of problematic SCF convergence) disabled



 =================
 P R E C I S I O N  ***  (General: NumInt, NeglectFunctionTails, ...)  ***
 =================
  

 NumInt:           Target precision:                12.0000000000
 -------           Initial precision:               10.0000000000
                   Min. precision (optimization):   10.0000000000

 Neglect Functions:          Basis functions:        0.1000000000E-13
 ------------------          Fit functions:          0.1000000000E-13



 ===========================
 L I N E A R   S C A L I N G
 ===========================
  

 Cut-off radii density fit:                        0.1000000000E-97
 Overlap cut-off criterion AO matrix elements:     0.1000000000E-97
 Cut-offs for Coulomb potential and fitted density:0.1000000000E-97
 Cut-off criterion for Coulomb multipole terms:    0.1000000000E-97
 Progressive Convergence parameter:                 0.000000000    
1
 ***************************************************************************************************



                                            ***************************
                                            *  C O M P U T A T I O N  *
                                            ***************************
  

 Number of elements of the density matrix on this node (used, total):       465       465



 ===========================================
 Numerical Integration : Fuzzy Cells (Becke)
 ===========================================
  
 Becke grid quality: VERYGOOD       
  
 Lebedev angular grid order:             min:  13 max:  41
 Nr. of radial points:                   min:  72 max:  72

 Total nr. of points:         72
 Nr. of blocks:                1
 Block length:                72
 Nr. of dummy points:          0


 Test of Precision of the Numerical Integration Grid
 ===================================================

 Integral of the Total Core Density:                   0.00000000000000



 ========================
 Density Fitting (zlmFit)
 ========================
  
 ZlmFit Fit Quality: VERYGOOD       
  
 Max L-expansion:                        min:   0 max:   0
 Nr. of radial interpolation points:     min: 160 max: 160



 =====
 S C F  ***  ScaSCF  ***
 =====
  

 CYCLE    1
 SCF Error: norm([F,P])=      0.000000000000, max([F,P])=      0.000000000000
 orbitals (Q,E):
 ---------------
 S :1...5            ( 2.00   -17.9995)  ( 2.00    -4.4761)  ( 0.00    -1.9482)  ( 0.00     0.6812)
                     ( 0.00    42.8100)
 P :1...3            ( 2.00    -4.4994)  ( 0.00    -1.9807)  ( 0.00    -1.0849)
 D :1...1            ( 0.00    -1.9800)
 F :1...1            ( 0.00     0.4950)

 CYCLE    2
  SDIIS (wt  0.000):  1.0000 -0.0000
 A-DIIS (wt  1.000):  0.0000  1.0000
  DIIS coefficients:  0.0000  1.0000
 SCF Error: norm([F,P])=      4.480319744476, max([F,P])=      3.328841325837
 orbitals (Q,E):
 ---------------
 S :1...3            ( 2.00    -7.7917)  ( 2.00    -0.0500)  ( 0.00     0.8490)
 P :1...2            ( 2.00     0.1033)  ( 0.00     0.5895)
 D :1...1            ( 0.00     1.7552)
 F :1...1            ( 0.00     4.6366)

 CYCLE    3
  SDIIS (wt  0.000):  0.2185  0.7815
 A-DIIS (wt  1.000):  0.1233  0.8767
  DIIS coefficients:  0.1233  0.8767
 SCF Error: norm([F,P])=      1.636788894664, max([F,P])=      1.315295345514
 orbitals (Q,E):
 ---------------
 S :1...3            ( 2.00   -10.9862)  ( 2.00    -0.9428)  ( 0.00     0.1231)
 P :1...2            ( 2.00    -0.6386)  ( 0.00     0.0246)
 D :1...1            ( 0.00     0.8395)
 F :1...1            ( 0.00     3.5625)

 CYCLE    4
  SDIIS (wt  0.000): -0.0629  0.2184  0.8445
 A-DIIS (wt  1.000):  0.0000  0.0872  0.9128
  DIIS coefficients:  0.0000  0.0872  0.9128
 SCF Error: norm([F,P])=      0.722267649759, max([F,P])=      0.580815510644
 orbitals (Q,E):
 ---------------
 S :1...3            ( 2.00    -9.6419)  ( 2.00    -0.3647)  ( 0.00     0.4682)
 P :1...2            ( 2.00    -0.0765)  ( 0.00     0.2450)
 D :1...1            ( 0.00     1.3742)
 F :1...1            ( 0.00     4.1720)

 CYCLE    5
  SDIIS (wt  0.000): -0.0214 -0.0561  0.3847  0.6927
 A-DIIS (wt  1.000):  0.0000  0.0000  0.2646  0.7354
  DIIS coefficients:  0.0000  0.0000  0.2646  0.7354
 SCF Error: norm([F,P])=      0.412794757847, max([F,P])=      0.328642040749
 orbitals (Q,E):
 ---------------
 S :1...3            ( 2.00   -10.1968)  ( 2.00    -0.5643)  ( 0.00     0.3336)
 P :1...2            ( 2.00    -0.2533)  ( 0.00     0.1428)
 D :1...1            ( 0.00     1.1818)
 F :1...1            ( 0.00     3.9467)

 CYCLE    6
  SDIIS (wt  0.032):  0.0025 -0.0116 -0.0698  0.2077  0.8712
 A-DIIS (wt  0.968):  0.0000  0.0000  0.0000  0.0000  1.0000
  DIIS coefficients:  0.0001 -0.0004 -0.0022  0.0066  0.9959
 SCF Error: norm([F,P])=      0.126643163176, max([F,P])=      0.096847488733
 orbitals (Q,E):
 ---------------
 S :1...3            ( 2.00    -9.9458)  ( 2.00    -0.4545)  ( 0.00     0.4037)
 P :1...2            ( 2.00    -0.1511)  ( 0.00     0.1903)
 D :1...1            ( 0.00     1.2866)
 F :1...1            ( 0.00     4.0669)

 CYCLE    7
  SDIIS (wt  0.100): -0.0001  0.0030  0.0073 -0.1526  0.2846  0.8578
 A-DIIS (wt  0.900):  0.0000  0.0000  0.0000  0.0000  0.4446  0.5554
  DIIS coefficients: -0.0000  0.0003  0.0007 -0.0152  0.4286  0.5856
 SCF Error: norm([F,P])=      0.115568228223, max([F,P])=      0.090123764632
 orbitals (Q,E):
 ---------------
 S :1...3            ( 2.00   -10.0697)  ( 2.00    -0.5032)  ( 0.00     0.3719)
 P :1...2            ( 2.00    -0.1955)  ( 0.00     0.1673)
 D :1...1            ( 0.00     1.2400)
 F :1...1            ( 0.00     4.0128)

 CYCLE    8
  SDIIS (wt  0.958): -0.0001  0.0006  0.0026 -0.0162 -0.0129  0.1023  0.9238
 A-DIIS (wt  0.042):  0.0000  0.0000  0.0000  0.0000  0.0000  0.0000  1.0000
  DIIS coefficients: -0.0001  0.0005  0.0025 -0.0155 -0.0124  0.0980  0.9270
 SCF Error: norm([F,P])=      0.006629277795, max([F,P])=      0.005140885246
 orbitals (Q,E):
 ---------------
 S :1...3            ( 2.00   -10.0626)  ( 2.00    -0.5000)  ( 0.00     0.3739)
 P :1...2            ( 2.00    -0.1926)  ( 0.00     0.1686)
 D :1...1            ( 0.00     1.2431)
 F :1...1            ( 0.00     4.0163)

 CYCLE    9
  SDIIS (wt  1.000): -0.0000 -0.0000 -0.0000 -0.0000  0.0023 -0.0004 -0.0164  1.0145
  DIIS coefficients: -0.0000 -0.0000 -0.0000 -0.0000  0.0023 -0.0004 -0.0164  1.0145
 SCF Error: norm([F,P])=      0.000215737590, max([F,P])=      0.000163422092
 orbitals (Q,E):
 ---------------
 S :1...3            ( 2.00   -10.0628)  ( 2.00    -0.5001)  ( 0.00     0.3739)
 P :1...2            ( 2.00    -0.1927)  ( 0.00     0.1686)
 D :1...1            ( 0.00     1.2430)
 F :1...1            ( 0.00     4.0162)

 CYCLE   10
  SDIIS (wt  1.000):  0.0000 -0.0000 -0.0000  0.0001  0.0000 -0.0011  0.0167  0.9843
  DIIS coefficients:  0.0000 -0.0000 -0.0000  0.0001  0.0000 -0.0011  0.0167  0.9843
 SCF Error: norm([F,P])=      0.000001946475, max([F,P])=      0.000001322855
 orbitals (Q,E):
 ---------------
 S :1...3            ( 2.00   -10.0628)  ( 2.00    -0.5001)  ( 0.00     0.3739)
 P :1...2            ( 2.00    -0.1927)  ( 0.00     0.1686)
 D :1...1            ( 0.00     1.2430)
 F :1...1            ( 0.00     4.0162)

 CYCLE   11
  SDIIS (wt  1.000):  0.0000 -0.0000 -0.0002 -0.0078  1.0079
  DIIS coefficients:  0.0000 -0.0000 -0.0002 -0.0078  1.0079
 SCF Error: norm([F,P])=      0.000000018012, max([F,P])=      0.000000015017
 orbitals (Q,E):
 ---------------
 S :1...3            ( 2.00   -10.0628)  ( 2.00    -0.5001)  ( 0.00     0.3739)
 P :1...2            ( 2.00    -0.1927)  ( 0.00     0.1686)
 D :1...1            ( 0.00     1.2430)
 F :1...1            ( 0.00     4.0162)

 CYCLE   12
  SDIIS (wt  1.000):  0.0000 -0.0001  0.0057  0.9944
  DIIS coefficients:  0.0000 -0.0001  0.0057  0.9944
 SCF Error: norm([F,P])=      0.000000000214, max([F,P])=      0.000000000163
 orbitals (Q,E):
 ---------------
 S :1...3            ( 2.00   -10.0628)  ( 2.00    -0.5001)  ( 0.00     0.3739)
 P :1...2            ( 2.00    -0.1927)  ( 0.00     0.1686)
 D :1...1            ( 0.00     1.2430)
 F :1...1            ( 0.00     4.0162)

 SCF CONVERGED

 CYCLE   13
1
 ***************************************************************************************************



                                                *******************
                                                *  R E S U L T S  *
                                                *******************
  
 *** Setting up for NEW gradients in Focky
 *** Using FIT density in Focky

 Orbital Energies, per Irrep and Spin:
 ======================================
                        Occup              E (au)              E (eV)       Diff (eV) with prev. cycle
                        -----      --------------------        ------       --------------------------
 S
               1        2.000     -0.10062819482682E+02      -273.823              -1.46E-09
               2        2.000     -0.50012405867784E+00       -13.609              -9.06E-10
               3        0.000      0.37386666571790E+00        10.173
               4        0.000      0.54114616881925E+01       147.253
               5        0.000      0.50154618712634E+02      1364.777
 P
               1        2.000     -0.19265861396330E+00        -5.243              -8.46E-10
               2        0.000      0.16859720175392E+00         4.588
               3        0.000      0.20146797119588E+01        54.822
 D
               1        0.000      0.12429821924707E+01        33.823
 F
               1        0.000      0.40162441326384E+01       109.288


 Partially Occupied:
               1 P                -0.19265861396330E+00
  
 HOMO :        2 S                -0.50012405867784E+00
 LUMO :        2 P                 0.16859720175392E+00
  


 Orbital Energies, all Irreps
 ========================================

 Irrep        no.  (spin)   Occup              E (au)                E (eV)
 ---------------------------------------------------------------------------
 S             1             2.00       -0.10062819482682E+02      -273.8233
 S             2             2.00       -0.50012405867784E+00       -13.6091
 P             1             2.00       -0.19265861396330E+00        -5.2425
 P             2             0.00        0.16859720175392E+00         4.5878
 S             3             0.00        0.37386666571790E+00        10.1734
 D             1             0.00        0.12429821924707E+01        33.8233
 P             3             0.00        0.20146797119588E+01        54.8222
 F             1             0.00        0.40162441326384E+01       109.2876
 S             4             0.00        0.54114616881925E+01       147.2534
 S             5             0.00        0.50154618712634E+02      1364.7766


 All Electron Calculation, thus no Orbital Energies of the Core Orbitals are calculated



 =======================================
 M U L L I K E N   P O P U L A T I O N S
 =======================================
  
 The survey below gives for each atom:
 a) the total charge (Z minus electrons)
 b) the net spin polarization (nr of electrons spin-A minus spin-B)
 c) for each spin the atomic electron valence density (integrated) per L-value.

 Atom              Charge    Spin density          S         P         D         F
 ----              ------    ------------       ------    ------    ------    ------
 1 C              -0.0000                       4.0000    2.0000    0.0000    0.0000

 Populations of individual BAS functions
 ----------------------------------------
 1 C            0.4900  1.5029  0.9348  1.1161 -0.0439  0.1802  0.1802  0.1802  0.3776  0.3776
                0.3776  0.1089  0.1089  0.1089  0.0000  0.0000  0.0000  0.0000  0.0000  0.0000
                0.0000  0.0000  0.0000  0.0000  0.0000  0.0000  0.0000  0.0000  0.0000  0.0000

 Gross Charges per Atom (Z minus electrons)
 ==========================================
            -0.0000
 Net Total: -0.00000000



 =======================================================================
 Electrostatic potential at the Nuclei due to electrons and other nuclei
 =======================================================================
  
         Atom                  Potential
         ----                  ---------
     1)   C                  14.67487189
 
 
 ========================
 No memory problems found
 ========================
 
 Maximum number of active allocate calls:         447
 
 *******************************************************************************

                             A D F   E X I T
 NORMAL TERMINATION



 =================
 Timing Statistics
 =================
  
 Total Used :                     CPU=        0.76      System=        0.03     Elapsed=        0.80

 Calls  Section                     ( Mean, Percentage )
 ---------------------------------------------------------------------------------------------------
     3  ><      ................      0.00    0.13             0.00    0.00             0.00    0.17
     1  INIT    ................      0.01    1.83             0.02   51.43             0.03    4.32
     1  GEOMET  ................      0.01    0.92             0.01   17.14             0.01    1.57
     1  INPUTA  ................      0.00    0.39             0.00    0.00             0.00    0.32
     1  MAINSY  ................      0.01    1.18             0.00    0.00             0.01    1.16
     1  SYMFIT  ................      0.00    0.00             0.00    2.86             0.00    0.15
     1  CORORT  ................      0.00    0.13             0.00    0.00             0.00    0.05
     1  SYMORB  ................      0.00    0.13             0.00    0.00             0.00    0.13
     1  CLSMAT  ................      0.01    1.18             0.00    0.00             0.01    1.12
     1  ORTHON  ................      0.00    0.26             0.00    0.00             0.00    0.30
     1  GENPT   ................      0.02    2.75             0.00    0.00             0.02    2.62
     1  PTBAS   ................      0.01    0.79             0.00    0.00             0.01    0.77
    13  FOCKY   ................      0.04   74.31             0.00   14.29             0.04   71.36
    13  FOCKTR  ................      0.00    2.36             0.00    0.00             0.00    2.31
    13  SDIIS   ................      0.00    4.33             0.00    5.71             0.00    4.44
     1  COREPS  ................      0.03    4.46             0.00    2.86             0.03    4.35
     1  POPAN   ................      0.01    1.18             0.00    0.00             0.01    1.12
     1  DEBYE   ................      0.00    0.13             0.00    0.00             0.00    0.11
     1  EXIT PROCEDURE .........      0.03    3.54             0.00    5.72             0.03    3.62


 Currently Open Files (EXIT00)
 ====================

 Unit    Access Format  Status   Type       Ident (file)
 -------------------------------------------------------
   3      SEQ    FORM   TRANSP  NORMAL      LOGFILE
                                          ( logfile )


 Buffered I/O statistics
 =======================
 Memory available:                     67108864
 Number of records fitting in memory:     16131
 Input :   0.1% of                        27803  *4k bytes
 Output:  13.6% of                         1374  *4k bytes
 Records from serial files evicted:           0
                    others evicted:           0
 Hash table lookups:      71867 with          0 conflicts (  0.00%)

 ***************************************************************************************************
 (LOGFILE)
 <May02-2019> <16:19:31>  ADF development version  RunTime: May02-2019 16:19:31  Nodes: 1  Procs: 1
 <May02-2019> <16:19:31>  Oxygen (TZ2P)
 <May02-2019> <16:19:31>  RunType   : CREATE
 <May02-2019> <16:19:31>  Net Charge: 0 (Nuclei minus Electrons)
 <May02-2019> <16:19:31>  Symmetry  : ATOM
  Coordinates
    Atom         X           Y           Z   (Angstrom)
    1.O         0.000000    0.000000    0.000000
 <May02-2019> <16:19:31>  >>>> CORORT
 <May02-2019> <16:19:31>  >>>> CLSMAT
 <May02-2019> <16:19:31>  >>>> ORTHON
 <May02-2019> <16:19:31>  >>>> GENPT
 <May02-2019> <16:19:31>  Block Length=  68
 <May02-2019> <16:19:31>  >>>> PTBAS
 <May02-2019> <16:19:31>  >>>> CYCLE
 <May02-2019> <16:19:31>              |Error|         MaxErr       Wt(A-DIIS)
 <May02-2019> <16:19:31>      1      0.00000000      0.00000000
 <May02-2019> <16:19:31>      2      8.76574541      5.51803131    100.0
 <May02-2019> <16:19:31>      3      3.58549945      2.49941011    100.0
 <May02-2019> <16:19:31>      4      1.14791911      0.58301962    100.0
 <May02-2019> <16:19:31>      5      1.51958547      0.84054201    100.0
 <May02-2019> <16:19:31>      6      0.17882893      0.10424203    100.0
 <May02-2019> <16:19:31>      7      0.20012529      0.11364913    100.0
 <May02-2019> <16:19:31>      8      0.01695178      0.00994720      9.0
 <May02-2019> <16:19:31>      9      0.00174843      0.00098437      0.0
 <May02-2019> <16:19:31>     10      0.00000143      0.00000071      0.0
 <May02-2019> <16:19:31>     11      0.00000005      0.00000002      0.0
 <May02-2019> <16:19:31>     12      0.00000000      0.00000000      0.0
 <May02-2019> <16:19:32>  SCF converged
 <May02-2019> <16:19:32>     13      0.00000000      0.00000000      0.0
 <May02-2019> <16:19:32>  >>>> POPAN
 <May02-2019> <16:19:32>  >>>> DEBYE
 <May02-2019> <16:19:32>  NORMAL TERMINATION
 <May02-2019> <16:19:32>  END
 <May02-2019> <16:19:32>  ADF development version  RunTime: May02-2019 16:19:32  Nodes: 1  Procs: 1
 <May02-2019> <16:19:32>  Carbon (TZ2P)
 <May02-2019> <16:19:32>  RunType   : CREATE
 <May02-2019> <16:19:32>  Net Charge: 0 (Nuclei minus Electrons)
 <May02-2019> <16:19:32>  Symmetry  : ATOM
  Coordinates
    Atom         X           Y           Z   (Angstrom)
    1.C         0.000000    0.000000    0.000000
 <May02-2019> <16:19:32>  >>>> CORORT
 <May02-2019> <16:19:32>  >>>> CLSMAT
 <May02-2019> <16:19:32>  >>>> ORTHON
 <May02-2019> <16:19:32>  >>>> GENPT
 <May02-2019> <16:19:32>  Block Length=  72
 <May02-2019> <16:19:32>  >>>> PTBAS
 <May02-2019> <16:19:32>  >>>> CYCLE
 <May02-2019> <16:19:32>              |Error|         MaxErr       Wt(A-DIIS)
 <May02-2019> <16:19:32>      1      0.00000000      0.00000000
 <May02-2019> <16:19:32>      2      4.48031974      3.32884133    100.0
 <May02-2019> <16:19:32>      3      1.63678889      1.31529535    100.0
 <May02-2019> <16:19:32>      4      0.72226765      0.58081551    100.0
 <May02-2019> <16:19:32>      5      0.41279476      0.32864204    100.0
 <May02-2019> <16:19:32>      6      0.12664316      0.09684749     96.8
 <May02-2019> <16:19:32>      7      0.11556823      0.09012376     90.0
 <May02-2019> <16:19:32>      8      0.00662928      0.00514089      4.2
 <May02-2019> <16:19:32>      9      0.00021574      0.00016342      0.0
 <May02-2019> <16:19:32>     10      0.00000195      0.00000132      0.0
 <May02-2019> <16:19:32>     11      0.00000002      0.00000002      0.0
 <May02-2019> <16:19:32>     12      0.00000000      0.00000000      0.0
 <May02-2019> <16:19:32>  SCF converged
 <May02-2019> <16:19:32>     13      0.00000000      0.00000000      0.0
 <May02-2019> <16:19:32>  >>>> POPAN
 <May02-2019> <16:19:32>  >>>> DEBYE
 <May02-2019> <16:19:33>  NORMAL TERMINATION
 <May02-2019> <16:19:33>  END


 Parallel Execution: Process Information
 ==============================================================================
 Rank   Node Name                              NodeID   MyNodeRank  NodeMaster
    0   BAZIS-cn022                               0          0          0
    1   BAZIS-cn022                               0          1         -1
    2   BAZIS-cn022                               0          2         -1
    3   BAZIS-cn022                               0          3         -1
    4   BAZIS-cn022                               0          4         -1
    5   BAZIS-cn022                               0          5         -1
    6   BAZIS-cn022                               0          6         -1
    7   BAZIS-cn022                               0          7         -1
    8   BAZIS-cn022                               0          8         -1
    9   BAZIS-cn022                               0          9         -1
   10   BAZIS-cn022                               0         10         -1
   11   BAZIS-cn022                               0         11         -1
 ==============================================================================


May use up to 30771MB of RAM as shared memory on node 0


XC
  GGA blyp
END

ANALYTICALFREQ
END

SCF
  iterations 250
END

SYMMETRY T(D)
CHARGE 0

ZLMFIT
  Quality normal
END

BECKEGRID
  Quality good
End

ATOMS
C      -1.69105041      -0.45311559      -0.61896741
O      -2.73847408      -0.73377192      -1.00235108
C      -0.00000000       0.00000000       1.85690223
O      -0.00000000      -0.00000000       3.00705324
C       0.45311559       1.69105041      -0.61896741
O       0.73377192       2.73847408      -1.00235108
C       1.23793482      -1.23793482      -0.61896741
O       2.00470216      -2.00470216      -1.00235108
END

Fragments
O t21.O
C t21.C
End
end input

 *******************************************************************************
 *                                                                             *
 *  -------------------------------------                                      *
 *   Amsterdam Density Functional  (ADF)         development version           *
 *  -------------------------------------                                      *
 *                                               r61132 2017-09-08             *
 *                                                                             *
 *                                                                             *
 *                              =================                              *
 *                              |               |                              *
 *                              |     A D F     |                              *
 *                              |               |                              *
 *                              =================                              *
 *                                                                             *
 *                                                                             *
 *   Online information and documentation:  https://www.scm.com/support/       *
 *   E-mail:  support@scm.com   info@scm.com                                   *
 *                                                                             *
 *   Scientific publications using ADF results must be properly referenced     *
 *   See the User Manuals (or the web site) for recommended citations          *
 *   The terms and conditions of the End User License Agreement apply to       *
 *   the use of ADF, https://www.scm.com/license-terms/                        *
 *                                                                             *
 **********************  x86_64_linux_intel / intelmpi  ************************
 
 Licensed to: VU/FEW (+ SARA) / ALGEMEEN / Amsterdam / THE NETHERLANDS
 SCM User ID: u7668
  
 ADF development version  RunTime: May02-2019 16:19:33  Nodes: 1  Procs: 12

 Temporary files are created in /local/datastore0/tcst25/188691/kid_0.NuhMzc


Communication costs MPI_COMM_WORLD:      3.899 usec per message,   0.0164 usec per 8-byte item
Communication costs for intra-node:      3.874 usec per message,   0.0164 usec per 8-byte item

 *** (NO TITLE) ***



 ===========================
 A T T A C H E D   F I L E S
 ===========================
  



 ===============================
 M O D E L   P A R A M E T E R S
 ===============================
  
 DENSITY FUNCTIONAL POTENTIAL (scf)
    LDA:                               Exchange only                           == Not Default ==
    Gradient Corrections:              Becke88 LYP                             == Not Default ==

 SPIN  (restricted / unrestr.)
    Molecule:                          Restricted                               
    Fragments:                         Restricted                               

 OTHER ASPECTS
    Relativistic Corrections:          ---                                      

    Nuclear Charge Density Model:      Point Charge Nuclei                      
    Core Treatment:                    Frozen Orbital(s)                        

    Hyperfine or Zeeman Interaction:   ---                                      


 Fragment File(s)
 ----------------
 C:
         file : t21.C
         jobid: ADF development version  RunTime: May02-2019 16:19:32  Nodes: 1  Procs: 1
         title: Carbon (TZ2P)
 O:
         file : t21.O
         jobid: ADF development version  RunTime: May02-2019 16:19:31  Nodes: 1  Procs: 1
         title: Oxygen (TZ2P)



                                        ************************************
                                        *  R U N   T Y P E : SINGLE POINT  *
                                        ************************************
  



 ===============
 G E O M E T R Y  ***  3D  Molecule  ***
 ===============
  

 ATOMS
 =====                            X Y Z                    CHARGE
                                (Angstrom)             Nucl     +Core       At.Mass
                       --------------------------    ----------------       -------
    1  C              -1.0721   -1.0721   -1.0721      6.00      6.00       12.0000
    2  O              -1.7361   -1.7361   -1.7361      8.00      8.00       15.9949
    3  C              -1.0721    1.0721    1.0721      6.00      6.00       12.0000
    4  O              -1.7361    1.7361    1.7361      8.00      8.00       15.9949
    5  C               1.0721    1.0721   -1.0721      6.00      6.00       12.0000
    6  O               1.7361    1.7361   -1.7361      8.00      8.00       15.9949
    7  C               1.0721   -1.0721    1.0721      6.00      6.00       12.0000
    8  O               1.7361   -1.7361    1.7361      8.00      8.00       15.9949


 FRAGMENTS
 =========                                     Atoms in this Fragment     Cart. coord.s (Angstrom)
                                               -------------------------------------------------------
    1  C                                                 1  C           -1.0721   -1.0721   -1.0721
    2  C                                                 3  C           -1.0721    1.0721    1.0721
    3  C                                                 5  C            1.0721    1.0721   -1.0721
    4  C                                                 7  C            1.0721   -1.0721    1.0721
    5  O                                                 2  O           -1.7361   -1.7361   -1.7361
    6  O                                                 4  O           -1.7361    1.7361    1.7361
    7  O                                                 6  O            1.7361    1.7361   -1.7361
    8  O                                                 8  O            1.7361   -1.7361    1.7361


 Interatomic Distance Matrix (Angstrom)
 --------------------------------------

   1)     0.000
   2)     1.150   0.000
   3)     3.032   4.027   0.000
   4)     4.027   4.910   1.150   0.000
   5)     3.032   4.027   3.032   4.027   0.000
   6)     4.027   4.910   4.027   4.910   1.150   0.000
   7)     3.032   4.027   3.032   4.027   3.032   4.027   0.000
   8)     4.027   4.910   4.027   4.910   4.027   4.910   1.150   0.000

 Min. Distance =    1.1502
 Max. Distance =    4.9105



 =====================================
 S Y M M E T R Y ,   E L E C T R O N S
 =====================================
  
 Symmetry: T(D)

 Irreducible Representations, including subspecies
 -------------------------------------------------
 A1
 A2
 E:1  E:2
 T1:1  T1:2  T1:3
 T2:1  T2:2  T2:3


 Configuration of Valence Electrons
 ==================================
 ( determined in the SCF procedure )

 Total:   56

 Net Charge: 0 (Nuclei minus Electrons)

 Aufbau principle for MO occupations will be applied through SCF cycle no.     125
 Thereafter, the program will assign electrons to MOs that are spatially
 similar to the occupied MOs in a "reference" cycle ("KeepOrbitals").
 The reference cycle is always the PREVIOUS cycle: it will evolve with
 the SCF procedure.
1
 ***************************************************************************************************



                                      ****************************************
                                      *  B U I L D : (Fragments, Functions)  *
                                      ****************************************
  



 =======
 S F O s  ***  (Symmetrized Fragment Orbitals)  ***
 =======
  
 SFOs are linear combinations of (valence) Fragment Orbitals (FOs), such that the SFOs transform as the
 irreducible representations of the (molecular) symmetry group. Each SFO is therefore characterized by
 an irrep of the molecule and by a few (or only one) generating FOs.
 The SFOs constitute a symmetry-adapted basis for the Fock matrix. The MO eigenvector coefficients in
 this basis provide a direct interpretation of the MOs in terms of Frontier Orbital Theory.

 The SFOs are combined with auxiliary Core Functions (CFs) to ensure orthogonalization on the (frozen)
 Core Orbitals (COs). The Core-orthogonalized SFOs (CSFOs) constitute the true Fock basis.

 The FOs, and hence also the (C)SFOs are combinations of the elementary basis functions (BAS). The basis
 functions that participate in the description of the SFOs depend on the irrep. The indices of the
 involved functions are printed below for each irrep.
 (The complete list of primitive basis functions is printed in another section)

 Total nr. of (C)SFOs (summation over all irreps) :   208

 NOTE: a (C)SFO that is defined as a combination of more than one FO is usually NOT normalized.



                                       === A1 ===
 Nr. of SFOs :   22
 Cartesian basis functions that participate in this irrep (total number =   240) :
      1    31    61    91     2    32    62    92     3    33
     63    93     4    34    64    94     5    35    65    95
      8     6     7    38    36    37    68    66    67    98
     96    97    11     9    10    41    39    40    71    69
     70   101    99   100    14    12    13    44    42    43
     74    72    73   104   102   103    20    15    18    50
     45    48    80    75    78   110   105   108    17    19
     16    47    49    46    77    79    76   107   109   106
     25    55    85   115    30    21    27    60    51    57
     90    81    87   120   111   117    26    29    23    28
     22    24    56    59    53    58    52    54    86    89
     83    88    82    84   116   119   113   118   112   114
    121   151   181   211   122   152   182   212   123   153
    183   213   124   154   184   214   125   155   185   215
    128   126   127   158   156   157   188   186   187   218
    216   217   131   129   130   161   159   160   191   189
    190   221   219   220   134   132   133   164   162   163
    194   192   193   224   222   223   140   135   138   170
    165   168   200   195   198   230   225   228   137   139
    136   167   169   166   197   199   196   227   229   226
    145   175   205   235   150   141   147   180   171   177
    210   201   207   240   231   237   146   149   143   148
    142   144   176   179   173   178   172   174   206   209
    203   208   202   204   236   239   233   238   232   234

    SFO  (index         Fragment          Generating    Expansion in Fragment Orbitals
  indx  incl.CFs)   Occup   Orb.Energy   FragmentType  Coeff.   Orbital     on Fragment
 --------------------------------------------------------------------------------------
     1       1      2.000     -10.063 au  C             0.50      1 S               1
                        (    -273.823 eV)               0.50      1 S               2
                                                        0.50      1 S               3
                                                        0.50      1 S               4
     2       2      2.000      -0.500 au  C             0.50      2 S               1
                        (     -13.609 eV)               0.50      2 S               2
                                                        0.50      2 S               3
                                                        0.50      2 S               4
     3       3       --         0.374 au  C             0.50      3 S               1
                        (      10.173 eV)               0.50      3 S               2
                                                        0.50      3 S               3
                                                        0.50      3 S               4
     4       4       --         5.411 au  C             0.50      4 S               1
                        (     147.253 eV)               0.50      4 S               2
                                                        0.50      4 S               3
                                                        0.50      4 S               4
     5       5       --        50.155 au  C             0.50      5 S               1
                        (    1364.777 eV)               0.50      5 S               2
                                                        0.50      5 S               3
                                                        0.50      5 S               4
     6       6      0.667      -0.193 au  C             0.29      1 P:x             1
                        (      -5.243 eV)               0.29      1 P:y             1
                                                        0.29      1 P:z             1
                                                        0.29      1 P:x             2
                                                       -0.29      1 P:y             2
                                                       -0.29      1 P:z             2
                                                       -0.29      1 P:x             3
                                                       -0.29      1 P:y             3
                                                        0.29      1 P:z             3
                                                       -0.29      1 P:x             4
                                                        0.29      1 P:y             4
                                                       -0.29      1 P:z             4
     7       7       --         0.169 au  C             0.29      2 P:x             1
                        (       4.588 eV)               0.29      2 P:y             1
                                                        0.29      2 P:z             1
                                                        0.29      2 P:x             2
                                                       -0.29      2 P:y             2
                                                       -0.29      2 P:z             2
                                                       -0.29      2 P:x             3
                                                       -0.29      2 P:y             3
                                                        0.29      2 P:z             3
                                                       -0.29      2 P:x             4
                                                        0.29      2 P:y             4
                                                       -0.29      2 P:z             4
     8       8       --         2.015 au  C             0.29      3 P:x             1
                        (      54.822 eV)               0.29      3 P:y             1
                                                        0.29      3 P:z             1
                                                        0.29      3 P:x             2
                                                       -0.29      3 P:y             2
                                                       -0.29      3 P:z             2
                                                       -0.29      3 P:x             3
                                                       -0.29      3 P:y             3
                                                        0.29      3 P:z             3
                                                       -0.29      3 P:x             4
                                                        0.29      3 P:y             4
                                                       -0.29      3 P:z             4
     9       9       --         1.243 au  C             0.29      1 D:xy            1
                        (      33.823 eV)               0.29      1 D:xz            1
                                                        0.29      1 D:yz            1
                                                       -0.29      1 D:xy            2
                                                       -0.29      1 D:xz            2
                                                        0.29      1 D:yz            2
                                                        0.29      1 D:xy            3
                                                       -0.29      1 D:xz            3
                                                       -0.29      1 D:yz            3
                                                       -0.29      1 D:xy            4
                                                        0.29      1 D:xz            4
                                                       -0.29      1 D:yz            4
    10      10       --         4.016 au  C             0.29      1 F:z3            1
                        (     109.288 eV)              -0.18      1 F:z2            1
                                                       -0.18      1 F:z2            1
                                                        0.23      1 F:x             1
                                                       -0.23      1 F:y             1
                                                       -0.29      1 F:z3            2
                                                       -0.18      1 F:z2            2
                                                        0.18      1 F:z2            2
                                                        0.23      1 F:x             2
                                                        0.23      1 F:y             2
                                                        0.29      1 F:z3            3
                                                        0.18      1 F:z2            3
                                                        0.18      1 F:z2            3
                                                       -0.23      1 F:x             3
                                                        0.23      1 F:y             3
                                                       -0.29      1 F:z3            4
                                                        0.18      1 F:z2            4
                                                       -0.18      1 F:z2            4
                                                       -0.23      1 F:x             4
                                                       -0.23      1 F:y             4
    11      11       --         4.016 au  C             0.50      1 F:xyz           1
                        (     109.288 eV)               0.50      1 F:xyz           2
                                                        0.50      1 F:xyz           3
                                                        0.50      1 F:xyz           4
    12      12      2.000     -18.927 au  O             0.50      1 S               5
                        (    -515.020 eV)               0.50      1 S               6
                                                        0.50      1 S               7
                                                        0.50      1 S               8
    13      13      2.000      -0.874 au  O             0.50      2 S               5
                        (     -23.792 eV)               0.50      2 S               6
                                                        0.50      2 S               7
                                                        0.50      2 S               8
    14      14       --         0.793 au  O             0.50      3 S               5
                        (      21.588 eV)               0.50      3 S               6
[...]
    1.C         -0.249  -0.157  -0.219         0.118   0.144   0.021        -0.204   0.382  -0.177
    2.O         -0.356  -0.024  -0.247         0.181   0.276  -0.173         0.095  -0.177   0.082
    3.C          0.247  -0.153  -0.214        -0.128   0.164   0.040         0.204   0.209  -0.004
    4.O          0.357  -0.017  -0.240        -0.174   0.304  -0.145        -0.095  -0.097   0.002
    5.C         -0.124  -0.033   0.157        -0.252  -0.226   0.165         0.386  -0.209   0.177
    6.O         -0.176   0.156   0.294        -0.352  -0.257   0.034        -0.179   0.097  -0.082
    7.C          0.122  -0.028   0.152         0.242  -0.206   0.145        -0.386  -0.382   0.004
    8.O          0.178   0.163   0.287         0.360  -0.229   0.006         0.179   0.177  -0.002


                       105.693                       105.693                       120.142
              ------------------------      ------------------------      ------------------------
    1.C         -0.377   0.143   0.234        -0.147  -0.199   0.346        -0.204  -0.204  -0.204
    2.O          0.175  -0.066  -0.108         0.068   0.092  -0.160        -0.204  -0.204  -0.204
    3.C          0.377   0.003   0.375         0.147   0.403  -0.256        -0.204   0.204   0.204
    4.O         -0.175  -0.001  -0.174        -0.068  -0.187   0.118        -0.204   0.204   0.204
    5.C         -0.231  -0.003  -0.234         0.057  -0.403  -0.346         0.204   0.204  -0.204
    6.O          0.107   0.001   0.108        -0.026   0.187   0.160         0.204   0.204  -0.204
    7.C          0.231  -0.143  -0.375        -0.057   0.199   0.256         0.204  -0.204   0.204
    8.O         -0.107   0.066   0.174         0.026  -0.092  -0.118         0.204  -0.204   0.204


                       228.579                       228.579                       228.579
              ------------------------      ------------------------      ------------------------
    1.C         -0.431   0.239   0.121         0.085   0.241  -0.419        -0.016   0.279  -0.053
    2.O          0.189  -0.160  -0.099        -0.091  -0.173   0.172         0.114  -0.040   0.134
    3.C          0.064  -0.028  -0.145         0.187   0.438  -0.222        -0.393  -0.018  -0.350
    4.O          0.086  -0.105  -0.044        -0.112  -0.213   0.131         0.192   0.022   0.195
    5.C         -0.233   0.436   0.151        -0.142   0.014   0.107        -0.344  -0.049  -0.398
    6.O          0.148  -0.201  -0.105        -0.044  -0.126   0.063         0.182   0.028   0.205
    7.C         -0.134   0.170   0.418         0.413   0.211  -0.091        -0.065  -0.346  -0.101
    8.O          0.127  -0.146  -0.160        -0.159  -0.166   0.104         0.124   0.090   0.144


                       246.727                       246.727                      2004.096
              ------------------------      ------------------------      ------------------------
    1.C          0.337  -0.308  -0.029        -0.161  -0.211   0.372         0.203   0.203   0.203
    2.O         -0.149   0.136   0.013         0.071   0.093  -0.164        -0.152  -0.152  -0.153
    3.C          0.337   0.308   0.029        -0.161   0.211  -0.372        -0.378   0.378   0.378
    4.O         -0.149  -0.136  -0.013         0.071  -0.093   0.164         0.284  -0.284  -0.284
    5.C         -0.337   0.308  -0.029         0.161   0.211   0.372        -0.170  -0.170   0.170
    6.O          0.149  -0.136   0.013        -0.071  -0.093  -0.164         0.128   0.127  -0.128
    7.C         -0.337  -0.308   0.029         0.161  -0.211  -0.372        -0.005   0.005  -0.005
    8.O          0.149   0.136  -0.013        -0.071   0.093   0.164         0.004  -0.004   0.004


                      2004.096                      2004.096                      2016.288
              ------------------------      ------------------------      ------------------------
    1.C         -0.317  -0.317  -0.316        -0.136  -0.136  -0.136         0.231   0.231   0.231
    2.O          0.238   0.238   0.237         0.102   0.102   0.102        -0.173  -0.173  -0.173
    3.C         -0.020   0.019   0.019        -0.128   0.128   0.128         0.231  -0.231  -0.231
    4.O          0.015  -0.014  -0.014         0.096  -0.096  -0.096        -0.173   0.173   0.173
    5.C         -0.336  -0.336   0.336         0.135   0.136  -0.136        -0.231  -0.231   0.231
    6.O          0.252   0.252  -0.252        -0.102  -0.102   0.102         0.173   0.173  -0.173
    7.C         -0.000  -0.000  -0.000        -0.400   0.400  -0.400        -0.231   0.231  -0.231
    8.O          0.000   0.000   0.000         0.300  -0.300   0.300         0.173  -0.173   0.173




 List of All Frequencies:


 Intensities
 ===========

               Frequency       Dipole Strength        Absorption Intensity (degeneracy not counted)
                 cm-1           1e-40 esu2 cm2          km/mole
              ----------          ----------          ----------
               65.691674            0.000000            0.000000
               65.691674            0.000000            0.000000
               91.658949            5.355080            0.123032
               91.658949            5.355080            0.123032
               91.658949            5.355080            0.123032
              105.693356            0.000000            0.000000
              105.693356            0.000000            0.000000
              105.693356            0.000000            0.000000
              120.141917            0.000000            0.000000
              228.578722           18.479393            1.058770
              228.578722           18.479393            1.058770
              228.578722           18.479393            1.058770
              246.726840            0.000000            0.000000
              246.726840            0.000000            0.000000
             2004.095545          364.906849          183.306771
             2004.095545          364.906849          183.306771
             2004.095545          364.906849          183.306771
             2016.287624            0.000000            0.000000



 ============================
 Statistical Thermal Analysis  ***  ideal gas assumed  ***
 ============================
  
 Pressure:                  1.000000 atm.
 Temperature:             298.150000 K



 Moments of Inertia (and direction vectors)
 ==========================================

        1771.3334       1771.3334       1771.3334
 ------------------------------------------------
           1.0000          0.0000          0.0000
           0.0000          1.0000          0.0000
           0.0000          0.0000          1.0000


 The rotational contribution to the molecular entropy includes
 a term, dependent on the symmetry number sigma. The results 
 reported below were computed using sigma =12, determined from
 the point group symmetry of the input geometry (T(D)). 
 If this is not the correct symmetry, please contact SCM to report a bug.
 Contributions from frequencies below 20 1/cm are not included in
 the vibrational sums. Their contributions, if any, are reported separately.


     Temp                                                       Transl     Rotat    Vibrat     Total
     ----                                                       ------     -----    ------     -----

     298.15   Entropy (cal/mole-K):                             40.055    25.160    41.751   106.966
              Internal Energy (Kcal/mole):                       0.889     0.889    20.181    21.958
              Constant Volume Heat Capacity (cal/mole-K):        2.981     2.981    26.548    32.510

              Summary of energy terms
                                                   hartree              eV         kcal/mol           kJ/mol
                                      --------------------     -----------       ----------      -----------
              Bond Energy:              -2.102630232027513        -57.2155         -1319.42         -5520.45
              Internal Energy:           0.034992653888545          0.9522            21.96            91.87
              pV/n = RT:                 0.000944186013486          0.0257             0.59             2.48
              Enthalpy H:               -2.066693392125482        -56.2376         -1296.87         -5426.10
              -T*S:                     -0.050823018794912         -1.3830           -31.89          -133.44
              Gibbs free energy:        -2.117516410920394        -57.6206         -1328.76         -5559.54
 

 ***************************************************************************************************
 


====================================================================
*** DONE CALCULATING ANALYTICAL SECOND DERIVATIVES OF THE ENERGY ***
====================================================================

 
 
 ========================
 No memory problems found
 ========================
 
 Maximum number of active allocate calls:        1900
 
 *******************************************************************************

                             A D F   E X I T
 NORMAL TERMINATION



 =================
 Timing Statistics
 =================
  
 Total Used :                     CPU=       46.67      System=        0.80     Elapsed=       47.78

 Calls  Section                     ( Mean, Percentage )
 ---------------------------------------------------------------------------------------------------
     3  ><      ................      0.00    0.00             0.00    0.12             0.00    0.00
     1  INIT    ................      0.45    0.97             0.03    4.23             0.53    1.11
     1  GEOMET  ................      0.05    0.10             0.00    0.50             0.05    0.11
     1  FRAGM   ................      0.03    0.06             0.01    0.87             0.05    0.10
     1  INPUTA  ................      0.00    0.00             0.00    0.00             0.00    0.00
     1  ATDEN   ................      0.01    0.02             0.00    0.12             0.01    0.02
     1  MAINSY  ................      0.02    0.05             0.01    0.87             0.03    0.07
     1  SYMFIT  ................      0.00    0.01             0.00    0.12             0.01    0.01
     1  CORORT  ................      0.00    0.00             0.00    0.00             0.00    0.00
     1  SYMORB  ................      0.01    0.02             0.00    0.00             0.01    0.02
     1  CLSMAT  ................      0.03    0.06             0.00    0.00             0.03    0.05
     1  ORTHON  ................      0.03    0.06             0.01    1.87             0.04    0.09
     1  GENPT   ................      0.13    0.29             0.01    1.37             0.15    0.31
     1  PTBAS   ................      0.24    0.52             0.01    1.62             0.26    0.54
    12  FOCKY   ................      0.57   14.58             0.01    7.59             0.57   14.42
    12  FOCKTR  ................      0.01    0.20             0.01   12.06             0.02    0.42
    12  SDIIS   ................      0.00    0.09             0.00    0.62             0.00    0.10
     1  COREPS  ................      0.45    0.97             0.00    0.50             0.46    0.96
     1  TOTEN   ................      1.95    4.17             0.01    1.37             1.97    4.11
     1  POPAN   ................      0.01    0.02             0.00    0.37             0.02    0.04
     1  DEBYE   ................      0.01    0.02             0.00    0.25             0.01    0.03
     1  INPUTE  ................      0.00    0.00             0.00    0.00             0.00    0.00
     1  SYMORE  ................      0.00    0.01             0.00    0.00             0.00    0.01
     1  METS    ................      0.00    0.00             0.00    0.00             0.00    0.00
     1  CETS    ................      0.01    0.03             0.00    0.50             0.02    0.04
     2  ELNRGY  ................      0.64    2.75             0.00    1.12             0.65    2.72
     1  POPUL   ................      0.02    0.05             0.00    0.37             0.04    0.09
     1  ENGRAD  ................      0.00    0.00             0.00    0.12             0.00    0.01
     1  ENHESS  ................     34.94   74.87             0.50   61.82            35.61   74.52
     1  EXIT PROCEDURE .........      0.03    0.07             0.01    1.62             0.05    0.10


 Currently Open Files (EXIT00)
 ====================

 Unit    Access Format  Status   Type       Ident (file)
 -------------------------------------------------------
   3      SEQ    FORM   TRANSP  NORMAL      LOGFILE
                                          ( logfile )


 Buffered I/O statistics
 =======================
 Memory available:                     67108864
 Number of records fitting in memory:     16131
 Input :   0.3% of                       287651  *4k bytes
 Output:   7.0% of                        14203  *4k bytes
 Records from serial files evicted:           0
                    others evicted:           0
 Hash table lookups:     771574 with          0 conflicts (  0.00%)

 ***************************************************************************************************
 (LOGFILE)
 <May02-2019> <16:19:31>  ADF development version  RunTime: May02-2019 16:19:31  Nodes: 1  Procs: 1
 <May02-2019> <16:19:31>  Oxygen (TZ2P)
 <May02-2019> <16:19:31>  RunType   : CREATE
 <May02-2019> <16:19:31>  Net Charge: 0 (Nuclei minus Electrons)
 <May02-2019> <16:19:31>  Symmetry  : ATOM
  Coordinates
    Atom         X           Y           Z   (Angstrom)
    1.O         0.000000    0.000000    0.000000
 <May02-2019> <16:19:31>  >>>> CORORT
 <May02-2019> <16:19:31>  >>>> CLSMAT
 <May02-2019> <16:19:31>  >>>> ORTHON
 <May02-2019> <16:19:31>  >>>> GENPT
 <May02-2019> <16:19:31>  Block Length=  68
 <May02-2019> <16:19:31>  >>>> PTBAS
 <May02-2019> <16:19:31>  >>>> CYCLE
 <May02-2019> <16:19:31>              |Error|         MaxErr       Wt(A-DIIS)
 <May02-2019> <16:19:31>      1      0.00000000      0.00000000
 <May02-2019> <16:19:31>      2      8.76574541      5.51803131    100.0
 <May02-2019> <16:19:31>      3      3.58549945      2.49941011    100.0
 <May02-2019> <16:19:31>      4      1.14791911      0.58301962    100.0
 <May02-2019> <16:19:31>      5      1.51958547      0.84054201    100.0
 <May02-2019> <16:19:31>      6      0.17882893      0.10424203    100.0
 <May02-2019> <16:19:31>      7      0.20012529      0.11364913    100.0
 <May02-2019> <16:19:31>      8      0.01695178      0.00994720      9.0
 <May02-2019> <16:19:31>      9      0.00174843      0.00098437      0.0
 <May02-2019> <16:19:31>     10      0.00000143      0.00000071      0.0
 <May02-2019> <16:19:31>     11      0.00000005      0.00000002      0.0
 <May02-2019> <16:19:31>     12      0.00000000      0.00000000      0.0
 <May02-2019> <16:19:32>  SCF converged
 <May02-2019> <16:19:32>     13      0.00000000      0.00000000      0.0
 <May02-2019> <16:19:32>  >>>> POPAN
 <May02-2019> <16:19:32>  >>>> DEBYE
 <May02-2019> <16:19:32>  NORMAL TERMINATION
 <May02-2019> <16:19:32>  END
 <May02-2019> <16:19:32>  ADF development version  RunTime: May02-2019 16:19:32  Nodes: 1  Procs: 1
 <May02-2019> <16:19:32>  Carbon (TZ2P)
 <May02-2019> <16:19:32>  RunType   : CREATE
 <May02-2019> <16:19:32>  Net Charge: 0 (Nuclei minus Electrons)
 <May02-2019> <16:19:32>  Symmetry  : ATOM
  Coordinates
    Atom         X           Y           Z   (Angstrom)
    1.C         0.000000    0.000000    0.000000
 <May02-2019> <16:19:32>  >>>> CORORT
 <May02-2019> <16:19:32>  >>>> CLSMAT
 <May02-2019> <16:19:32>  >>>> ORTHON
 <May02-2019> <16:19:32>  >>>> GENPT
 <May02-2019> <16:19:32>  Block Length=  72
 <May02-2019> <16:19:32>  >>>> PTBAS
 <May02-2019> <16:19:32>  >>>> CYCLE
 <May02-2019> <16:19:32>              |Error|         MaxErr       Wt(A-DIIS)
 <May02-2019> <16:19:32>      1      0.00000000      0.00000000
 <May02-2019> <16:19:32>      2      4.48031974      3.32884133    100.0
 <May02-2019> <16:19:32>      3      1.63678889      1.31529535    100.0
 <May02-2019> <16:19:32>      4      0.72226765      0.58081551    100.0
 <May02-2019> <16:19:32>      5      0.41279476      0.32864204    100.0
 <May02-2019> <16:19:32>      6      0.12664316      0.09684749     96.8
 <May02-2019> <16:19:32>      7      0.11556823      0.09012376     90.0
 <May02-2019> <16:19:32>      8      0.00662928      0.00514089      4.2
 <May02-2019> <16:19:32>      9      0.00021574      0.00016342      0.0
 <May02-2019> <16:19:32>     10      0.00000195      0.00000132      0.0
 <May02-2019> <16:19:32>     11      0.00000002      0.00000002      0.0
 <May02-2019> <16:19:32>     12      0.00000000      0.00000000      0.0
 <May02-2019> <16:19:32>  SCF converged
 <May02-2019> <16:19:32>     13      0.00000000      0.00000000      0.0
 <May02-2019> <16:19:32>  >>>> POPAN
 <May02-2019> <16:19:32>  >>>> DEBYE
 <May02-2019> <16:19:33>  NORMAL TERMINATION
 <May02-2019> <16:19:33>  END
 <May02-2019> <16:19:33>  ADF development version  RunTime: May02-2019 16:19:33  Nodes: 1  Procs: 12
 <May02-2019> <16:19:33>  *** (NO TITLE) ***
 <May02-2019> <16:19:33>  RunType   : SINGLE POINT
 <May02-2019> <16:19:33>  Net Charge: 0 (Nuclei minus Electrons)
 <May02-2019> <16:19:33>  Symmetry  : T(D)
 <May02-2019> <16:19:33>  >>>> FRAGM
  Coordinates
    Atom         X           Y           Z   (Angstrom)
    1.C        -1.072083   -1.072083   -1.072083
    2.O        -1.736123   -1.736123   -1.736123
    3.C        -1.072083    1.072083    1.072083
    4.O        -1.736123    1.736123    1.736123
    5.C         1.072083    1.072083   -1.072083
    6.O         1.736123    1.736123   -1.736123
    7.C         1.072083   -1.072083    1.072083
    8.O         1.736123   -1.736123    1.736123
 <May02-2019> <16:19:33>  >>>> CORORT
 <May02-2019> <16:19:33>  >>>> CLSMAT
 <May02-2019> <16:19:33>  >>>> ORTHON
 <May02-2019> <16:19:33>  >>>> GENPT
 <May02-2019> <16:19:34>  Block Length= 127
 <May02-2019> <16:19:34>  >>>> PTBAS
 <May02-2019> <16:19:34>  >>>> CYCLE
 <May02-2019> <16:19:35>              |Error|         MaxErr       Wt(A-DIIS)
 <May02-2019> <16:19:35>      1      5.67603627      1.68996245
 <May02-2019> <16:19:35>      2      0.98254966      0.17404000    100.0
 <May02-2019> <16:19:36>      3      0.35080545      0.04206673    100.0
 <May02-2019> <16:19:36>      4      0.45034709      0.06889890    100.0
 <May02-2019> <16:19:37>      5      0.27769875      0.06719578     66.9
 <May02-2019> <16:19:38>      6      0.21619446      0.05410006     53.6
 <May02-2019> <16:19:38>      7      0.01326480      0.00328135      2.3
 <May02-2019> <16:19:39>      8      0.00139928      0.00032445      0.0
 <May02-2019> <16:19:39>      9      0.00008267      0.00001943      0.0
 <May02-2019> <16:19:40>     10      0.00001021      0.00000255      0.0
 <May02-2019> <16:19:40>     11      0.00000016      0.00000003      0.0
 <May02-2019> <16:19:41>  SCF converged
 <May02-2019> <16:19:41>     12      0.00000002      0.00000001      0.0
 <May02-2019> <16:19:41>  >>>> TOTEN
 <May02-2019> <16:19:43>  >>>> POPAN
 <May02-2019> <16:19:43>  >>>> DEBYE
 <May02-2019> <16:19:43>  >>>> AMETS
 <May02-2019> <16:19:43>   Bond Energy          -2.10263023 a.u.
 <May02-2019> <16:19:43>   Bond Energy         -57.21547976 eV
 <May02-2019> <16:19:43>   Bond Energy       -1319.42       kcal/mol
 <May02-2019> <16:19:43>  >>>> POPUL
 <May02-2019> <16:19:44>  >>>> ENGRAD
 <May02-2019> <16:19:45>  >>>> ENHESS
 <May02-2019> <16:19:45>  === NUCLEUS:     1
 <May02-2019> <16:20:02>  === NUCLEUS:     5
 <May02-2019> <16:20:17>  >>>> CALC_HESS_PMAT
 <May02-2019> <16:20:19>  >>>> CALC_HESS_WMAT
 <May02-2019> <16:20:20>  NORMAL TERMINATION
 <May02-2019> <16:20:20>  END
