
Create Ni   file=TZ2P-Ni
XC
  GGA BLYP
End
End Input

 *******************************************************************************
 *                                                                             *
 *  -------------------------------------                                      *
 *   Amsterdam Density Functional  (ADF)         development version           *
 *  -------------------------------------                                      *
 *                                               r61132 2017-09-08             *
 *                                                                             *
 *                                                                             *
 *                              =================                              *
 *                              |               |                              *
 *                              |     A D F     |                              *
 *                              |               |                              *
 *                              =================                              *
 *                                                                             *
 *                                                                             *
 *   Online information and documentation:  https://www.scm.com/support/       *
 *   E-mail:  support@scm.com   info@scm.com                                   *
 *                                                                             *
 *   Scientific publications using ADF results must be properly referenced     *
 *   See the User Manuals (or the web site) for recommended citations          *
 *   The terms and conditions of the End User License Agreement apply to       *
 *   the use of ADF, https://www.scm.com/license-terms/                        *
 *                                                                             *
 **********************  x86_64_linux_intel / intelmpi  ************************
 
 Licensed to: VU/FEW (+ SARA) / ALGEMEEN / Amsterdam / THE NETHERLANDS
 SCM User ID: u7668
  
 ADF development version  RunTime: May02-2019 16:25:52  Nodes: 1  Procs: 1

 Temporary files are created in /local/datastore0/tcst25/188698/kid_0.CffWLB

 Nickel (TZ2P)



 ===========================
 A T T A C H E D   F I L E S
 ===========================
  
 CREATE - Data File:    TZ2P-Ni
                        Nickel (TZ2P)



 ===============================
 M O D E L   P A R A M E T E R S
 ===============================
  
 DENSITY FUNCTIONAL POTENTIAL (scf)
    LDA:                               Exchange only                           == Not Default ==
    Gradient Corrections:              Becke88 LYP                             == Not Default ==

 SPIN  (restricted / unrestr.)
    Molecule:                          Restricted                               

 OTHER ASPECTS
    Relativistic Corrections:          ---                                      

    Nuclear Charge Density Model:      Point Charge Nuclei                      
    Core Treatment:                    Frozen Orbital(s)                        

    Hyperfine or Zeeman Interaction:   ---                                      



 =====================================
 S Y M M E T R Y ,   E L E C T R O N S
 =====================================
  
 Symmetry: ATOM

 Irreducible Representations, including subspecies
 -------------------------------------------------
 S
 P:x  P:y  P:z
 D:z2  D:x2-y2  D:xy  D:xz  D:yz
 F:z3  F:z  F:xyz  F:z2x  F:z2y  F:x  F:y


 Configuration of Valence Electrons
 ==================================

          Occupation Numbers
          -------------------------------------------------
 S        3*2 1
 P        2*6
 D        9
 F        0
          -------------------------------------------------

 Total:   28

 Net Charge: 0 (Nuclei minus Electrons)

 Preset values for MO occupations will be applied through SCF cycle no. 1000000
 Thereafter, the program will assign electrons to MOs that are spatially
 similar to the occupied MOs in a "reference" cycle ("KeepOrbitals").
 The reference cycle is always the PREVIOUS cycle: it will evolve with
 the SCF procedure.



 ================================
 (Slater-type)  F U N C T I O N S  ***  (Basis and Fit)  ***
 ================================
  

 Atom Type    1  (Ni)
 ==============

 Valence Basis Sets:  19
 -----------------------
   1 S   33.000000
   1 S   25.900000
   2 S   10.950000
   2 S    7.150000
   2 P   15.450000
   2 P   10.000000
   3 S    6.600000
   3 S    4.000000
   3 P    6.800000
   3 P    4.500000
   3 P    3.050000
   3 D    7.000000
   3 D    3.350000
   3 D    1.540000
   4 S    2.450000
   4 S    1.480000
   4 S    0.940000
   4 P    1.470000
   4 F    2.300000


 BAS: List of all Elementary Cartesian Basis Functions
 =====================================================

 The numbering in the list below (to the right of the function characteristics) is referred
 to in print-outs of MO eigenvectors and Mulliken populations in the BAS representation
 (as contrasted to the SFO representation).

 Notes:
 1. The functions are characterized by a polynomial prefactor (powers of x,y,z and r) and
    an exponential decay factor alpha.
 2. Since the basis sets are specific for an atom TYPE, the individual functions occur on
    all atoms of that type.
 3. The word 'Core' in the left margin signals that it is a Core Function (CF) : not a
    degree of freedom in the valence set, but only used to ensure orthogonalization of
    the other valence basis functions on the frozen Core Orbitals.


 (power of) X  Y  Z  R     Alpha  on Atom
            ==========     =====     ==========

 Ni                                   1
                                  ---------------------------------------------------------------------------
            0  0  0  0    33.000      1
            0  0  0  0    25.900      2
            0  0  0  1    10.950      3
            0  0  0  1     7.150      4
            1  0  0  0    15.450      5
            0  1  0  0    15.450      6
            0  0  1  0    15.450      7
            1  0  0  0    10.000      8
            0  1  0  0    10.000      9
            0  0  1  0    10.000     10
            0  0  0  2     6.600     11
            0  0  0  2     4.000     12
            1  0  0  1     6.800     13
            0  1  0  1     6.800     14
            0  0  1  1     6.800     15
            1  0  0  1     4.500     16
            0  1  0  1     4.500     17
            0  0  1  1     4.500     18
            1  0  0  1     3.050     19
            0  1  0  1     3.050     20
            0  0  1  1     3.050     21
            2  0  0  0     7.000     22
            1  1  0  0     7.000     23
            1  0  1  0     7.000     24
            0  2  0  0     7.000     25
            0  1  1  0     7.000     26
            0  0  2  0     7.000     27
            2  0  0  0     3.350     28
            1  1  0  0     3.350     29
            1  0  1  0     3.350     30
            0  2  0  0     3.350     31
            0  1  1  0     3.350     32
            0  0  2  0     3.350     33
            2  0  0  0     1.540     34
            1  1  0  0     1.540     35
            1  0  1  0     1.540     36
            0  2  0  0     1.540     37
            0  1  1  0     1.540     38
            0  0  2  0     1.540     39
            0  0  0  3     2.450     40
            0  0  0  3     1.480     41
            0  0  0  3     0.940     42
            1  0  0  2     1.470     43
            0  1  0  2     1.470     44
            0  0  1  2     1.470     45
            3  0  0  0     2.300     46
            2  1  0  0     2.300     47
            2  0  1  0     2.300     48
            1  2  0  0     2.300     49
            1  1  1  0     2.300     50
            1  0  2  0     2.300     51
            0  3  0  0     2.300     52
            0  2  1  0     2.300     53
            0  1  2  0     2.300     54
            0  0  3  0     2.300     55

 Total number of charge fitting functions (nprimf)       170
 Total number of Cartesian basis functions (naos)         55
 Total number of Cartesian core functions  (ncos)          0



 BAS: List of all Elementary Cartesian Basis Functions
 =====================================================

 The numbering in the list below (to the right of the function characteristics) is referred
 to in print-outs of MO eigenvectors and Mulliken populations in the BAS representation
 (as contrasted to the SFO representation).

 Notes:
 1. The functions are characterized by a polynomial prefactor (powers of x,y,z and r) and
    an exponential decay factor alpha.
 2. Since the basis sets are specific for an atom TYPE, the individual functions occur on
    all atoms of that type.
 3. The word 'Core' in the left margin signals that it is a Core Function (CF) : not a
    degree of freedom in the valence set, but only used to ensure orthogonalization of
    the other valence basis functions on the frozen Core Orbitals.


 (power of) X  Y  Z  R     Alpha  on Atom
            ==========     =====     ==========

 Ni                                   1
                                  ---------------------------------------------------------------------------
            0  0  0  0    33.000      1
            0  0  0  0    25.900      2
            0  0  0  1    10.950      3
            0  0  0  1     7.150      4
            1  0  0  0    15.450      5
            0  1  0  0    15.450      6
            0  0  1  0    15.450      7
            1  0  0  0    10.000      8
            0  1  0  0    10.000      9
            0  0  1  0    10.000     10
            0  0  0  2     6.600     11
            0  0  0  2     4.000     12
            1  0  0  1     6.800     13
            0  1  0  1     6.800     14
            0  0  1  1     6.800     15
            1  0  0  1     4.500     16
            0  1  0  1     4.500     17
            0  0  1  1     4.500     18
            1  0  0  1     3.050     19
            0  1  0  1     3.050     20
            0  0  1  1     3.050     21
            2  0  0  0     7.000     22
            1  1  0  0     7.000     23
            1  0  1  0     7.000     24
            0  2  0  0     7.000     25
            0  1  1  0     7.000     26
            0  0  2  0     7.000     27
            2  0  0  0     3.350     28
            1  1  0  0     3.350     29
            1  0  1  0     3.350     30
            0  2  0  0     3.350     31
            0  1  1  0     3.350     32
            0  0  2  0     3.350     33
            2  0  0  0     1.540     34
            1  1  0  0     1.540     35
            1  0  1  0     1.540     36
            0  2  0  0     1.540     37
            0  1  1  0     1.540     38
            0  0  2  0     1.540     39
            0  0  0  3     2.450     40
            0  0  0  3     1.480     41
            0  0  0  3     0.940     42
            1  0  0  2     1.470     43
            0  1  0  2     1.470     44
            0  0  1  2     1.470     45
            3  0  0  0     2.300     46
            2  1  0  0     2.300     47
            2  0  1  0     2.300     48
            1  2  0  0     2.300     49
            1  1  1  0     2.300     50
            1  0  2  0     2.300     51
            0  3  0  0     2.300     52
            0  2  1  0     2.300     53
            0  1  2  0     2.300     54
            0  0  3  0     2.300     55
1
 ***************************************************************************************************



                                              ***********************
                                              *  T E C H N I C A L  *
                                              ***********************
  



 =============================================================
 P A R A L L E L I Z A T I O N  and  V E C T O R I Z A T I O N
 =============================================================
  
 Nr of parallel processes:                                1
 Maximum vector length in NumInt loops:                 128

 IO buffersize (Mb):                                     64.000000



 =====================
 S C F   U P D A T E S
 =====================
  
 Max. nr. of cycles:                               300
 Convergence criterion:                              0.0000000100
   secondary criterion:                              0.0000000100

 Mix parameter (when DIIS does not apply):           0.2000000000
 Special mix parameter for the first cycle:          1.0000000000
 Mixed ADIIS+DIIS will be used
    Max number of expansion vectors:                10
    Pure ADIIS when Max([F,P]) is above              0.1000000000
    Pure DIIS when Max([F,P]) is below               0.0010000000
 Automatic ElectronSmearing (in case of problematic SCF convergence) disabled



 =================
 P R E C I S I O N  ***  (General: NumInt, NeglectFunctionTails, ...)  ***
 =================
  

 NumInt:           Target precision:                12.0000000000
 -------           Initial precision:               10.0000000000
                   Min. precision (optimization):   10.0000000000

 Neglect Functions:          Basis functions:        0.1000000000E-13
 ------------------          Fit functions:          0.1000000000E-13



 ===========================
 L I N E A R   S C A L I N G
 ===========================
  

 Cut-off radii density fit:                        0.1000000000E-97
 Overlap cut-off criterion AO matrix elements:     0.1000000000E-97
 Cut-offs for Coulomb potential and fitted density:0.1000000000E-97
 Cut-off criterion for Coulomb multipole terms:    0.1000000000E-97
 Progressive Convergence parameter:                 0.000000000    
1
 ***************************************************************************************************



                                            ***************************
                                            *  C O M P U T A T I O N  *
                                            ***************************
  

 Number of elements of the density matrix on this node (used, total):      1540      1540



 ===========================================
 Numerical Integration : Fuzzy Cells (Becke)
 ===========================================
  
 Becke grid quality: VERYGOOD       
  
 Lebedev angular grid order:             min:  13 max:  41
 Nr. of radial points:                   min: 102 max: 102

 Total nr. of points:        102
 Nr. of blocks:                1
 Block length:               102
 Nr. of dummy points:          0


 Test of Precision of the Numerical Integration Grid
 ===================================================

 Integral of the Total Core Density:                   0.00000000000000



 ========================
 Density Fitting (zlmFit)
 ========================
  
 ZlmFit Fit Quality: VERYGOOD       
  
 Max L-expansion:                        min:   0 max:   0
 Nr. of radial interpolation points:     min: 240 max: 240



 =====
 S C F  ***  ScaSCF  ***
 =====
  

 CYCLE    1
 SCF Error: norm([F,P])=      0.000000000000, max([F,P])=      0.000000000000
 orbitals (Q,E):
 ---------------
 S :1...9            ( 2.00  -391.9892)  ( 2.00   -97.9812)  ( 2.00   -43.4557)  ( 1.00   -24.0828)
                     ( 0.00   -14.4359)  ( 0.00    -9.0196)  ( 0.00    -6.3314)  ( 0.00    -4.2879)
                     ( 0.00   528.0926)
 P :1...6            ( 6.00   -97.9725)  ( 6.00   -43.2980)  ( 0.00   -24.0873)  ( 0.00   -14.8413)
                     ( 0.00    -8.1344)  ( 0.00    16.0733)
 D :1...3            ( 9.00   -41.5527)  ( 0.00   -21.2384)  ( 0.00   -10.4488)
 F :1...1            ( 0.00   -13.4550)

 CYCLE    2
  SDIIS (wt  0.000):  1.0000 -0.0000
 A-DIIS (wt  1.000):  0.0000  1.0000
  DIIS coefficients:  0.0000  1.0000
 SCF Error: norm([F,P])=     82.198834740606, max([F,P])=     20.431205655741
 orbitals (Q,E):
 ---------------
 S :1...5            ( 2.00  -269.6367)  ( 2.00   -16.6630)  ( 2.00    -0.0459)  ( 1.00     0.1138)
                     ( 0.00     0.6433)
 P :1...3            ( 6.00   -10.9428)  ( 6.00     0.1753)  ( 0.00     1.3051)
 D :1...2            ( 9.00     0.7592)  ( 0.00     4.4039)
 F :1...1            ( 0.00     2.3357)

 CYCLE    3
  SDIIS (wt  0.000):  0.1533  0.8467
 A-DIIS (wt  1.000):  0.4137  0.5863
  DIIS coefficients:  0.4137  0.5863
 SCF Error: norm([F,P])=     31.271083467752, max([F,P])=      9.044852736597
 orbitals (Q,E):
 ---------------
 S :1...5            ( 2.00  -299.8931)  ( 2.00   -38.0754)  ( 2.00    -7.5313)  ( 1.00    -1.6288)
                     ( 0.00    -0.1376)
 P :1...3            ( 6.00   -33.4286)  ( 6.00    -6.1098)  ( 0.00    -1.1726)
 D :1...2            ( 9.00    -3.6881)  ( 0.00    -0.4262)
 F :1...1            ( 0.00     0.0258)

 CYCLE    4
  SDIIS (wt  0.000):  0.0026  0.0278  0.9696
 A-DIIS (wt  1.000):  0.0000  0.0171  0.9829
  DIIS coefficients:  0.0000  0.0171  0.9829
 SCF Error: norm([F,P])=      6.647407159329, max([F,P])=      1.687182188859
 orbitals (Q,E):
 ---------------
 S :1...5            ( 2.00  -295.2830)  ( 2.00   -32.0889)  ( 2.00    -2.0341)  ( 1.00    -0.0101)
                     ( 0.00     0.1972)
 P :1...3            ( 6.00   -27.5848)  ( 6.00    -0.7878)  ( 0.00     0.2067)
 D :1...2            ( 9.00     0.5663)  ( 0.00     1.8057)
 F :1...1            ( 0.00     1.9715)

 CYCLE    5
  SDIIS (wt  0.000):  0.0064 -0.0365  0.7040  0.3260
 A-DIIS (wt  1.000):  0.0000  0.0000  0.7633  0.2367
  DIIS coefficients:  0.0000  0.0000  0.7633  0.2367
 SCF Error: norm([F,P])=     12.980079057770, max([F,P])=      3.408755333926
 orbitals (Q,E):
 ---------------
 S :1...5            ( 2.00  -297.8850)  ( 2.00   -34.5523)  ( 2.00    -3.4747)  ( 1.00    -0.1220)
                     ( 0.00     0.0972)
 P :1...3            ( 6.00   -30.0824)  ( 6.00    -2.1283)  ( 0.00     0.0586)
 D :1...2            ( 9.00     0.0311)  ( 0.00     0.7664)
 F :1...1            ( 0.00     1.6080)

 CYCLE    6
  SDIIS (wt  0.000):  0.0051 -0.0072  0.3030 -0.0946  0.7937
 A-DIIS (wt  1.000):  0.0000  0.0000  0.2462  0.0000  0.7538
  DIIS coefficients:  0.0000  0.0000  0.2462  0.0000  0.7538
 SCF Error: norm([F,P])=      3.957322049884, max([F,P])=      1.341541274099
 orbitals (Q,E):
 ---------------
 S :1...5            ( 2.00  -299.1440)  ( 2.00   -35.8138)  ( 2.00    -4.1206)  ( 1.00    -0.1841)
                     ( 0.00     0.0656)
 P :1...3            ( 6.00   -31.3578)  ( 6.00    -2.7473)  ( 0.00     0.0053)
 D :1...2            ( 9.00    -0.4557)  ( 0.00     0.5622)
 F :1...1            ( 0.00     1.5104)

 CYCLE    7
  SDIIS (wt  0.000): -0.0032  0.0054 -0.0445 -0.0287  0.4711  0.5998
 A-DIIS (wt  1.000):  0.0000  0.0000  0.0000  0.0000  0.4265  0.5735
  DIIS coefficients:  0.0000  0.0000  0.0000  0.0000  0.4265  0.5735
 SCF Error: norm([F,P])=      3.204203490728, max([F,P])=      0.989879423632
 orbitals (Q,E):
 ---------------
 S :1...5            ( 2.00  -298.2809)  ( 2.00   -35.0987)  ( 2.00    -3.7362)  ( 1.00    -0.1498)
                     ( 0.00     0.0760)
 P :1...3            ( 6.00   -30.6186)  ( 6.00    -2.3748)  ( 0.00     0.0310)
 D :1...2            ( 9.00    -0.1433)  ( 0.00     0.6600)
 F :1...1            ( 0.00     1.5826)

 CYCLE    8
  SDIIS (wt  0.132): -0.0000  0.0000 -0.0105 -0.0002  0.0035  0.1045  0.9026
 A-DIIS (wt  0.868):  0.0000  0.0000  0.0000  0.0000  0.0000  0.0000  1.0000
  DIIS coefficients: -0.0000  0.0000 -0.0014 -0.0000  0.0005  0.0138  0.9872
 SCF Error: norm([F,P])=      0.297545993068, max([F,P])=      0.086976938267
 orbitals (Q,E):
 ---------------
 S :1...5            ( 2.00  -298.5045)  ( 2.00   -35.2749)  ( 2.00    -3.8123)  ( 1.00    -0.1587)
                     ( 0.00     0.0707)
 P :1...3            ( 6.00   -30.8025)  ( 6.00    -2.4481)  ( 0.00     0.0226)
 D :1...2            ( 9.00    -0.2013)  ( 0.00     0.6344)
 F :1...1            ( 0.00     1.5697)

 CYCLE    9
  SDIIS (wt  0.000): -0.0000  0.0002  0.0015 -0.0009  0.0590 -0.0778  0.1842  0.8339
 A-DIIS (wt  1.000):  0.0000  0.0000  0.0000  0.0000  0.0000  0.0000  0.7826  0.2174
  DIIS coefficients:  0.0000  0.0000  0.0000  0.0000  0.0000  0.0000  0.7826  0.2174
 SCF Error: norm([F,P])=      0.619771058447, max([F,P])=      0.204016809049
 orbitals (Q,E):
 ---------------
 S :1...5            ( 2.00  -298.4171)  ( 2.00   -35.1971)  ( 2.00    -3.7691)  ( 1.00    -0.1544)
                     ( 0.00     0.0727)
 P :1...3            ( 6.00   -30.7229)  ( 6.00    -2.4063)  ( 0.00     0.0263)
 D :1...2            ( 9.00    -0.1675)  ( 0.00     0.6476)
 F :1...1            ( 0.00     1.5786)

 CYCLE   10
  SDIIS (wt  0.406): -0.0000  0.0000  0.0000  0.0002 -0.0074  0.0171  0.1846 -0.4057  1.2112
 A-DIIS (wt  0.594):  0.0000  0.0000  0.0000  0.0000  0.0000  0.0000  0.3791  0.0000  0.6209
  DIIS coefficients: -0.0000  0.0000  0.0000  0.0001 -0.0030  0.0069  0.3001 -0.1648  0.8606
 SCF Error: norm([F,P])=      0.185105282448, max([F,P])=      0.059790280666
 orbitals (Q,E):
 ---------------
 S :1...5            ( 2.00  -298.3699)  ( 2.00   -35.1589)  ( 2.00    -3.7511)  ( 1.00    -0.1532)
                     ( 0.00     0.0732)
 P :1...3            ( 6.00   -30.6832)  ( 6.00    -2.3890)  ( 0.00     0.0273)
 D :1...2            ( 9.00    -0.1540)  ( 0.00     0.6529)
 F :1...1            ( 0.00     1.5812)

 CYCLE   11
  SDIIS (wt  0.915):  0.0000  0.0000  0.0001 -0.0000  0.0004 -0.0065  0.0259  0.1869 -0.3124  1.1057
 A-DIIS (wt  0.085):  0.0000  0.0000  0.0000  0.0000  0.0000  0.0000  0.0000  0.0000  0.0179  0.9821
  DIIS coefficients:  0.0000  0.0000  0.0001 -0.0000  0.0004 -0.0059  0.0237  0.1709 -0.2842  1.0952
 SCF Error: norm([F,P])=      0.026696285481, max([F,P])=      0.009452166523
 orbitals (Q,E):
 ---------------
 S :1...5            ( 2.00  -298.3741)  ( 2.00   -35.1639)  ( 2.00    -3.7549)  ( 1.00    -0.1537)
                     ( 0.00     0.0730)
 P :1...3            ( 6.00   -30.6881)  ( 6.00    -2.3928)  ( 0.00     0.0268)
 D :1...2            ( 9.00    -0.1571)  ( 0.00     0.6516)
 F :1...1            ( 0.00     1.5801)

 CYCLE   12
  SDIIS (wt  0.988):  0.0000  0.0000 -0.0000  0.0000 -0.0001 -0.0003  0.0028 -0.0213  0.1170  0.9018
 A-DIIS (wt  0.012):  0.0000  0.0000  0.0000  0.0000  0.0000  0.0000  0.0000  0.0000  0.0730  0.9270
  DIIS coefficients:  0.0000  0.0000 -0.0000  0.0000 -0.0001 -0.0003  0.0028 -0.0211  0.1165  0.9021
 SCF Error: norm([F,P])=      0.006278416902, max([F,P])=      0.002140574592
 orbitals (Q,E):
 ---------------
 S :1...5            ( 2.00  -298.3729)  ( 2.00   -35.1628)  ( 2.00    -3.7543)  ( 1.00    -0.1536)
                     ( 0.00     0.0730)
 P :1...3            ( 6.00   -30.6870)  ( 6.00    -2.3921)  ( 0.00     0.0269)
 D :1...2            ( 9.00    -0.1565)  ( 0.00     0.6518)
 F :1...1            ( 0.00     1.5803)

 CYCLE   13
  SDIIS (wt  1.000): -0.0000 -0.0000  0.0000  0.0000 -0.0000 -0.0005 -0.0002  0.0049  0.0881  0.9076
  DIIS coefficients: -0.0000 -0.0000  0.0000  0.0000 -0.0000 -0.0005 -0.0002  0.0049  0.0881  0.9076
 SCF Error: norm([F,P])=      0.000149214921, max([F,P])=      0.000051314902
 orbitals (Q,E):
 ---------------
 S :1...5            ( 2.00  -298.3730)  ( 2.00   -35.1628)  ( 2.00    -3.7543)  ( 1.00    -0.1536)
                     ( 0.00     0.0730)
 P :1...3            ( 6.00   -30.6870)  ( 6.00    -2.3921)  ( 0.00     0.0269)
 D :1...2            ( 9.00    -0.1566)  ( 0.00     0.6518)
 F :1...1            ( 0.00     1.5803)

 CYCLE   14
  SDIIS (wt  1.000): -0.0000  0.0000  0.0004  0.0133  0.9862
  DIIS coefficients: -0.0000  0.0000  0.0004  0.0133  0.9862
 SCF Error: norm([F,P])=      0.000000054476, max([F,P])=      0.000000018045
 orbitals (Q,E):
 ---------------
 S :1...5            ( 2.00  -298.3730)  ( 2.00   -35.1628)  ( 2.00    -3.7543)  ( 1.00    -0.1536)
                     ( 0.00     0.0730)
 P :1...3            ( 6.00   -30.6870)  ( 6.00    -2.3921)  ( 0.00     0.0269)
 D :1...2            ( 9.00    -0.1566)  ( 0.00     0.6518)
 F :1...1            ( 0.00     1.5803)

 CYCLE   15
  SDIIS (wt  1.000): -0.0000 -0.0002  0.0013  0.9989
  DIIS coefficients: -0.0000 -0.0002  0.0013  0.9989
 SCF Error: norm([F,P])=      0.000000000972, max([F,P])=      0.000000000273
 orbitals (Q,E):
 ---------------
 S :1...5            ( 2.00  -298.3730)  ( 2.00   -35.1628)  ( 2.00    -3.7543)  ( 1.00    -0.1536)
                     ( 0.00     0.0730)
 P :1...3            ( 6.00   -30.6870)  ( 6.00    -2.3921)  ( 0.00     0.0269)
 D :1...2            ( 9.00    -0.1566)  ( 0.00     0.6518)
 F :1...1            ( 0.00     1.5803)

 SCF CONVERGED

 CYCLE   16
1
 ***************************************************************************************************



                                                *******************
                                                *  R E S U L T S  *
                                                *******************
  
 *** Setting up for NEW gradients in Focky
 *** Using FIT density in Focky

 Orbital Energies, per Irrep and Spin:
 ======================================
                        Occup              E (au)              E (eV)       Diff (eV) with prev. cycle
                        -----      --------------------        ------       --------------------------
 S
               1        2.000     -0.29837296382368E+03     -8119.141               7.15E-10
               2        2.000     -0.35162785856008E+02      -956.828               7.67E-10
               3        2.000     -0.37542917287503E+01      -102.159               7.80E-10
               4        1.000     -0.15361549833274E+00        -4.180               4.11E-10
               5        0.000      0.73031071962126E-01         1.987
               6        0.000      0.74772136652973E+00        20.347
               7        0.000      0.50359116151598E+01       137.034
               8        0.000      0.35092580263445E+02       954.918
               9        0.000      0.61215643227098E+03     16657.624
 P
               1        6.000     -0.30686978554474E+02      -835.035               7.65E-10
               2        6.000     -0.23921207208882E+01       -65.093               7.78E-10
               3        0.000      0.26890275777134E-01         0.732
               4        0.000      0.14649464495668E+01        39.863
               5        0.000      0.96977542738600E+01       263.889
               6        0.000      0.75654916221662E+02      2058.675
 D
               1        9.000     -0.15656196633848E+00        -4.260               7.39E-10
               2        0.000      0.65181863967558E+00        17.737
               3        0.000      0.57590440531346E+01       156.712
 F
               1        0.000      0.15802737540164E+01        43.001


 Partially Occupied:
               4 S                -0.15361549833274E+00
               1 D                -0.15656196633848E+00
  
 HOMO :        2 P                -0.23921207208882E+01
 LUMO :        3 P                 0.26890275777134E-01
  


 Orbital Energies, all Irreps
 ========================================

 Irrep        no.  (spin)   Occup              E (au)                E (eV)
 ---------------------------------------------------------------------------
 S             1             2.00       -0.29837296382368E+03     -8119.1415
 S             2             2.00       -0.35162785856008E+02      -956.8281
 P             1             6.00       -0.30686978554474E+02      -835.0352
 S             3             2.00       -0.37542917287503E+01      -102.1595
 P             2             6.00       -0.23921207208882E+01       -65.0929
 D             1             9.00       -0.15656196633848E+00        -4.2603
 S             4             1.00       -0.15361549833274E+00        -4.1801
 P             3             0.00        0.26890275777134E-01         0.7317
 S             5             0.00        0.73031071962126E-01         1.9873
 D             2             0.00        0.65181863967558E+00        17.7369
 S             6             0.00        0.74772136652973E+00        20.3465
 P             4             0.00        0.14649464495668E+01        39.8632
 F             1             0.00        0.15802737540164E+01        43.0014
 S             7             0.00        0.50359116151598E+01       137.0341
 D             3             0.00        0.57590440531346E+01       156.7116
 P             5             0.00        0.96977542738600E+01       263.8893
 S             8             0.00        0.35092580263445E+02       954.9177
 P             6             0.00        0.75654916221662E+02      2058.6750
 S             9             0.00        0.61215643227098E+03     16657.6241


 All Electron Calculation, thus no Orbital Energies of the Core Orbitals are calculated



 =======================================
 M U L L I K E N   P O P U L A T I O N S
 =======================================
  
 The survey below gives for each atom:
 a) the total charge (Z minus electrons)
 b) the net spin polarization (nr of electrons spin-A minus spin-B)
 c) for each spin the atomic electron valence density (integrated) per L-value.

 Atom              Charge    Spin density          S         P         D         F
 ----              ------    ------------       ------    ------    ------    ------
 1 Ni             -0.0000                       7.0000   12.0000    9.0000    0.0000

 Populations of individual BAS functions
 ----------------------------------------
 1 Ni           0.4274  1.5125  1.9067 -0.1734  0.6986  0.6986  0.6986  1.2799  1.2799  1.2799
                1.3429  0.9776  0.5196  0.5196  0.5196  1.1209  1.1209  1.1209  0.3796  0.3796
                0.3796  0.3104  0.4656  0.4656  0.3104  0.4656  0.3104  0.6198  0.9296  0.9296
                0.6198  0.9296  0.6198  0.2698  0.4048  0.4048  0.2698  0.4048  0.2698  0.2348
                0.5266  0.2448  0.0014  0.0014  0.0014  0.0000  0.0000  0.0000  0.0000  0.0000
                0.0000  0.0000  0.0000  0.0000  0.0000

 Gross Charges per Atom (Z minus electrons)
 ==========================================
            -0.0000
 Net Total: -0.00000000



 =======================================================================
 Electrostatic potential at the Nuclei due to electrons and other nuclei
 =======================================================================
  
         Atom                  Potential
         ----                  ---------
     1)   Ni                128.74099158
 
 
 ========================
 No memory problems found
 ========================
 
 Maximum number of active allocate calls:         447
 
 *******************************************************************************

                             A D F   E X I T
 NORMAL TERMINATION



 =================
 Timing Statistics
 =================
  
 Total Used :                     CPU=        1.38      System=        0.04     Elapsed=        1.42

 Calls  Section                     ( Mean, Percentage )
 ---------------------------------------------------------------------------------------------------
     3  ><      ................      0.00    0.14             0.00    0.00             0.00    0.09
     1  INIT    ................      0.01    1.01             0.02   50.00             0.03    2.44
     1  GEOMET  ................      0.01    0.72             0.00    5.26             0.01    0.89
     1  INPUTA  ................      0.00    0.07             0.00    2.63             0.00    0.19
     1  MAINSY  ................      0.01    0.51             0.00    7.89             0.01    0.65
     1  SYMFIT  ................      0.00    0.07             0.00    0.00             0.00    0.08
     1  CORORT  ................      0.00    0.00             0.00    0.00             0.00    0.03
     1  SYMORB  ................      0.00    0.07             0.00    0.00             0.00    0.07
     1  CLSMAT  ................      0.01    0.65             0.00    0.00             0.01    0.64
     1  ORTHON  ................      0.00    0.14             0.00    2.63             0.00    0.19
     1  GENPT   ................      0.03    2.39             0.00    0.00             0.03    2.31
     1  PTBAS   ................      0.01    0.43             0.00    0.00             0.01    0.45
    16  FOCKY   ................      0.07   82.04             0.00   15.79             0.07   80.08
    16  FOCKTR  ................      0.00    1.52             0.00    0.00             0.00    1.65
    16  SDIIS   ................      0.00    3.19             0.00    5.26             0.00    3.14
     1  COREPS  ................      0.06    4.34             0.00    0.00             0.06    4.17
     1  POPAN   ................      0.01    0.58             0.00    2.63             0.01    0.64
     1  DEBYE   ................      0.00    0.07             0.00    0.00             0.00    0.08
     1  EXIT PROCEDURE .........      0.03    2.03             0.00    7.90             0.03    2.21


 Currently Open Files (EXIT00)
 ====================

 Unit    Access Format  Status   Type       Ident (file)
 -------------------------------------------------------
   3      SEQ    FORM   TRANSP  NORMAL      LOGFILE
                                          ( logfile )


 Buffered I/O statistics
 =======================
 Memory available:                     67108864
 Number of records fitting in memory:     16131
 Input :   0.1% of                        31740  *4k bytes
 Output:  11.9% of                         1576  *4k bytes
 Records from serial files evicted:           0
                    others evicted:           0
 Hash table lookups:      82435 with          0 conflicts (  0.00%)

 ***************************************************************************************************
 (LOGFILE)
 <May02-2019> <16:25:52>  ADF development version  RunTime: May02-2019 16:25:52  Nodes: 1  Procs: 1
 <May02-2019> <16:25:52>  Nickel (TZ2P)
 <May02-2019> <16:25:52>  RunType   : CREATE
 <May02-2019> <16:25:52>  Net Charge: 0 (Nuclei minus Electrons)
 <May02-2019> <16:25:52>  Symmetry  : ATOM
  Coordinates
    Atom         X           Y           Z   (Angstrom)
    1.Ni        0.000000    0.000000    0.000000
 <May02-2019> <16:25:52>  >>>> CORORT
 <May02-2019> <16:25:52>  >>>> CLSMAT
 <May02-2019> <16:25:52>  >>>> ORTHON
 <May02-2019> <16:25:52>  >>>> GENPT
 <May02-2019> <16:25:52>  Block Length= 102
 <May02-2019> <16:25:52>  >>>> PTBAS
 <May02-2019> <16:25:52>  >>>> CYCLE
 <May02-2019> <16:25:52>              |Error|         MaxErr       Wt(A-DIIS)
 <May02-2019> <16:25:52>      1      0.00000000      0.00000000
 <May02-2019> <16:25:52>      2     82.19883474     20.43120566    100.0
 <May02-2019> <16:25:52>      3     31.27108347      9.04485274    100.0
 <May02-2019> <16:25:52>      4      6.64740716      1.68718219    100.0
 <May02-2019> <16:25:52>      5     12.98007906      3.40875533    100.0
 <May02-2019> <16:25:52>      6      3.95732205      1.34154127    100.0
 <May02-2019> <16:25:52>      7      3.20420349      0.98987942    100.0
 <May02-2019> <16:25:52>      8      0.29754599      0.08697694     86.8
 <May02-2019> <16:25:53>      9      0.61977106      0.20401681    100.0
 <May02-2019> <16:25:53>     10      0.18510528      0.05979028     59.4
 <May02-2019> <16:25:53>     11      0.02669629      0.00945217      8.5
 <May02-2019> <16:25:53>     12      0.00627842      0.00214057      1.2
 <May02-2019> <16:25:53>     13      0.00014921      0.00005131      0.0
 <May02-2019> <16:25:53>     14      0.00000005      0.00000002      0.0
 <May02-2019> <16:25:53>     15      0.00000000      0.00000000      0.0
 <May02-2019> <16:25:53>  SCF converged
 <May02-2019> <16:25:53>     16      0.00000000      0.00000000      0.0
 <May02-2019> <16:25:53>  >>>> POPAN
 <May02-2019> <16:25:53>  >>>> DEBYE
 <May02-2019> <16:25:53>  NORMAL TERMINATION
 <May02-2019> <16:25:53>  END


 Parallel Execution: Process Information
 ==============================================================================
 Rank   Node Name                              NodeID   MyNodeRank  NodeMaster
    0   BAZIS-cn022                               0          0          0
    1   BAZIS-cn022                               0          1         -1
    2   BAZIS-cn022                               0          2         -1
    3   BAZIS-cn022                               0          3         -1
    4   BAZIS-cn022                               0          4         -1
    5   BAZIS-cn022                               0          5         -1
    6   BAZIS-cn022                               0          6         -1
    7   BAZIS-cn022                               0          7         -1
    8   BAZIS-cn022                               0          8         -1
    9   BAZIS-cn022                               0          9         -1
   10   BAZIS-cn022                               0         10         -1
   11   BAZIS-cn022                               0         11         -1
 ==============================================================================


May use up to 30771MB of RAM as shared memory on node 0


XC
  GGA BLYP
END

SCF
  iterations 250
END

SYMMETRY ATOM
CHARGE 0

ZLMFIT
  Quality normal
END

BECKEGRID
  Quality good
End

OCCUPATIONS
 S 6
 P 12
 D 10
END

ATOMS
Ni       0.00000000       0.00000000       0.00000000
END

Fragments
Ni t21.Ni
End
end input

 *******************************************************************************
 *                                                                             *
 *  -------------------------------------                                      *
 *   Amsterdam Density Functional  (ADF)         development version           *
 *  -------------------------------------                                      *
 *                                               r61132 2017-09-08             *
 *                                                                             *
 *                                                                             *
 *                              =================                              *
 *                              |               |                              *
 *                              |     A D F     |                              *
 *                              |               |                              *
 *                              =================                              *
 *                                                                             *
 *                                                                             *
 *   Online information and documentation:  https://www.scm.com/support/       *
 *   E-mail:  support@scm.com   info@scm.com                                   *
 *                                                                             *
 *   Scientific publications using ADF results must be properly referenced     *
 *   See the User Manuals (or the web site) for recommended citations          *
 *   The terms and conditions of the End User License Agreement apply to       *
 *   the use of ADF, https://www.scm.com/license-terms/                        *
 *                                                                             *
 **********************  x86_64_linux_intel / intelmpi  ************************
 
 Licensed to: VU/FEW (+ SARA) / ALGEMEEN / Amsterdam / THE NETHERLANDS
 SCM User ID: u7668
  
 ADF development version  RunTime: May02-2019 16:25:53  Nodes: 1  Procs: 12

 Temporary files are created in /local/datastore0/tcst25/188698/kid_0.V3cswH


Communication costs MPI_COMM_WORLD:      3.892 usec per message,   0.0165 usec per 8-byte item
Communication costs for intra-node:      3.888 usec per message,   0.0163 usec per 8-byte item

 *** (NO TITLE) ***



 ===========================
 A T T A C H E D   F I L E S
 ===========================
  



 ===============================
 M O D E L   P A R A M E T E R S
 ===============================
  
 DENSITY FUNCTIONAL POTENTIAL (scf)
    LDA:                               Exchange only                           == Not Default ==
    Gradient Corrections:              Becke88 LYP                             == Not Default ==

 SPIN  (restricted / unrestr.)
    Molecule:                          Restricted                               
    Fragments:                         Restricted                               

 OTHER ASPECTS
    Relativistic Corrections:          ---                                      

    Nuclear Charge Density Model:      Point Charge Nuclei                      
    Core Treatment:                    Frozen Orbital(s)                        

    Hyperfine or Zeeman Interaction:   ---                                      


 Fragment File(s)
 ----------------
 Ni:
         file : t21.Ni
         jobid: ADF development version  RunTime: May02-2019 16:25:52  Nodes: 1  Procs: 1
         title: Nickel (TZ2P)



                                        ************************************
                                        *  R U N   T Y P E : SINGLE POINT  *
                                        ************************************
  



 ===============
 G E O M E T R Y  ***  Single Atom  ***
 ===============
  

 ATOMS
 =====                            X Y Z                    CHARGE
                                (Angstrom)             Nucl     +Core       At.Mass
                       --------------------------    ----------------       -------
    1  Ni              0.0000    0.0000    0.0000     28.00     28.00       57.9353


 FRAGMENTS
 =========                                     Atoms in this Fragment     Cart. coord.s (Angstrom)
                                               -------------------------------------------------------
    1  Ni                                                1  Ni           0.0000    0.0000    0.0000



 =====================================
 S Y M M E T R Y ,   E L E C T R O N S
 =====================================
  
 Symmetry: ATOM

 Irreducible Representations, including subspecies
 -------------------------------------------------
 S
 P:x  P:y  P:z
 D:z2  D:x2-y2  D:xy  D:xz  D:yz
 F:z3  F:z  F:xyz  F:z2x  F:z2y  F:x  F:y


 Configuration of Valence Electrons
 ==================================

          Occupation Numbers
          -------------------------------------------------
 S        3*2
 P        2*6
 D        10
 F        0
          -------------------------------------------------

 Total:   28

 Net Charge: 0 (Nuclei minus Electrons)

 Preset values for MO occupations will be applied through SCF cycle no. 1000000
 Thereafter, the program will assign electrons to MOs that are spatially
 similar to the occupied MOs in a "reference" cycle ("KeepOrbitals").
 The reference cycle is always the PREVIOUS cycle: it will evolve with
 the SCF procedure.
1
 ***************************************************************************************************



                                      ****************************************
                                      *  B U I L D : (Fragments, Functions)  *
                                      ****************************************
  



 =======
 S F O s  ***  (Symmetrized Fragment Orbitals)  ***
 =======
  
 SFOs are linear combinations of (valence) Fragment Orbitals (FOs), such that the SFOs transform as the
 irreducible representations of the (molecular) symmetry group. Each SFO is therefore characterized by
 an irrep of the molecule and by a few (or only one) generating FOs.
 The SFOs constitute a symmetry-adapted basis for the Fock matrix. The MO eigenvector coefficients in
 this basis provide a direct interpretation of the MOs in terms of Frontier Orbital Theory.

 The SFOs are combined with auxiliary Core Functions (CFs) to ensure orthogonalization on the (frozen)
 Core Orbitals (COs). The Core-orthogonalized SFOs (CSFOs) constitute the true Fock basis.

 The FOs, and hence also the (C)SFOs are combinations of the elementary basis functions (BAS). The basis
 functions that participate in the description of the SFOs depend on the irrep. The indices of the
 involved functions are printed below for each irrep.
 (The complete list of primitive basis functions is printed in another section)

 Total nr. of (C)SFOs (summation over all irreps) :    49

 NOTE: a (C)SFO that is defined as a combination of more than one FO is usually NOT normalized.



                                       === S ===
 Nr. of SFOs :    9
 Cartesian basis functions that participate in this irrep (total number =     9) :
      1     2     3     4    11    12    40    41    42

    SFO  (index         Fragment          Generating    Expansion in Fragment Orbitals
  indx  incl.CFs)   Occup   Orb.Energy   FragmentType  Coeff.   Orbital     on Fragment
 --------------------------------------------------------------------------------------
     1       1      2.000    -298.373 au  Ni            1.00      1 S               1
                        (   -8119.141 eV)
     2       2      2.000     -35.163 au  Ni            1.00      2 S               1
                        (    -956.828 eV)
     3       3      2.000      -3.754 au  Ni            1.00      3 S               1
                        (    -102.159 eV)
     4       4      1.000      -0.154 au  Ni            1.00      4 S               1
                        (      -4.180 eV)
     5       5       --         0.073 au  Ni            1.00      5 S               1
                        (       1.987 eV)
     6       6       --         0.748 au  Ni            1.00      6 S               1
                        (      20.347 eV)
     7       7       --         5.036 au  Ni            1.00      7 S               1
                        (     137.034 eV)
     8       8       --        35.093 au  Ni            1.00      8 S               1
                        (     954.918 eV)
     9       9       --       612.156 au  Ni            1.00      9 S               1
                        (   16657.624 eV)



                                       === P:x ===
 Nr. of SFOs :    6
 Cartesian basis functions that participate in this irrep (total number =     6) :
      5     8    13    16    19    43

    SFO  (index         Fragment          Generating    Expansion in Fragment Orbitals
  indx  incl.CFs)   Occup   Orb.Energy   FragmentType  Coeff.   Orbital     on Fragment
 --------------------------------------------------------------------------------------
     1       1      2.000     -30.687 au  Ni            1.00      1 P:x             1
                        (    -835.035 eV)
     2       2      2.000      -2.392 au  Ni            1.00      2 P:x             1
                        (     -65.093 eV)
     3       3       --         0.027 au  Ni            1.00      3 P:x             1
                        (       0.732 eV)
     4       4       --         1.465 au  Ni            1.00      4 P:x             1
                        (      39.863 eV)
     5       5       --         9.698 au  Ni            1.00      5 P:x             1
                        (     263.889 eV)
     6       6       --        75.655 au  Ni            1.00      6 P:x             1
                        (    2058.675 eV)



                                       === P:y ===
 Nr. of SFOs :    6
 Cartesian basis functions that participate in this irrep (total number =     6) :
      6     9    14    17    20    44

    SFO  (index         Fragment          Generating    Expansion in Fragment Orbitals
  indx  incl.CFs)   Occup   Orb.Energy   FragmentType  Coeff.   Orbital     on Fragment
 --------------------------------------------------------------------------------------
     1       1      2.000     -30.687 au  Ni            1.00      1 P:y             1
                        (    -835.035 eV)
     2       2      2.000      -2.392 au  Ni            1.00      2 P:y             1
                        (     -65.093 eV)
     3       3       --         0.027 au  Ni            1.00      3 P:y             1
                        (       0.732 eV)
     4       4       --         1.465 au  Ni            1.00      4 P:y             1
                        (      39.863 eV)
     5       5       --         9.698 au  Ni            1.00      5 P:y             1
                        (     263.889 eV)
     6       6       --        75.655 au  Ni            1.00      6 P:y             1
                        (    2058.675 eV)



                                       === P:z ===
 Nr. of SFOs :    6
 Cartesian basis functions that participate in this irrep (total number =     6) :
      7    10    15    18    21    45

    SFO  (index         Fragment          Generating    Expansion in Fragment Orbitals
  indx  incl.CFs)   Occup   Orb.Energy   FragmentType  Coeff.   Orbital     on Fragment
 --------------------------------------------------------------------------------------
     1       1      2.000     -30.687 au  Ni            1.00      1 P:z             1
                        (    -835.035 eV)
     2       2      2.000      -2.392 au  Ni            1.00      2 P:z             1
                        (     -65.093 eV)
     3       3       --         0.027 au  Ni            1.00      3 P:z             1
                        (       0.732 eV)
     4       4       --         1.465 au  Ni            1.00      4 P:z             1
                        (      39.863 eV)
     5       5       --         9.698 au  Ni            1.00      5 P:z             1
                        (     263.889 eV)
     6       6       --        75.655 au  Ni            1.00      6 P:z             1
                        (    2058.675 eV)



                                       === D:z2 ===
 Nr. of SFOs :    3
 Cartesian basis functions that participate in this irrep (total number =     9) :
     22    25    27    28    31    33    34    37    39

    SFO  (index         Fragment          Generating    Expansion in Fragment Orbitals
  indx  incl.CFs)   Occup   Orb.Energy   FragmentType  Coeff.   Orbital     on Fragment
 --------------------------------------------------------------------------------------
     1       1      1.800      -0.157 au  Ni            1.00      1 D:z2            1
                        (      -4.260 eV)
     2       2       --         0.652 au  Ni            1.00      2 D:z2            1
                        (      17.737 eV)
     3       3       --         5.759 au  Ni            1.00      3 D:z2            1
                        (     156.712 eV)



                                       === D:x2-y2 ===
 Nr. of SFOs :    3
 Cartesian basis functions that participate in this irrep (total number =     6) :
     22    25    28    31    34    37

    SFO  (index         Fragment          Generating    Expansion in Fragment Orbitals
  indx  incl.CFs)   Occup   Orb.Energy   FragmentType  Coeff.   Orbital     on Fragment
 --------------------------------------------------------------------------------------
     1       1      1.800      -0.157 au  Ni            1.00      1 D:x2-y2         1
                        (      -4.260 eV)
     2       2       --         0.652 au  Ni            1.00      2 D:x2-y2         1
                        (      17.737 eV)
     3       3       --         5.759 au  Ni            1.00      3 D:x2-y2         1
                        (     156.712 eV)



                                       === D:xy ===
 Nr. of SFOs :    3
 Cartesian basis functions that participate in this irrep (total number =     3) :
     23    29    35

    SFO  (index         Fragment          Generating    Expansion in Fragment Orbitals
  indx  incl.CFs)   Occup   Orb.Energy   FragmentType  Coeff.   Orbital     on Fragment
 --------------------------------------------------------------------------------------
     1       1      1.800      -0.157 au  Ni            1.00      1 D:xy            1
                        (      -4.260 eV)
     2       2       --         0.652 au  Ni            1.00      2 D:xy            1
                        (      17.737 eV)
     3       3       --         5.759 au  Ni            1.00      3 D:xy            1
                        (     156.712 eV)



                                       === D:xz ===
 Nr. of SFOs :    3
 Cartesian basis functions that participate in this irrep (total number =     3) :
     24    30    36

    SFO  (index         Fragment          Generating    Expansion in Fragment Orbitals
  indx  incl.CFs)   Occup   Orb.Energy   FragmentType  Coeff.   Orbital     on Fragment
 --------------------------------------------------------------------------------------
     1       1      1.800      -0.157 au  Ni            1.00      1 D:xz            1
                        (      -4.260 eV)
     2       2       --         0.652 au  Ni            1.00      2 D:xz            1
                        (      17.737 eV)
     3       3       --         5.759 au  Ni            1.00      3 D:xz            1
                        (     156.712 eV)



                                       === D:yz ===
 Nr. of SFOs :    3
 Cartesian basis functions that participate in this irrep (total number =     3) :
     26    32    38

    SFO  (index         Fragment          Generating    Expansion in Fragment Orbitals
  indx  incl.CFs)   Occup   Orb.Energy   FragmentType  Coeff.   Orbital     on Fragment
 --------------------------------------------------------------------------------------
     1       1      1.800      -0.157 au  Ni            1.00      1 D:yz            1
                        (      -4.260 eV)
     2       2       --         0.652 au  Ni            1.00      2 D:yz            1
                        (      17.737 eV)
     3       3       --         5.759 au  Ni            1.00      3 D:yz            1
                        (     156.712 eV)



                                       === F:z3 ===
 Nr. of SFOs :    1
 Cartesian basis functions that participate in this irrep (total number =     3) :
     48    53    55

    SFO  (index         Fragment          Generating    Expansion in Fragment Orbitals
  indx  incl.CFs)   Occup   Orb.Energy   FragmentType  Coeff.   Orbital     on Fragment
 --------------------------------------------------------------------------------------
     1       1       --         1.580 au  Ni            1.00      1 F:z3            1
                        (      43.001 eV)



                                       === F:z ===
 Nr. of SFOs :    1
 Cartesian basis functions that participate in this irrep (total number =     2) :
     48    53

    SFO  (index         Fragment          Generating    Expansion in Fragment Orbitals
  indx  incl.CFs)   Occup   Orb.Energy   FragmentType  Coeff.   Orbital     on Fragment
 --------------------------------------------------------------------------------------
     1       1       --         1.580 au  Ni            1.00      1 F:z             1
                        (      43.001 eV)



                                       === F:xyz ===
 Nr. of SFOs :    1
 Cartesian basis functions that participate in this irrep (total number =     1) :
     50

    SFO  (index         Fragment          Generating    Expansion in Fragment Orbitals
  indx  incl.CFs)   Occup   Orb.Energy   FragmentType  Coeff.   Orbital     on Fragment
 --------------------------------------------------------------------------------------
     1       1       --         1.580 au  Ni            1.00      1 F:xyz           1
                        (      43.001 eV)



                                       === F:z2x ===
 Nr. of SFOs :    1
 Cartesian basis functions that participate in this irrep (total number =     3) :
     46    49    51

    SFO  (index         Fragment          Generating    Expansion in Fragment Orbitals
  indx  incl.CFs)   Occup   Orb.Energy   FragmentType  Coeff.   Orbital     on Fragment
 --------------------------------------------------------------------------------------
     1       1       --         1.580 au  Ni            1.00      1 F:z2x           1
                        (      43.001 eV)



                                       === F:z2y ===
 Nr. of SFOs :    1
 Cartesian basis functions that participate in this irrep (total number =     3) :
     47    52    54

    SFO  (index         Fragment          Generating    Expansion in Fragment Orbitals
  indx  incl.CFs)   Occup   Orb.Energy   FragmentType  Coeff.   Orbital     on Fragment
 --------------------------------------------------------------------------------------
     1       1       --         1.580 au  Ni            1.00      1 F:z2y           1
                        (      43.001 eV)



                                       === F:x ===
 Nr. of SFOs :    1
 Cartesian basis functions that participate in this irrep (total number =     2) :
     46    49

    SFO  (index         Fragment          Generating    Expansion in Fragment Orbitals
  indx  incl.CFs)   Occup   Orb.Energy   FragmentType  Coeff.   Orbital     on Fragment
 --------------------------------------------------------------------------------------
     1       1       --         1.580 au  Ni            1.00      1 F:x             1
                        (      43.001 eV)



                                       === F:y ===
 Nr. of SFOs :    1
 Cartesian basis functions that participate in this irrep (total number =     2) :
     47    52

    SFO  (index         Fragment          Generating    Expansion in Fragment Orbitals
  indx  incl.CFs)   Occup   Orb.Energy   FragmentType  Coeff.   Orbital     on Fragment
 --------------------------------------------------------------------------------------
     1       1       --         1.580 au  Ni            1.00      1 F:y             1
                        (      43.001 eV)



 ================================
 (Slater-type)  F U N C T I O N S  ***  (Basis and Fit)  ***
 ================================
  

 Atom Type    1  (Ni)
 ==============

 Valence Basis Sets:  19
 -----------------------
   1 S   33.000000
   1 S   25.900000
   2 S   10.950000
   2 S    7.150000
   2 P   15.450000
   2 P   10.000000
   3 S    6.600000
   3 S    4.000000
   3 P    6.800000
   3 P    4.500000
   3 P    3.050000
   3 D    7.000000
   3 D    3.350000
   3 D    1.540000
   4 S    2.450000
   4 S    1.480000
   4 S    0.940000
   4 P    1.470000
   4 F    2.300000


 BAS: List of all Elementary Cartesian Basis Functions
 =====================================================

 The numbering in the list below (to the right of the function characteristics) is referred
 to in print-outs of MO eigenvectors and Mulliken populations in the BAS representation
 (as contrasted to the SFO representation).

 Notes:
 1. The functions are characterized by a polynomial prefactor (powers of x,y,z and r) and
    an exponential decay factor alpha.
 2. Since the basis sets are specific for an atom TYPE, the individual functions occur on
    all atoms of that type.
 3. The word 'Core' in the left margin signals that it is a Core Function (CF) : not a
    degree of freedom in the valence set, but only used to ensure orthogonalization of
    the other valence basis functions on the frozen Core Orbitals.


 (power of) X  Y  Z  R     Alpha  on Atom
            ==========     =====     ==========

 Ni                                   1
                                  ---------------------------------------------------------------------------
            0  0  0  0    33.000      1
            0  0  0  0    25.900      2
            0  0  0  1    10.950      3
            0  0  0  1     7.150      4
            1  0  0  0    15.450      5
            0  1  0  0    15.450      6
            0  0  1  0    15.450      7
            1  0  0  0    10.000      8
            0  1  0  0    10.000      9
            0  0  1  0    10.000     10
            0  0  0  2     6.600     11
            0  0  0  2     4.000     12
            1  0  0  1     6.800     13
            0  1  0  1     6.800     14
            0  0  1  1     6.800     15
            1  0  0  1     4.500     16
            0  1  0  1     4.500     17
            0  0  1  1     4.500     18
            1  0  0  1     3.050     19
            0  1  0  1     3.050     20
            0  0  1  1     3.050     21
            2  0  0  0     7.000     22
            1  1  0  0     7.000     23
            1  0  1  0     7.000     24
            0  2  0  0     7.000     25
            0  1  1  0     7.000     26
            0  0  2  0     7.000     27
            2  0  0  0     3.350     28
            1  1  0  0     3.350     29
            1  0  1  0     3.350     30
            0  2  0  0     3.350     31
            0  1  1  0     3.350     32
            0  0  2  0     3.350     33
            2  0  0  0     1.540     34
            1  1  0  0     1.540     35
            1  0  1  0     1.540     36
            0  2  0  0     1.540     37
            0  1  1  0     1.540     38
            0  0  2  0     1.540     39
            0  0  0  3     2.450     40
            0  0  0  3     1.480     41
            0  0  0  3     0.940     42
            1  0  0  2     1.470     43
            0  1  0  2     1.470     44
            0  0  1  2     1.470     45
            3  0  0  0     2.300     46
            2  1  0  0     2.300     47
            2  0  1  0     2.300     48
            1  2  0  0     2.300     49
            1  1  1  0     2.300     50
            1  0  2  0     2.300     51
            0  3  0  0     2.300     52
            0  2  1  0     2.300     53
            0  1  2  0     2.300     54
            0  0  3  0     2.300     55

 Total number of charge fitting functions (nprimf)       170
 Total number of Cartesian basis functions (naos)         55
 Total number of Cartesian core functions  (ncos)          0

1
 ***************************************************************************************************



                                              ***********************
                                              *  T E C H N I C A L  *
                                              ***********************
  



 =============================================================
 P A R A L L E L I Z A T I O N  and  V E C T O R I Z A T I O N
 =============================================================
  
 Nr of parallel processes:                               12
 Maximum vector length in NumInt loops:                 128

 IO buffersize (Mb):                                     64.000000



 =====================
 S C F   U P D A T E S
 =====================
  
 Max. nr. of cycles:                               250
 Convergence criterion:                              0.0000010000
   secondary criterion:                              0.0010000000

 Mix parameter (when DIIS does not apply):           0.2000000000
 Mixed ADIIS+DIIS will be used
    Max number of expansion vectors:                10
    Pure ADIIS when Max([F,P]) is above              0.1000000000
    Pure DIIS when Max([F,P]) is below               0.0010000000
 Automatic ElectronSmearing (in case of problematic SCF convergence) disabled



 =================
 P R E C I S I O N  ***  (General: NumInt, NeglectFunctionTails, ...)  ***
 =================
  

 NumInt:           Target precision:                 6.0000000000
 -------           Initial precision:                6.0000000000
                   Min. precision (optimization):    6.0000000000

 Neglect Functions:          Basis functions:        0.1000000000E-07
 ------------------          Fit functions:          0.1000000000E-07



 ===========================
 L I N E A R   S C A L I N G
 ===========================
  

 Cut-off radii density fit:                        0.1000000000E-09
 Overlap cut-off criterion AO matrix elements:     0.1000000000E-07
 Cut-offs for Coulomb potential and fitted density:0.1000000000E-09
 Cut-off criterion for Coulomb multipole terms:    0.1000000000E-09
 Progressive Convergence parameter:                 0.000000000    
1
 ***************************************************************************************************



                                            ***************************
                                            *  C O M P U T A T I O N  *
                                            ***************************
  

 Number of elements of the density matrix on this node (used, total):      1540      1540



 ===========================================
 Numerical Integration : Fuzzy Cells (Becke)
 ===========================================
  
 Becke grid quality: GOOD           
  
 Lebedev angular grid order:             min:  11 max:  31
 Nr. of radial points:                   min:  87 max:  87

 Total nr. of points:         87
 Nr. of blocks:                1
 Block length:                87
 Nr. of dummy points:          0


 Test of Precision of the Numerical Integration Grid
 ===================================================

 Integral of the Total Core Density:                   0.00000000000000



 ========================
 Density Fitting (zlmFit)
 ========================
  
 ZlmFit Fit Quality: NORMAL         
  
 Max L-expansion:                        min:   7 max:   7
 Nr. of radial interpolation points:     min:  72 max:  72



 =====
 S C F  ***  ScaSCF  ***
 =====
  
 Initial density matrix is calculated as sum of fragments

 CYCLE    1
 Orbital Data from active fragment used
 SCF Error: norm([F,P])=      0.017571913844, max([F,P])=      0.013000925008
 orbitals (Q,E):
 ---------------
 S :1...9            ( 2.00  -298.3851)  ( 2.00   -35.1723)  ( 2.00    -3.7574)  ( 0.00    -0.1547)
                     ( 0.00     0.0724)  ( 0.00     0.7464)  ( 0.00     5.0333)  ( 0.00    35.0845)
                     ( 0.00   612.1513)
 P :1...6            ( 6.00   -30.6953)  ( 6.00    -2.3951)  ( 0.00     0.0259)  ( 0.00     1.4631)
                     ( 0.00     9.6938)  ( 0.00    75.6507)
 D :1...3            (10.00    -0.1594)  ( 0.00     0.6502)  ( 0.00     5.7545)
 F :1...1            ( 0.00     1.5788)

 CYCLE    2
  SDIIS (wt  0.000):  0.9944  0.0056
 A-DIIS (wt  1.000):  0.9879  0.0121
  DIIS coefficients:  0.9879  0.0121
 SCF Error: norm([F,P])=      1.240564272342, max([F,P])=      0.395781691370
 orbitals (Q,E):
 ---------------
 S :1...4            ( 2.00  -298.3743)  ( 2.00   -35.1618)  ( 2.00    -3.7501)  ( 0.00    -0.1534)
 P :1...3            ( 6.00   -30.6847)  ( 6.00    -2.3879)  ( 0.00     0.0270)
 D :1...2            (10.00    -0.1534)  ( 0.00     0.6529)
 F :1...1            ( 0.00     1.5812)

 CYCLE    3
  SDIIS (wt  0.000):  1.0033  0.1628 -0.1661
 A-DIIS (wt  1.000):  0.9873  0.0000  0.0127
  DIIS coefficients:  0.9873  0.0000  0.0127
 SCF Error: norm([F,P])=      1.174063227066, max([F,P])=      0.377570615261
 orbitals (Q,E):
 ---------------
 S :1...4            ( 2.00  -298.3742)  ( 2.00   -35.1617)  ( 2.00    -3.7499)  ( 0.00    -0.1533)
 P :1...3            ( 6.00   -30.6846)  ( 6.00    -2.3878)  ( 0.00     0.0271)
 D :1...2            (10.00    -0.1533)  ( 0.00     0.6530)
 F :1...1            ( 0.00     1.5813)

 CYCLE    4
  SDIIS (wt  0.000): -2.0000  3.0000
 A-DIIS (wt  1.000):  0.0000  1.0000
  DIIS coefficients:  0.0000  1.0000
 SCF Error: norm([F,P])=      1.173276535587, max([F,P])=      0.377325699816
 orbitals (Q,E):
 ---------------
 S :1...4            ( 2.00  -297.5255)  ( 2.00   -34.3341)  ( 2.00    -3.1708)  ( 0.00    -0.0652)
 P :1...3            ( 6.00   -29.8500)  ( 6.00    -1.8272)  ( 0.00     0.1161)
 D :1...2            (10.00     0.2574)  ( 0.00     0.9249)
 F :1...1            ( 0.00     1.7751)

 CYCLE    5
  SDIIS (wt  0.000): -2.0000  2.8438  0.1562
 A-DIIS (wt  1.000):  0.0000  0.8890  0.1110
  DIIS coefficients:  0.0000  0.8890  0.1110
 SCF Error: norm([F,P])=      5.449605482326, max([F,P])=      1.820850211739
 orbitals (Q,E):
 ---------------
 S :1...4            ( 2.00  -297.9384)  ( 2.00   -34.7193)  ( 2.00    -3.4050)  ( 0.00    -0.0830)
 P :1...3            ( 6.00   -30.2412)  ( 6.00    -2.0516)  ( 0.00     0.0957)
 D :1...2            (10.00     0.1171)  ( 0.00     0.8094)
 F :1...1            ( 0.00     1.7197)

 CYCLE    6
  SDIIS (wt  0.000):  2.4972 -2.0000 -0.0893  0.5920
 A-DIIS (wt  1.000):  0.0000  0.6470  0.0000  0.3530
  DIIS coefficients:  0.0000  0.6470  0.0000  0.3530
 SCF Error: norm([F,P])=      2.082779673391, max([F,P])=      0.658287806413
 orbitals (Q,E):
 ---------------
 S :1...4            ( 2.00  -298.1612)  ( 2.00   -34.9287)  ( 2.00    -3.5299)  ( 0.00    -0.0935)
 P :1...3            ( 6.00   -30.4537)  ( 6.00    -2.1716)  ( 0.00     0.0847)
 D :1...2            (10.00     0.0316)  ( 0.00     0.7585)
 F :1...1            ( 0.00     1.6920)

 CYCLE    7
  SDIIS (wt  0.000): -0.1228  0.2855  0.0103 -0.0856  0.9126
 A-DIIS (wt  1.000):  0.0000  0.1248  0.0000  0.0000  0.8752
  DIIS coefficients:  0.0000  0.1248  0.0000  0.0000  0.8752
 SCF Error: norm([F,P])=      0.334365497938, max([F,P])=      0.104691848450
 orbitals (Q,E):
 ---------------
 S :1...4            ( 2.00  -298.2661)  ( 2.00   -35.0352)  ( 2.00    -3.6011)  ( 0.00    -0.1008)
 P :1...3            ( 6.00   -30.5606)  ( 6.00    -2.2404)  ( 0.00     0.0775)
 D :1...2            (10.00    -0.0210)  ( 0.00     0.7319)
 F :1...1            ( 0.00     1.6744)

 CYCLE    8
  SDIIS (wt  0.000):  0.1248 -0.0226  0.1151  0.5241  0.2586
 A-DIIS (wt  1.000):  0.0000  0.0000  0.0000  0.6337  0.3663
  DIIS coefficients:  0.0000  0.0000  0.0000  0.6337  0.3663
 SCF Error: norm([F,P])=      0.537078242202, max([F,P])=      0.155388674138
 orbitals (Q,E):
 ---------------
 S :1...4            ( 2.00  -298.1985)  ( 2.00   -34.9746)  ( 2.00    -3.5674)  ( 0.00    -0.0981)
 P :1...3            ( 6.00   -30.4986)  ( 6.00    -2.2078)  ( 0.00     0.0801)
 D :1...2            (10.00     0.0037)  ( 0.00     0.7437)
 F :1...1            ( 0.00     1.6812)

 CYCLE    9
  SDIIS (wt  0.725):  0.2531 -0.2610  0.0014 -0.0192  0.2160 -0.0947  0.9045
 A-DIIS (wt  0.275):  0.0000  0.0000  0.0000  0.0000  0.1397  0.0000  0.8603
  DIIS coefficients:  0.1835 -0.1893  0.0010 -0.0139  0.1950 -0.0687  0.8923
 SCF Error: norm([F,P])=      0.091233257949, max([F,P])=      0.028200921876
 orbitals (Q,E):
 ---------------
 S :1...4            ( 2.00  -298.1849)  ( 2.00   -34.9597)  ( 2.00    -3.5566)  ( 0.00    -0.0970)
 P :1...3            ( 6.00   -30.4838)  ( 6.00    -2.1974)  ( 0.00     0.0812)
 D :1...2            (10.00     0.0117)  ( 0.00     0.7478)
 F :1...1            ( 0.00     1.6841)

 CYCLE   10
  SDIIS (wt  0.906):  0.0021  0.0051 -0.0357  0.0446  0.9839
 A-DIIS (wt  0.094):  0.0000  0.0000  0.0000  0.0000  1.0000
  DIIS coefficients:  0.0019  0.0046 -0.0323  0.0404  0.9854
 SCF Error: norm([F,P])=      0.034909442772, max([F,P])=      0.010343267653
 orbitals (Q,E):
 ---------------
 S :1...4            ( 2.00  -298.1918)  ( 2.00   -34.9662)  ( 2.00    -3.5605)  ( 0.00    -0.0974)
 P :1...3            ( 6.00   -30.4904)  ( 6.00    -2.2012)  ( 0.00     0.0809)
 D :1...2            (10.00     0.0089)  ( 0.00     0.7463)
 F :1...1            ( 0.00     1.6833)

 CYCLE   11
  SDIIS (wt  0.964): -0.0839  0.0840 -0.0008  0.0095 -0.0167  1.0079
 A-DIIS (wt  0.036):  0.0000  0.0000  0.0000  0.0000  0.0000  1.0000
  DIIS coefficients: -0.0809  0.0810 -0.0008  0.0091 -0.0161  1.0076
 SCF Error: norm([F,P])=      0.015357277310, max([F,P])=      0.004532225044
 orbitals (Q,E):
 ---------------
 S :1...4            ( 2.00  -298.1894)  ( 2.00   -34.9639)  ( 2.00    -3.5591)  ( 0.00    -0.0972)
 P :1...3            ( 6.00   -30.4881)  ( 6.00    -2.1999)  ( 0.00     0.0810)
 D :1...2            (10.00     0.0099)  ( 0.00     0.7468)
 F :1...1            ( 0.00     1.6836)

 CYCLE   12
  SDIIS (wt  1.000): -0.0004  0.0001 -0.0009  0.0139  0.0615  0.9258
  DIIS coefficients: -0.0004  0.0001 -0.0009  0.0139  0.0615  0.9258
 SCF Error: norm([F,P])=      0.002137556991, max([F,P])=      0.000631284358
 orbitals (Q,E):
 ---------------
 S :1...4            ( 2.00  -298.1897)  ( 2.00   -34.9642)  ( 2.00    -3.5593)  ( 0.00    -0.0973)
 P :1...3            ( 6.00   -30.4884)  ( 6.00    -2.2000)  ( 0.00     0.0810)
 D :1...2            (10.00     0.0097)  ( 0.00     0.7468)
 F :1...1            ( 0.00     1.6835)

 CYCLE   13
  SDIIS (wt  1.000):  0.0000  0.0000 -0.0002  0.0004  0.0016 -0.0003 -0.0015 -0.0324  0.3180  0.7143
  DIIS coefficients:  0.0000  0.0000 -0.0002  0.0004  0.0016 -0.0003 -0.0015 -0.0324  0.3180  0.7143
 SCF Error: norm([F,P])=      0.000039537711, max([F,P])=      0.000011666559
 orbitals (Q,E):
 ---------------
 S :1...4            ( 2.00  -298.1897)  ( 2.00   -34.9642)  ( 2.00    -3.5593)  ( 0.00    -0.0973)
 P :1...3            ( 6.00   -30.4884)  ( 6.00    -2.2000)  ( 0.00     0.0810)
 D :1...2            (10.00     0.0097)  ( 0.00     0.7468)
 F :1...1            ( 0.00     1.6835)

 CYCLE   14
  SDIIS (wt  1.000):  0.0000 -0.0000 -0.0006 -0.0038 -0.0169  0.0175  1.0037
  DIIS coefficients:  0.0000 -0.0000 -0.0006 -0.0038 -0.0169  0.0175  1.0037
 SCF Error: norm([F,P])=      0.000000666136, max([F,P])=      0.000000217342
 orbitals (Q,E):
 ---------------
 S :1...4            ( 2.00  -298.1897)  ( 2.00   -34.9642)  ( 2.00    -3.5593)  ( 0.00    -0.0973)
 P :1...3            ( 6.00   -30.4884)  ( 6.00    -2.2000)  ( 0.00     0.0810)
 D :1...2            (10.00     0.0097)  ( 0.00     0.7468)
 F :1...1            ( 0.00     1.6835)

 SCF CONVERGED

 CYCLE   15
1
 ***************************************************************************************************



                                                *******************
                                                *  R E S U L T S  *
                                                *******************
  
 *** Setting up for NEW gradients in Focky
 *** Using FIT density in Focky

 Orbital Energies, per Irrep and Spin:
 ======================================
                        Occup              E (au)              E (eV)       Diff (eV) with prev. cycle
                        -----      --------------------        ------       --------------------------
 S
               1        2.000     -0.29818966685106E+03     -8114.154              -1.54E-08
               2        2.000     -0.34964189292995E+02      -951.424              -7.52E-09
               3        2.000     -0.35592748007081E+01       -96.853              -1.50E-09
               4        0.000     -0.97258617900385E-01        -2.647
               5        0.000      0.11038773965703E+00         3.004
               6        0.000      0.82939262446359E+00        22.569
               7        0.000      0.51917171125045E+01       141.274
               8        0.000      0.35278042074665E+02       959.964
               9        0.000      0.61234660419713E+03     16662.799
 P
               1        6.000     -0.30488373297724E+02      -829.631              -8.54E-09
               2        6.000     -0.22000322933338E+01       -59.866              -1.40E-09
               3        0.000      0.80958716926531E-01         2.203
               4        0.000      0.15885448089360E+01        43.227
               5        0.000      0.98734226201867E+01       268.669
               6        0.000      0.75848161876772E+02      2063.933
 D
               1       10.000      0.97309461282051E-02         0.265              -3.44E-10
               2        0.000      0.74677039020805E+00        20.321
               3        0.000      0.59343083717237E+01       161.481
 F
               1        0.000      0.16835193710429E+01        45.811
  
 HOMO :        1 D                 0.97309461282051E-02
 LUMO :        4 S                -0.97258617900385E-01
  


 Orbital Energies, all Irreps
 ========================================

 Irrep        no.  (spin)   Occup              E (au)                E (eV)
 ---------------------------------------------------------------------------
 S             1             2.00       -0.29818966685106E+03     -8114.1537
 S             2             2.00       -0.34964189292995E+02      -951.4240
 P             1             6.00       -0.30488373297724E+02      -829.6308
 S             3             2.00       -0.35592748007081E+01       -96.8528
 P             2             6.00       -0.22000322933338E+01       -59.8659
 S             4             0.00       -0.97258617900385E-01        -2.6465
 D             1            10.00        0.97309461282051E-02         0.2648
 P             3             0.00        0.80958716926531E-01         2.2030
 S             5             0.00        0.11038773965703E+00         3.0038
 D             2             0.00        0.74677039020805E+00        20.3207
 S             6             0.00        0.82939262446359E+00        22.5689
 P             4             0.00        0.15885448089360E+01        43.2265
 F             1             0.00        0.16835193710429E+01        45.8109
 S             7             0.00        0.51917171125045E+01       141.2738
 D             3             0.00        0.59343083717237E+01       161.4807
 P             5             0.00        0.98734226201867E+01       268.6695
 S             8             0.00        0.35278042074665E+02       959.9644
 P             6             0.00        0.75848161876772E+02      2063.9335
 S             9             0.00        0.61234660419713E+03     16662.7989


 All Electron Calculation, thus no Orbital Energies of the Core Orbitals are calculated


 Fit test: (difference of exact and fit density, squared integrated, result summed over spins)
         Sum-of-Fragments:                             0.00000001871015
         Orthogonalized Fragments:                     0.00028335534808
         SCF:                                          0.00028307043790



 ==========================
 Electron Density at Nuclei
 ==========================
  
 The electron density is calculated at points on a small sphere around the center of a nucleus.
 The printed electron density is the average electron density on these points.
 The radius of the sphere is the printed approximate finite nuclear radius.

         Atom        Nuclear Radius (Angstrom)             Electron Density (a.u.)
         ----        -------------------------             -----------------------
     1)   Ni                0.0000491359                            14828.72814



 =======================================
 M U L L I K E N   P O P U L A T I O N S
 =======================================
  
 The survey below gives for each atom:
 a) the total charge (Z minus electrons)
 b) the net spin polarization (nr of electrons spin-A minus spin-B)
 c) for each spin the atomic electron valence density (integrated) per L-value.

 Atom              Charge    Spin density          S         P         D         F
 ----              ------    ------------       ------    ------    ------    ------
 1 Ni             -0.0000                       6.0000   12.0000   10.0000    0.0000

 Populations of individual BAS functions
 ----------------------------------------
 1 Ni           0.4276  1.5125  1.9073 -0.1610  0.6983  0.6983  0.6983  1.2801  1.2801  1.2801
                1.3091  0.9900  0.5229  0.5229  0.5229  1.0903  1.0903  1.0903  0.4062  0.4062
                0.4062  0.3196  0.4793  0.4793  0.3196  0.4793  0.3196  0.6236  0.9354  0.9354
                0.6236  0.9354  0.6236  0.3902  0.5853  0.5853  0.3902  0.5853  0.3902  0.0177
[...]
 occup:     2.00   2.00   0.00   0.00   0.00   0.00
 CF+SFO     ----   ----   ----   ----   ----   ----
 ------
      1:  100.00   0.00   0.00   0.00   0.00   0.00
      2:    0.00 100.00   0.00   0.00   0.00   0.00
      3:    0.00   0.00  99.95   0.05   0.00   0.00
      4:    0.00   0.00   0.05  99.95   0.00   0.00
      5:    0.00   0.00   0.00   0.00 100.00   0.00
      6:    0.00   0.00   0.00   0.00   0.00 100.00


 Summation over all MOs, multiplied by occupation: Total SFO Gross Populations in this Irrep
 ===========================================================================================

     2.00    2.00    0.00    0.00    0.00    0.00


                                       === P:y ===


 SFO contributions (%) per orbital
 (multiplication by the orbital occupation yields the SFO Gross Populations)

 Orb.:        1      2      3      4      5      6
 occup:     2.00   2.00   0.00   0.00   0.00   0.00
 CF+SFO     ----   ----   ----   ----   ----   ----
 ------
      1:  100.00   0.00   0.00   0.00   0.00   0.00
      2:    0.00 100.00   0.00   0.00   0.00   0.00
      3:    0.00   0.00  99.95   0.05   0.00   0.00
      4:    0.00   0.00   0.05  99.95   0.00   0.00
      5:    0.00   0.00   0.00   0.00 100.00   0.00
      6:    0.00   0.00   0.00   0.00   0.00 100.00


 Summation over all MOs, multiplied by occupation: Total SFO Gross Populations in this Irrep
 ===========================================================================================

     2.00    2.00    0.00    0.00    0.00    0.00


                                       === P:z ===


 SFO contributions (%) per orbital
 (multiplication by the orbital occupation yields the SFO Gross Populations)

 Orb.:        1      2      3      4      5      6
 occup:     2.00   2.00   0.00   0.00   0.00   0.00
 CF+SFO     ----   ----   ----   ----   ----   ----
 ------
      1:  100.00   0.00   0.00   0.00   0.00   0.00
      2:    0.00 100.00   0.00   0.00   0.00   0.00
      3:    0.00   0.00  99.95   0.05   0.00   0.00
      4:    0.00   0.00   0.05  99.95   0.00   0.00
      5:    0.00   0.00   0.00   0.00 100.00   0.00
      6:    0.00   0.00   0.00   0.00   0.00 100.00


 Summation over all MOs, multiplied by occupation: Total SFO Gross Populations in this Irrep
 ===========================================================================================

     2.00    2.00    0.00    0.00    0.00    0.00


                                       === D:z2 ===


 SFO contributions (%) per orbital
 (multiplication by the orbital occupation yields the SFO Gross Populations)

 Orb.:        1      2      3
 occup:     2.00   0.00   0.00
 CF+SFO     ----   ----   ----
 ------
      1:   99.60   0.40   0.00
      2:    0.40  99.60   0.00
      3:    0.00   0.00 100.00


 Summation over all MOs, multiplied by occupation: Total SFO Gross Populations in this Irrep
 ===========================================================================================

     1.99    0.01    0.00


                                       === D:x2-y2 ===


 SFO contributions (%) per orbital
 (multiplication by the orbital occupation yields the SFO Gross Populations)

 Orb.:        1      2      3
 occup:     2.00   0.00   0.00
 CF+SFO     ----   ----   ----
 ------
      1:   99.60   0.40   0.00
      2:    0.40  99.60   0.00
      3:    0.00   0.00 100.00


 Summation over all MOs, multiplied by occupation: Total SFO Gross Populations in this Irrep
 ===========================================================================================

     1.99    0.01    0.00


                                       === D:xy ===


 SFO contributions (%) per orbital
 (multiplication by the orbital occupation yields the SFO Gross Populations)

 Orb.:        1      2      3
 occup:     2.00   0.00   0.00
 CF+SFO     ----   ----   ----
 ------
      1:   99.60   0.40   0.00
      2:    0.40  99.60   0.00
      3:    0.00   0.00 100.00


 Summation over all MOs, multiplied by occupation: Total SFO Gross Populations in this Irrep
 ===========================================================================================

     1.99    0.01    0.00


                                       === D:xz ===


 SFO contributions (%) per orbital
 (multiplication by the orbital occupation yields the SFO Gross Populations)

 Orb.:        1      2      3
 occup:     2.00   0.00   0.00
 CF+SFO     ----   ----   ----
 ------
      1:   99.60   0.40   0.00
      2:    0.40  99.60   0.00
      3:    0.00   0.00 100.00


 Summation over all MOs, multiplied by occupation: Total SFO Gross Populations in this Irrep
 ===========================================================================================

     1.99    0.01    0.00


                                       === D:yz ===


 SFO contributions (%) per orbital
 (multiplication by the orbital occupation yields the SFO Gross Populations)

 Orb.:        1      2      3
 occup:     2.00   0.00   0.00
 CF+SFO     ----   ----   ----
 ------
      1:   99.60   0.40   0.00
      2:    0.40  99.60   0.00
      3:    0.00   0.00 100.00


 Summation over all MOs, multiplied by occupation: Total SFO Gross Populations in this Irrep
 ===========================================================================================

     1.99    0.01    0.00


                                       === F:z3 ===


 SFO contributions (%) per orbital
 (multiplication by the orbital occupation yields the SFO Gross Populations)

 Orb.:        1
 occup:     0.00
 CF+SFO     ----
 ------
      1:  100.00


 Summation over all MOs, multiplied by occupation: Total SFO Gross Populations in this Irrep
 ===========================================================================================

     0.00


                                       === F:z ===


 SFO contributions (%) per orbital
 (multiplication by the orbital occupation yields the SFO Gross Populations)

 Orb.:        1
 occup:     0.00
 CF+SFO     ----
 ------
      1:  100.00


 Summation over all MOs, multiplied by occupation: Total SFO Gross Populations in this Irrep
 ===========================================================================================

     0.00


                                       === F:xyz ===


 SFO contributions (%) per orbital
 (multiplication by the orbital occupation yields the SFO Gross Populations)

 Orb.:        1
 occup:     0.00
 CF+SFO     ----
 ------
      1:  100.00


 Summation over all MOs, multiplied by occupation: Total SFO Gross Populations in this Irrep
 ===========================================================================================

     0.00


                                       === F:z2x ===


 SFO contributions (%) per orbital
 (multiplication by the orbital occupation yields the SFO Gross Populations)

 Orb.:        1
 occup:     0.00
 CF+SFO     ----
 ------
      1:  100.00


 Summation over all MOs, multiplied by occupation: Total SFO Gross Populations in this Irrep
 ===========================================================================================

     0.00


                                       === F:z2y ===


 SFO contributions (%) per orbital
 (multiplication by the orbital occupation yields the SFO Gross Populations)

 Orb.:        1
 occup:     0.00
 CF+SFO     ----
 ------
      1:  100.00


 Summation over all MOs, multiplied by occupation: Total SFO Gross Populations in this Irrep
 ===========================================================================================

     0.00


                                       === F:x ===


 SFO contributions (%) per orbital
 (multiplication by the orbital occupation yields the SFO Gross Populations)

 Orb.:        1
 occup:     0.00
 CF+SFO     ----
 ------
      1:  100.00


 Summation over all MOs, multiplied by occupation: Total SFO Gross Populations in this Irrep
 ===========================================================================================

     0.00


                                       === F:y ===


 SFO contributions (%) per orbital
 (multiplication by the orbital occupation yields the SFO Gross Populations)

 Orb.:        1
 occup:     0.00
 CF+SFO     ----
 ------
      1:  100.00


 Summation over all MOs, multiplied by occupation: Total SFO Gross Populations in this Irrep
 ===========================================================================================

     0.00



 List of all MOs, ordered by energy, with the most significant SFO gross populations
 ===================================================================================

 Each percentage contribution in the table below corresponds to the indicated SFO.
 In general, a SFO may be a linear combination of several Fragment Orbitals on the same,
 or on symmetry-related Fragments. Only the first 'member' of such a combination is
 specified here. A full definition of all SFOs is given in an earlier part of the output.
 The numbering of the SFOs in this table does NOT include the Core Orbitals, and starts
 from one for each symmetry representation, as in the SFO definition list earlier.

       E(eV)  Occ       MO           %     SFO (first member)   E(eV)  Occ   Fragment
 -------------------------------------------------------------------------------------

      -2.647  0.00     4 S         98.74%     4 S              -4.180  1.00     1 Ni
                                    1.18%     5 S               1.987  0.00     1 Ni
       0.265  2.00     1 D:z2      99.60%     1 D:z2           -4.260  1.80     1 Ni
                                    0.40%     2 D:z2           17.737  0.00     1 Ni
       0.265  2.00     1 D:x2-y2   99.60%     1 D:x2-y2        -4.260  1.80     1 Ni
                                    0.40%     2 D:x2-y2        17.737  0.00     1 Ni
       0.265  2.00     1 D:xy      99.60%     1 D:xy           -4.260  1.80     1 Ni
                                    0.40%     2 D:xy           17.737  0.00     1 Ni
       0.265  2.00     1 D:xz      99.60%     1 D:xz           -4.260  1.80     1 Ni
                                    0.40%     2 D:xz           17.737  0.00     1 Ni
       0.265  2.00     1 D:yz      99.60%     1 D:yz           -4.260  1.80     1 Ni
                                    0.40%     2 D:yz           17.737  0.00     1 Ni
       2.203  0.00     3 P:x       99.95%     3 P:x             0.732  0.00     1 Ni
                                    0.05%     4 P:x            39.863  0.00     1 Ni
       2.203  0.00     3 P:y       99.95%     3 P:y             0.732  0.00     1 Ni
                                    0.05%     4 P:y            39.863  0.00     1 Ni
       2.203  0.00     3 P:z       99.95%     3 P:z             0.732  0.00     1 Ni
                                    0.05%     4 P:z            39.863  0.00     1 Ni



 =======================================================================
 Electrostatic potential at the Nuclei due to electrons and other nuclei
 =======================================================================
  
         Atom                  Potential
         ----                  ---------
     1)   Ni                128.91223678
 
 
 ========================
 No memory problems found
 ========================
 
 Maximum number of active allocate calls:         746
 
 *******************************************************************************

                             A D F   E X I T
 NORMAL TERMINATION



 =================
 Timing Statistics
 =================
  
 Total Used :                     CPU=        1.02      System=        0.14     Elapsed=        1.23

 Calls  Section                     ( Mean, Percentage )
 ---------------------------------------------------------------------------------------------------
     3  ><      ................      0.00    0.00             0.00    0.70             0.00    0.20
     1  INIT    ................      0.41   40.37             0.02   16.90             0.44   35.76
     1  GEOMET  ................      0.02    2.44             0.01    5.63             0.03    2.82
     1  FRAGM   ................      0.02    1.56             0.01    5.63             0.03    2.79
     1  INPUTA  ................      0.00    0.00             0.00    0.00             0.00    0.03
     1  ATDEN   ................      0.00    0.49             0.00    1.41             0.01    0.57
     1  MAINSY  ................      0.01    1.27             0.00    0.00             0.01    1.18
     1  SYMFIT  ................      0.00    0.00             0.00    0.70             0.00    0.09
     1  CORORT  ................      0.00    0.00             0.00    0.00             0.00    0.04
     1  SYMORB  ................      0.01    0.49             0.00    0.00             0.00    0.35
     1  CLSMAT  ................      0.00    0.49             0.00    0.70             0.01    0.47
     1  ORTHON  ................      0.00    0.29             0.00    0.00             0.00    0.32
     1  GENPT   ................      0.03    2.93             0.00    2.11             0.03    2.75
     1  PTBAS   ................      0.01    1.17             0.00    1.41             0.01    1.07
    15  FOCKY   ................      0.02   26.20             0.00   29.58             0.02   25.86
    15  FOCKTR  ................      0.00    5.77             0.00   20.42             0.01    7.68
    15  SDIIS   ................      0.00    4.30             0.00    2.82             0.00    4.35
     1  COREPS  ................      0.02    1.66             0.01    5.63             0.03    2.15
     1  TOTEN   ................      0.03    3.23             0.00    0.70             0.04    2.87
     1  POPAN   ................      0.00    0.39             0.00    0.00             0.01    0.68
     1  DEBYE   ................      0.00    0.29             0.00    0.00             0.00    0.19
     1  INPUTE  ................      0.00    0.00             0.00    0.00             0.00    0.10
     1  SYMORE  ................      0.00    0.20             0.00    0.00             0.00    0.16
     1  METS    ................      0.00    0.10             0.00    0.00             0.00    0.06
     1  CETS    ................      0.02    1.86             0.00    2.82             0.02    1.93
     1  ELNRGY  ................      0.00    0.10             0.00    0.00             0.00    0.12
     1  POPUL   ................      0.02    1.66             0.00    2.11             0.04    3.04
     1  EXIT PROCEDURE .........      0.03    2.74             0.00    0.70             0.03    2.37


 Currently Open Files (EXIT00)
 ====================

 Unit    Access Format  Status   Type       Ident (file)
 -------------------------------------------------------
   3      SEQ    FORM   TRANSP  NORMAL      LOGFILE
                                          ( logfile )


 Buffered I/O statistics
 =======================
 Memory available:                     67108864
 Number of records fitting in memory:     16131
 Input :   1.0% of                        40606  *4k bytes
 Output:  13.1% of                         2033  *4k bytes
 Records from serial files evicted:           0
                    others evicted:           0
 Hash table lookups:     106410 with          0 conflicts (  0.00%)

 ***************************************************************************************************
 (LOGFILE)
 <May02-2019> <16:25:52>  ADF development version  RunTime: May02-2019 16:25:52  Nodes: 1  Procs: 1
 <May02-2019> <16:25:52>  Nickel (TZ2P)
 <May02-2019> <16:25:52>  RunType   : CREATE
 <May02-2019> <16:25:52>  Net Charge: 0 (Nuclei minus Electrons)
 <May02-2019> <16:25:52>  Symmetry  : ATOM
  Coordinates
    Atom         X           Y           Z   (Angstrom)
    1.Ni        0.000000    0.000000    0.000000
 <May02-2019> <16:25:52>  >>>> CORORT
 <May02-2019> <16:25:52>  >>>> CLSMAT
 <May02-2019> <16:25:52>  >>>> ORTHON
 <May02-2019> <16:25:52>  >>>> GENPT
 <May02-2019> <16:25:52>  Block Length= 102
 <May02-2019> <16:25:52>  >>>> PTBAS
 <May02-2019> <16:25:52>  >>>> CYCLE
 <May02-2019> <16:25:52>              |Error|         MaxErr       Wt(A-DIIS)
 <May02-2019> <16:25:52>      1      0.00000000      0.00000000
 <May02-2019> <16:25:52>      2     82.19883474     20.43120566    100.0
 <May02-2019> <16:25:52>      3     31.27108347      9.04485274    100.0
 <May02-2019> <16:25:52>      4      6.64740716      1.68718219    100.0
 <May02-2019> <16:25:52>      5     12.98007906      3.40875533    100.0
 <May02-2019> <16:25:52>      6      3.95732205      1.34154127    100.0
 <May02-2019> <16:25:52>      7      3.20420349      0.98987942    100.0
 <May02-2019> <16:25:52>      8      0.29754599      0.08697694     86.8
 <May02-2019> <16:25:53>      9      0.61977106      0.20401681    100.0
 <May02-2019> <16:25:53>     10      0.18510528      0.05979028     59.4
 <May02-2019> <16:25:53>     11      0.02669629      0.00945217      8.5
 <May02-2019> <16:25:53>     12      0.00627842      0.00214057      1.2
 <May02-2019> <16:25:53>     13      0.00014921      0.00005131      0.0
 <May02-2019> <16:25:53>     14      0.00000005      0.00000002      0.0
 <May02-2019> <16:25:53>     15      0.00000000      0.00000000      0.0
 <May02-2019> <16:25:53>  SCF converged
 <May02-2019> <16:25:53>     16      0.00000000      0.00000000      0.0
 <May02-2019> <16:25:53>  >>>> POPAN
 <May02-2019> <16:25:53>  >>>> DEBYE
 <May02-2019> <16:25:53>  NORMAL TERMINATION
 <May02-2019> <16:25:53>  END
 <May02-2019> <16:25:53>  ADF development version  RunTime: May02-2019 16:25:53  Nodes: 1  Procs: 12
 <May02-2019> <16:25:54>  *** (NO TITLE) ***
 <May02-2019> <16:25:54>  RunType   : SINGLE POINT
 <May02-2019> <16:25:54>  Net Charge: 0 (Nuclei minus Electrons)
 <May02-2019> <16:25:54>  Symmetry  : ATOM
 <May02-2019> <16:25:54>  >>>> FRAGM
  Coordinates
    Atom         X           Y           Z   (Angstrom)
    1.Ni        0.000000    0.000000    0.000000
 <May02-2019> <16:25:54>  >>>> CORORT
 <May02-2019> <16:25:54>  >>>> CLSMAT
 <May02-2019> <16:25:54>  >>>> ORTHON
 <May02-2019> <16:25:54>  >>>> GENPT
 <May02-2019> <16:25:54>  Block Length=  87
 <May02-2019> <16:25:54>  >>>> PTBAS
 <May02-2019> <16:25:54>  >>>> CYCLE
 <May02-2019> <16:25:54>  Orbital Data from active fragment used
 <May02-2019> <16:25:54>              |Error|         MaxErr       Wt(A-DIIS)
 <May02-2019> <16:25:54>      1      0.01757191      0.01300093
 <May02-2019> <16:25:54>      2      1.24056427      0.39578169    100.0
 <May02-2019> <16:25:54>      3      1.17406323      0.37757062    100.0
 <May02-2019> <16:25:54>      4      1.17327654      0.37732570    100.0
 <May02-2019> <16:25:54>      5      5.44960548      1.82085021    100.0
 <May02-2019> <16:25:54>      6      2.08277967      0.65828781    100.0
 <May02-2019> <16:25:54>      7      0.33436550      0.10469185    100.0
 <May02-2019> <16:25:54>      8      0.53707824      0.15538867    100.0
 <May02-2019> <16:25:54>      9      0.09123326      0.02820092     27.5
 <May02-2019> <16:25:54>     10      0.03490944      0.01034327      9.4
 <May02-2019> <16:25:54>     11      0.01535728      0.00453223      3.6
 <May02-2019> <16:25:54>     12      0.00213756      0.00063128      0.0
 <May02-2019> <16:25:54>     13      0.00003954      0.00001167      0.0
 <May02-2019> <16:25:54>     14      0.00000067      0.00000022      0.0
 <May02-2019> <16:25:54>  SCF converged
 <May02-2019> <16:25:54>     15      0.00000000      0.00000000      0.0
 <May02-2019> <16:25:54>  >>>> TOTEN
 <May02-2019> <16:25:54>  >>>> POPAN
 <May02-2019> <16:25:55>  >>>> DEBYE
 <May02-2019> <16:25:55>  >>>> AMETS
 <May02-2019> <16:25:55>   Bond Energy           0.05373531 a.u.
 <May02-2019> <16:25:55>   Bond Energy           1.46221229 eV
 <May02-2019> <16:25:55>   Bond Energy          33.72       kcal/mol
 <May02-2019> <16:25:55>  >>>> POPUL
 <May02-2019> <16:25:55>  NORMAL TERMINATION
 <May02-2019> <16:25:55>  END
