

 Parallel Execution: Process Information
 ==============================================================================
 Rank   Node Name                              NodeID   MyNodeRank  NodeMaster
    0   BAZIS-cn018                               0          0          0
    1   BAZIS-cn018                               0          1         -1
    2   BAZIS-cn018                               0          2         -1
    3   BAZIS-cn018                               0          3         -1
    4   BAZIS-cn018                               0          4         -1
    5   BAZIS-cn018                               0          5         -1
    6   BAZIS-cn018                               0          6         -1
    7   BAZIS-cn018                               0          7         -1
    8   BAZIS-cn018                               0          8         -1
    9   BAZIS-cn018                               0          9         -1
   10   BAZIS-cn018                               0         10         -1
   11   BAZIS-cn018                               0         11         -1
 ==============================================================================


May use up to 30771MB of RAM as shared memory on node 0


XC
    GGA BP86
END

SCF
    iterations 250
END

EPRINT
    SFO Eig Ovl
END

ZLMFIT
    Quality normal
END

BECKEGRID
    Quality good
End

SYMMETRY nosym
CHARGE -1

ATOMS
1.Cl       -5.003273    3.263878   -0.074901 f=ClBr
2.Br       -3.920693    1.025248    0.317390 f=ClBr
3.F        -5.851414    5.009792   -0.379690 f=F
END

Fragments
ClBr /home/tcst25/advanced_comp_chemistry/exercise2/halogen/BrClF/frag1_ClBr.t21
F /home/tcst25/advanced_comp_chemistry/exercise2/halogen/BrClF/frag2_F.t21
End
end input

 *******************************************************************************
 *                                                                             *
 *  -------------------------------------                                      *
 *   Amsterdam Density Functional  (ADF)         2017                          *
 *  -------------------------------------                                      *
 *                                               r58813 2017-04-12             *
 *                                                                             *
 *                                                                             *
 *                              =================                              *
 *                              |               |                              *
 *                              |     A D F     |                              *
 *                              |               |                              *
 *                              =================                              *
 *                                                                             *
 *                                                                             *
 *   Online information and documentation:  https://www.scm.com/support/       *
 *   E-mail:  support@scm.com   info@scm.com                                   *
 *                                                                             *
 *   Scientific publications using ADF results must be properly referenced     *
 *   See the User Manuals (or the web site) for recommended citations          *
 *   The terms and conditions of the End User License Agreement apply to       *
 *   the use of ADF, https://www.scm.com/license-terms/                        *
 *                                                                             *
 **********************  x86_64_linux_intel / intelmpi  ************************
 
 Licensed to: VU/FEW (+ SARA) / ALGEMEEN / Amsterdam / THE NETHERLANDS
 SCM User ID: u7668
  
 ADF 2017  RunTime: May09-2019 17:11:57  Nodes: 1  Procs: 12

 Temporary files are created in /local/datastore0/tcst25/189770/kid_0.NNGgND


Communication costs MPI_COMM_WORLD:      3.820 usec per message,   0.0183 usec per 8-byte item
Communication costs for intra-node:      3.828 usec per message,   0.0175 usec per 8-byte item

 *** (NO TITLE) ***



 ===========================
 A T T A C H E D   F I L E S
 ===========================
  



 ===============================
 M O D E L   P A R A M E T E R S
 ===============================
  
 DENSITY FUNCTIONAL POTENTIAL (scf)
    LDA:                               VWN                                      
    Gradient Corrections:              Becke88 Perdew86                        == Not Default ==

 SPIN  (restricted / unrestr.)
    Molecule:                          Restricted                               
    Fragments:                         Restricted                               

 OTHER ASPECTS
    Relativistic Corrections:          ---                                      

    Nuclear Charge Density Model:      Point Charge Nuclei                      
    Core Treatment:                    Frozen Orbital(s)                        

    Hyperfine or Zeeman Interaction:   ---                                      


 Fragment File(s)
 ----------------
 ClBr:
         file : /home/tcst25/advanced_comp_chemistry/exercise2/halogen/BrClF/frag1_ClBr.t21
         jobid: ADF 2017  RunTime: May09-2019 16:32:17  Nodes: 1  Procs: 12
         title: *** (NO TITLE) ***
 F:
         file : /home/tcst25/advanced_comp_chemistry/exercise2/halogen/BrClF/frag2_F.t21
         jobid: ADF 2017  RunTime: May09-2019 16:32:15  Nodes: 1  Procs: 12
         title: *** (NO TITLE) ***



                                        ************************************
                                        *  R U N   T Y P E : SINGLE POINT  *
                                        ************************************
  



 ===============
 G E O M E T R Y  ***  Planar Molecule  ***
 ===============
  

 ATOMS
 =====                            X Y Z                    CHARGE
                                (Angstrom)             Nucl     +Core       At.Mass
                       --------------------------    ----------------       -------
    1  Cl             -5.0033    3.2639   -0.0749     17.00     17.00       34.9689
    2  Br             -3.9207    1.0252    0.3174     35.00     35.00       78.9183
    3  F              -5.8514    5.0098   -0.3797      9.00      9.00       18.9984


 FRAGMENTS
 =========                                     Atoms in this Fragment     Cart. coord.s (Angstrom)
                                               -------------------------------------------------------
    1  ClBr                                              1  Cl          -5.0033    3.2639   -0.0749
                                                         2  Br          -3.9207    1.0252    0.3174
    2  F                                                 3  F           -5.8514    5.0098   -0.3797


 Interatomic Distance Matrix (Angstrom)
 --------------------------------------

   1)     0.000
   2)     2.517   0.000
   3)     1.965   4.482   0.000

 Min. Distance =    1.9648
 Max. Distance =    4.4822



 =====================================
 S Y M M E T R Y ,   E L E C T R O N S
 =====================================
  
 Symmetry: NOSYM

 Irreducible Representations, including subspecies
 -------------------------------------------------
 A


 Configuration of Valence Electrons
 ==================================
 ( determined in the SCF procedure )

 Total:   62

 Net Charge: -1 (Nuclei minus Electrons)

 Aufbau principle for MO occupations will be applied through SCF cycle no.     125
 Thereafter, the program will assign electrons to MOs that are spatially
 similar to the occupied MOs in a "reference" cycle ("KeepOrbitals").
 The reference cycle is always the PREVIOUS cycle: it will evolve with
 the SCF procedure.
1
 ***************************************************************************************************



                                      ****************************************
                                      *  B U I L D : (Fragments, Functions)  *
                                      ****************************************
  

 The individual fragments are copies of the corresponding 'Master' fragments defined on the fragment files.
 However, they may have been rotated (and translated) with respect to the Master. The local coordinate axes
 of each fragment (which define for instance the spatial orientation in the current molecule of a fragment
 P:x orbital) are not necessarily those of the molecule.
 The local frame (if different from the molecular one) is printed to enable an interpretation of the expan-
 sion of an MO in Fragment Orbitals.



                                             **************************
                                             *  Fragment Type : ClBr  *
                                             **************************
  

 Fragment no.    1   (in the list of all fragments)
 -----------------
 The local coordinate frame is identical to the molecular frame.

 Check Atomic Coordinates:

                  Master (on file)          After Computed Tranformation               As specified on Input
           ----------------------------     ----------------------------     ---------------------------------
     1)    -5.00327   3.26388  -0.07490     -5.00327   3.26388  -0.07490       1  -5.00327   3.26388  -0.07490
     2)    -3.92069   1.02525   0.31739     -3.92069   1.02525   0.31739       2  -3.92069   1.02525   0.31739



                                              ***********************
                                              *  Fragment Type : F  *
                                              ***********************
  

 Fragment no.    2   (in the list of all fragments)
 -----------------
 The local coordinate frame is identical to the molecular frame.

 Check Atomic Coordinates:

                  Master (on file)          After Computed Tranformation               As specified on Input
           ----------------------------     ----------------------------     ---------------------------------
     1)    -5.85141   5.00979  -0.37969     -5.85141   5.00979  -0.37969       3  -5.85141   5.00979  -0.37969



 =======
 S F O s  ***  (Symmetrized Fragment Orbitals)  ***
 =======
  
 SFOs are linear combinations of (valence) Fragment Orbitals (FOs), such that the SFOs transform as the
 irreducible representations of the (molecular) symmetry group. Each SFO is therefore characterized by
 an irrep of the molecule and by a few (or only one) generating FOs.
 The SFOs constitute a symmetry-adapted basis for the Fock matrix. The MO eigenvector coefficients in
 this basis provide a direct interpretation of the MOs in terms of Frontier Orbital Theory.

 The SFOs are combined with auxiliary Core Functions (CFs) to ensure orthogonalization on the (frozen)
 Core Orbitals (COs). The Core-orthogonalized SFOs (CSFOs) constitute the true Fock basis.

 The FOs, and hence also the (C)SFOs are combinations of the elementary basis functions (BAS). The basis
 functions that participate in the description of the SFOs depend on the irrep. The indices of the
 involved functions are printed below for each irrep.
 (The complete list of primitive basis functions is printed in another section)

 Total nr. of (C)SFOs (summation over all irreps) :   116

 NOTE: a (C)SFO that is defined as a combination of more than one FO is usually NOT normalized.



                                       === A ===
 Nr. of SFOs :  116
 Cartesian basis functions that participate in this irrep (total number =   131) :
      1     2     3     4    11    12    13     5     8    14
     17    20     6     9    15    18    21     7    10    16
     19    22    23    24    25    26    27    28    29    30
     31    32    33    34    35    36    37    38    39    40
     41    48    49    74    75    76    42    45    50    53
     77    80    83    43    46    51    54    78    81    84
     44    47    52    55    79    82    85    56    62    68
     86    57    63    69    87    58    64    70    88    59
     65    71    89    60    66    72    90    61    67    73
     91    92    93    94    95    96    97    98    99   100
    101   102   103   104   105   106   107   110   113   108
    111   114   109   112   115   116   117   118   119   120
    121   122   123   124   125   126   127   128   129   130
    131

    SFO  (index         Fragment          Generating    Expansion in Fragment Orbitals
  indx  incl.CFs)   Occup   Orb.Energy   FragmentType  Coeff.   Orbital     on Fragment
 --------------------------------------------------------------------------------------
     1       1      2.000    -481.052 au  ClBr          1.00      1 A               1
                        (  -13090.083 eV)
     2       2      2.000    -100.765 au  ClBr          1.00      2 A               1
                        (   -2741.964 eV)
     3       3      2.000     -61.807 au  ClBr          1.00      3 A               1
                        (   -1681.846 eV)
     4       4      2.000     -55.741 au  ClBr          1.00      4 A               1
                        (   -1516.803 eV)
     5       5      2.000     -55.734 au  ClBr          1.00      5 A               1
                        (   -1516.603 eV)
     6       6      2.000     -55.734 au  ClBr          1.00      6 A               1
                        (   -1516.603 eV)
     7       7      2.000      -9.216 au  ClBr          1.00      7 A               1
                        (    -250.772 eV)
     8       8      2.000      -8.426 au  ClBr          1.00      8 A               1
                        (    -229.296 eV)
     9       9      2.000      -7.049 au  ClBr          1.00      9 A               1
                        (    -191.805 eV)
    10      10      2.000      -7.032 au  ClBr          1.00     10 A               1
                        (    -191.362 eV)
    11      11      2.000      -7.032 au  ClBr          1.00     11 A               1
                        (    -191.362 eV)
    12      12      2.000      -6.340 au  ClBr          1.00     12 A               1
                        (    -172.521 eV)
    13      13      2.000      -6.319 au  ClBr          1.00     13 A               1
                        (    -171.951 eV)
    14      14      2.000      -6.319 au  ClBr          1.00     14 A               1
                        (    -171.951 eV)
    15      15      2.000      -2.544 au  ClBr          1.00     15 A               1
                        (     -69.221 eV)
    16      16      2.000      -2.539 au  ClBr          1.00     16 A               1
                        (     -69.083 eV)
    17      17      2.000      -2.539 au  ClBr          1.00     17 A               1
                        (     -69.083 eV)
    18      18      2.000      -2.524 au  ClBr          1.00     18 A               1
                        (     -68.669 eV)
    19      19      2.000      -2.524 au  ClBr          1.00     19 A               1
                        (     -68.668 eV)
    20      20      2.000      -0.770 au  ClBr          1.00     20 A               1
                        (     -20.942 eV)
    21      21      2.000      -0.708 au  ClBr          1.00     21 A               1
                        (     -19.278 eV)
    22      22      2.000      -0.386 au  ClBr          1.00     22 A               1
                        (     -10.496 eV)
    23      23      2.000      -0.318 au  ClBr          1.00     23 A               1
                        (      -8.645 eV)
    24      24      2.000      -0.318 au  ClBr          1.00     24 A               1
                        (      -8.645 eV)
    25      25      2.000      -0.275 au  ClBr          1.00     25 A               1
                        (      -7.473 eV)
    26      26      2.000      -0.275 au  ClBr          1.00     26 A               1
                        (      -7.473 eV)
    27      27       --        -0.234 au  ClBr          1.00     27 A               1
                        (      -6.361 eV)
    28      28       --         0.108 au  ClBr          1.00     28 A               1
                        (       2.946 eV)
    29      29       --         0.136 au  ClBr          1.00     29 A               1
                        (       3.714 eV)
    30      30       --         0.136 au  ClBr          1.00     30 A               1
                        (       3.714 eV)
    31      31       --         0.178 au  ClBr          1.00     31 A               1
                        (       4.843 eV)
    32      32       --         0.196 au  ClBr          1.00     32 A               1
                        (       5.346 eV)
    33      33       --         0.207 au  ClBr          1.00     33 A               1
                        (       5.635 eV)
    34      34       --         0.207 au  ClBr          1.00     34 A               1
                        (       5.635 eV)
    35      35       --         0.257 au  ClBr          1.00     35 A               1
                        (       6.991 eV)
    36      36       --         0.257 au  ClBr          1.00     36 A               1
                        (       6.991 eV)
    37      37       --         0.266 au  ClBr          1.00     37 A               1
                        (       7.245 eV)
    38      38       --         0.266 au  ClBr          1.00     38 A               1
                        (       7.245 eV)
    39      39       --         0.329 au  ClBr          1.00     39 A               1
                        (       8.953 eV)
    40      40       --         0.370 au  ClBr          1.00     40 A               1
                        (      10.059 eV)
    41      41       --         0.403 au  ClBr          1.00     41 A               1
                        (      10.953 eV)
    42      42       --         0.403 au  ClBr          1.00     42 A               1
                        (      10.953 eV)
    43      43       --         0.459 au  ClBr          1.00     43 A               1
                        (      12.479 eV)
    44      44       --         0.459 au  ClBr          1.00     44 A               1
                        (      12.479 eV)
    45      45       --         0.713 au  ClBr          1.00     45 A               1
                        (      19.401 eV)
    46      46       --         0.822 au  ClBr          1.00     46 A               1
                        (      22.376 eV)
    47      47       --         0.822 au  ClBr          1.00     47 A               1
                        (      22.376 eV)
    48      48       --         0.849 au  ClBr          1.00     48 A               1
                        (      23.114 eV)
    49      49       --         0.849 au  ClBr          1.00     49 A               1
                        (      23.114 eV)
    50      50       --         0.886 au  ClBr          1.00     50 A               1
                        (      24.117 eV)
    51      51       --         0.886 au  ClBr          1.00     51 A               1
                        (      24.118 eV)
    52      52       --         0.939 au  ClBr          1.00     52 A               1
                        (      25.557 eV)
    53      53       --         1.184 au  ClBr          1.00     53 A               1
                        (      32.210 eV)
    54      54       --         1.184 au  ClBr          1.00     54 A               1
                        (      32.210 eV)
    55      55       --         1.209 au  ClBr          1.00     55 A               1
                        (      32.904 eV)
    56      56       --         1.209 au  ClBr          1.00     56 A               1
                        (      32.904 eV)
    57      57       --         1.259 au  ClBr          1.00     57 A               1
                        (      34.259 eV)
    58      58       --         1.265 au  ClBr          1.00     58 A               1
                        (      34.423 eV)
    59      59       --         1.265 au  ClBr          1.00     59 A               1
                        (      34.423 eV)
    60      60       --         1.381 au  ClBr          1.00     60 A               1
                        (      37.590 eV)
    61      61       --         1.402 au  ClBr          1.00     61 A               1
                        (      38.158 eV)
    62      62       --         1.402 au  ClBr          1.00     62 A               1
                        (      38.158 eV)
    63      63       --         2.099 au  ClBr          1.00     63 A               1
                        (      57.130 eV)
    64      64       --         2.161 au  ClBr          1.00     64 A               1
                        (      58.811 eV)
    65      65       --         2.161 au  ClBr          1.00     65 A               1
                        (      58.812 eV)
    66      66       --         2.269 au  ClBr          1.00     66 A               1
                        (      61.736 eV)
    67      67       --         2.682 au  ClBr          1.00     67 A               1
                        (      72.971 eV)
    68      68       --         2.682 au  ClBr          1.00     68 A               1
                        (      72.971 eV)
    69      69       --         2.719 au  ClBr          1.00     69 A               1
                        (      73.980 eV)
    70      70       --         2.754 au  ClBr          1.00     70 A               1
                        (      74.952 eV)
    71      71       --         2.754 au  ClBr          1.00     71 A               1
                        (      74.952 eV)
    72      72       --         3.154 au  ClBr          1.00     72 A               1
                        (      85.827 eV)
    73      73       --         8.853 au  ClBr          1.00     73 A               1
                        (     240.895 eV)
    74      74       --         8.853 au  ClBr          1.00     74 A               1
                        (     240.896 eV)
    75      75       --         8.976 au  ClBr          1.00     75 A               1
                        (     244.252 eV)
    76      76       --        13.036 au  ClBr          1.00     76 A               1
                        (     354.740 eV)
    77      77       --        14.709 au  ClBr          1.00     77 A               1
                        (     400.246 eV)
    78      78       --        18.926 au  ClBr          1.00     78 A               1
                        (     515.005 eV)
    79      79       --        18.926 au  ClBr          1.00     79 A               1
                        (     515.005 eV)
    80      80       --        19.256 au  ClBr          1.00     80 A               1
                        (     523.972 eV)
    81      81       --        20.600 au  ClBr          1.00     81 A               1
                        (     560.555 eV)
    82      82       --        20.600 au  ClBr          1.00     82 A               1
                        (     560.556 eV)
    83      83       --        20.699 au  ClBr          1.00     83 A               1
                        (     563.249 eV)
    84      84       --        20.699 au  ClBr          1.00     84 A               1
                        (     563.249 eV)
    85      85       --        21.116 au  ClBr          1.00     85 A               1
                        (     574.609 eV)
    86      86       --       100.919 au  ClBr          1.00     86 A               1
                        (    2746.156 eV)
    87      87       --       100.919 au  ClBr          1.00     87 A               1
                        (    2746.156 eV)
    88      88       --       101.234 au  ClBr          1.00     88 A               1
                        (    2754.705 eV)
    89      89       --       216.074 au  ClBr          1.00     89 A               1
                        (    5879.670 eV)
    90      90       --       748.120 au  ClBr          1.00     90 A               1
                        (   20357.384 eV)
    91      91      2.000     -23.791 au  F             1.00      1 A               2
                        (    -647.398 eV)
    92      92      2.000      -0.555 au  F             1.00      2 A               2
                        (     -15.093 eV)
    93      93      2.000       0.108 au  F             1.00      3 A               2
                        (       2.944 eV)
    94      94      2.000       0.108 au  F             1.00      4 A               2
                        (       2.944 eV)
    95      95      2.000       0.108 au  F             1.00      5 A               2
                        (       2.944 eV)
    96      96       --         0.286 au  F             1.00      6 A               2
                        (       7.773 eV)
    97      97       --         0.812 au  F             1.00      7 A               2
                        (      22.092 eV)
    98      98       --         0.812 au  F             1.00      8 A               2
                        (      22.092 eV)
    99      99       --         0.812 au  F             1.00      9 A               2
                        (      22.092 eV)
   100     100       --         1.566 au  F             1.00     10 A               2
                        (      42.603 eV)
   101     101       --         1.566 au  F             1.00     11 A               2
                        (      42.603 eV)
   102     102       --         1.566 au  F             1.00     12 A               2
                        (      42.603 eV)
   103     103       --         1.566 au  F             1.00     13 A               2
                        (      42.603 eV)
   104     104       --         1.566 au  F             1.00     14 A               2
                        (      42.603 eV)
   105     105       --         2.040 au  F             1.00     15 A               2
                        (      55.515 eV)
   106     106       --         3.896 au  F             1.00     16 A               2
                        (     106.020 eV)
   107     107       --         3.896 au  F             1.00     17 A               2
                        (     106.020 eV)
   108     108       --         3.896 au  F             1.00     18 A               2
                        (     106.020 eV)
   109     109       --         3.896 au  F             1.00     19 A               2
                        (     106.020 eV)
   110     110       --         3.896 au  F             1.00     20 A               2
                        (     106.020 eV)
   111     111       --         3.896 au  F             1.00     21 A               2
                        (     106.020 eV)
   112     112       --         3.896 au  F             1.00     22 A               2
                        (     106.020 eV)
   113     113       --         5.088 au  F             1.00     23 A               2
                        (     138.458 eV)
   114     114       --         5.088 au  F             1.00     24 A               2
                        (     138.458 eV)
   115     115       --         5.088 au  F             1.00     25 A               2
                        (     138.458 eV)
   116     116       --        48.938 au  F             1.00     26 A               2
                        (    1331.672 eV)



 ================================
 (Slater-type)  F U N C T I O N S  ***  (Basis and Fit)  ***
 ================================
  

 Atom Type    1  (Cl)
 ==============

 Valence Basis Sets:  14
 -----------------------
   1 S   20.300000
   1 S   15.250000
   2 S    6.250000
   2 S    4.450000
   2 P    8.850000
   2 P    5.050000
   3 S    3.450000
   3 S    2.300000
   3 S    1.600000
   3 P    3.350000
   3 P    2.050000
   3 P    1.200000
   3 D    2.000000
   4 F    2.000000

 Atom Type    2  (Br)
 ==============

 Valence Basis Sets:  20
 -----------------------
   1 S   41.300000
   1 S   32.800000
   2 S   13.900000
   2 P   19.450000
   2 P   13.100000
   3 S    7.200000
   3 S    4.950000
   3 P    7.900000
   3 P    5.050000
   3 D   10.900000
   3 D    6.050000
   3 D    3.500000
   4 S    4.500000
   4 S    2.800000
   4 S    1.800000
   4 P    3.250000
   4 P    1.950000
   4 P    1.200000
   4 D    1.800000
   4 F    1.800000

 Atom Type    3  (F)
 ==============

 Valence Basis Sets:  10
 -----------------------
   1 S   10.880000
   1 S    7.700000
   2 S    3.240000
   2 S    1.940000
   2 S    0.740000
   2 P    4.540000
   2 P    2.300000
   2 P    1.240000
   3 D    2.000000
   4 F    3.000000


 BAS: List of all Elementary Cartesian Basis Functions
 =====================================================

 The numbering in the list below (to the right of the function characteristics) is referred
 to in print-outs of MO eigenvectors and Mulliken populations in the BAS representation
 (as contrasted to the SFO representation).

 Notes:
 1. The functions are characterized by a polynomial prefactor (powers of x,y,z and r) and
    an exponential decay factor alpha.
 2. Since the basis sets are specific for an atom TYPE, the individual functions occur on
    all atoms of that type.
 3. The word 'Core' in the left margin signals that it is a Core Function (CF) : not a
    degree of freedom in the valence set, but only used to ensure orthogonalization of
    the other valence basis functions on the frozen Core Orbitals.


 (power of) X  Y  Z  R     Alpha  on Atom
            ==========     =====     ==========

 Cl                                   1
                                  ---------------------------------------------------------------------------
            0  0  0  0    20.300      1
            0  0  0  0    15.250      2
            0  0  0  1     6.250      3
            0  0  0  1     4.450      4
            1  0  0  0     8.850      5
            0  1  0  0     8.850      6
            0  0  1  0     8.850      7
            1  0  0  0     5.050      8
            0  1  0  0     5.050      9
            0  0  1  0     5.050     10
            0  0  0  2     3.450     11
            0  0  0  2     2.300     12
            0  0  0  2     1.600     13
            1  0  0  1     3.350     14
            0  1  0  1     3.350     15
            0  0  1  1     3.350     16
            1  0  0  1     2.050     17
            0  1  0  1     2.050     18
            0  0  1  1     2.050     19
            1  0  0  1     1.200     20
            0  1  0  1     1.200     21
            0  0  1  1     1.200     22
            2  0  0  0     2.000     23
            1  1  0  0     2.000     24
            1  0  1  0     2.000     25
            0  2  0  0     2.000     26
            0  1  1  0     2.000     27
            0  0  2  0     2.000     28
            3  0  0  0     2.000     29
            2  1  0  0     2.000     30
            2  0  1  0     2.000     31
            1  2  0  0     2.000     32
            1  1  1  0     2.000     33
            1  0  2  0     2.000     34
            0  3  0  0     2.000     35
            0  2  1  0     2.000     36
            0  1  2  0     2.000     37
            0  0  3  0     2.000     38

 Br                                   2
                                  ---------------------------------------------------------------------------
            0  0  0  0    41.300     39
            0  0  0  0    32.800     40
            0  0  0  1    13.900     41
            1  0  0  0    19.450     42
            0  1  0  0    19.450     43
            0  0  1  0    19.450     44
            1  0  0  0    13.100     45
            0  1  0  0    13.100     46
            0  0  1  0    13.100     47
            0  0  0  2     7.200     48
            0  0  0  2     4.950     49
            1  0  0  1     7.900     50
            0  1  0  1     7.900     51
            0  0  1  1     7.900     52
            1  0  0  1     5.050     53
            0  1  0  1     5.050     54
            0  0  1  1     5.050     55
            2  0  0  0    10.900     56
            1  1  0  0    10.900     57
            1  0  1  0    10.900     58
            0  2  0  0    10.900     59
            0  1  1  0    10.900     60
            0  0  2  0    10.900     61
            2  0  0  0     6.050     62
            1  1  0  0     6.050     63
            1  0  1  0     6.050     64
            0  2  0  0     6.050     65
            0  1  1  0     6.050     66
            0  0  2  0     6.050     67
            2  0  0  0     3.500     68
            1  1  0  0     3.500     69
            1  0  1  0     3.500     70
            0  2  0  0     3.500     71
            0  1  1  0     3.500     72
            0  0  2  0     3.500     73
            0  0  0  3     4.500     74
            0  0  0  3     2.800     75
            0  0  0  3     1.800     76
            1  0  0  2     3.250     77
            0  1  0  2     3.250     78
            0  0  1  2     3.250     79
            1  0  0  2     1.950     80
            0  1  0  2     1.950     81
            0  0  1  2     1.950     82
            1  0  0  2     1.200     83
            0  1  0  2     1.200     84
            0  0  1  2     1.200     85
            2  0  0  1     1.800     86
            1  1  0  1     1.800     87
            1  0  1  1     1.800     88
            0  2  0  1     1.800     89
            0  1  1  1     1.800     90
            0  0  2  1     1.800     91
            3  0  0  0     1.800     92
            2  1  0  0     1.800     93
            2  0  1  0     1.800     94
            1  2  0  0     1.800     95
            1  1  1  0     1.800     96
            1  0  2  0     1.800     97
            0  3  0  0     1.800     98
            0  2  1  0     1.800     99
            0  1  2  0     1.800    100
            0  0  3  0     1.800    101

 F                                    3
                                  ---------------------------------------------------------------------------
            0  0  0  0    10.880    102
            0  0  0  0     7.700    103
            0  0  0  1     3.240    104
            0  0  0  1     1.940    105
            0  0  0  1     0.740    106
            1  0  0  0     4.540    107
            0  1  0  0     4.540    108
            0  0  1  0     4.540    109
            1  0  0  0     2.300    110
            0  1  0  0     2.300    111
            0  0  1  0     2.300    112
            1  0  0  0     1.240    113
            0  1  0  0     1.240    114
            0  0  1  0     1.240    115
            2  0  0  0     2.000    116
            1  1  0  0     2.000    117
            1  0  1  0     2.000    118
            0  2  0  0     2.000    119
            0  1  1  0     2.000    120
            0  0  2  0     2.000    121
            3  0  0  0     3.000    122
            2  1  0  0     3.000    123
            2  0  1  0     3.000    124
            1  2  0  0     3.000    125
            1  1  1  0     3.000    126
            1  0  2  0     3.000    127
            0  3  0  0     3.000    128
            0  2  1  0     3.000    129
            0  1  2  0     3.000    130
            0  0  3  0     3.000    131

 Total number of charge fitting functions (nprimf)       361
 Total number of Cartesian basis functions (naos)        131
 Total number of Cartesian core functions  (ncos)          0

1
 ***************************************************************************************************



                                              ***********************
                                              *  T E C H N I C A L  *
                                              ***********************
  



 =============================================================
 P A R A L L E L I Z A T I O N  and  V E C T O R I Z A T I O N
 =============================================================
  
 Nr of parallel processes:                               12
 Maximum vector length in NumInt loops:                 128

 IO buffersize (Mb):                                     64.000000



 =====================
 S C F   U P D A T E S
 =====================
  
 Max. nr. of cycles:                               250
 Convergence criterion:                              0.0000010000
   secondary criterion:                              0.0010000000

 Mix parameter (when DIIS does not apply):           0.2000000000
 Mixed ADIIS+DIIS will be used
    Max number of expansion vectors:                10
    Pure ADIIS when Max([F,P]) is above              0.1000000000
    Pure DIIS when Max([F,P]) is below               0.0010000000
 Automatic ElectronSmearing (in case of problematic SCF convergence) disabled



 =================
 P R E C I S I O N  ***  (General: NumInt, NeglectFunctionTails, ...)  ***
 =================
  

 NumInt:           Target precision:                 6.0000000000
 -------           Initial precision:                6.0000000000
                   Min. precision (optimization):    6.0000000000

 Neglect Functions:          Basis functions:        0.1000000000E-07
 ------------------          Fit functions:          0.1000000000E-07



 ===========================
 L I N E A R   S C A L I N G
 ===========================
  

 Cut-off radii density fit:                        0.1000000000E-09
 Overlap cut-off criterion AO matrix elements:     0.1000000000E-07
 Cut-offs for Coulomb potential and fitted density:0.1000000000E-09
 Cut-off criterion for Coulomb multipole terms:    0.1000000000E-09
 Progressive Convergence parameter:                 0.000000000    
1
 ***************************************************************************************************



                                            ***************************
                                            *  C O M P U T A T I O N  *
                                            ***************************
  

 Number of elements of the density matrix on this node (used, total):      2016      8646



 ===========================================
 Numerical Integration : Fuzzy Cells (Becke)
 ===========================================
  
 Becke grid quality: GOOD           
  
 Lebedev angular grid order:             min:  11 max:  31
 Nr. of radial points:                   min:  65 max:  90

 Total nr. of points:      50770
 Nr. of blocks:              397
 Block length:               128
 Nr. of dummy points:         46


 Test of Precision of the Numerical Integration Grid
 ===================================================

 Integral of the Total Core Density:                   0.00000000000000



 ========================
 Density Fitting (zlmFit)
 ========================
  
 ZlmFit Fit Quality: NORMAL         
  
 Max L-expansion:                        min:   7 max:   7
 Nr. of radial interpolation points:     min:  51 max:  72



 =====
 S C F  ***  ScaSCF  ***
 =====
  
 Initial density matrix is calculated as sum of fragments

 CYCLE    1
 SCF Error: norm([F,P])=      1.250757046090, max([F,P])=      0.741671849351
 orbitals (Q,E):
 ---------------
 A :22...41          ( 2.00    -0.6141)  ( 2.00    -0.5005)  ( 2.00    -0.2269)  ( 2.00    -0.1925)
                     ( 2.00    -0.1925)  ( 2.00    -0.0711)  ( 2.00    -0.0711)  ( 2.00    -0.0583)
                     ( 2.00     0.0761)  ( 2.00     0.0761)  ( 0.00     0.1299)  ( 0.00     0.2083)
                     ( 0.00     0.2488)  ( 0.00     0.2488)  ( 0.00     0.2699)  ( 0.00     0.3306)
                     ( 0.00     0.3383)  ( 0.00     0.3383)  ( 0.00     0.3597)  ( 0.00     0.3597)

 CYCLE    2
  SDIIS (wt  0.000):  0.6046  0.3954
 A-DIIS (wt  1.000):  0.9041  0.0959
  DIIS coefficients:  0.9041  0.0959
 SCF Error: norm([F,P])=      1.572800550695, max([F,P])=      0.669387254629
 orbitals (Q,E):
 ---------------
 A :22...32          ( 2.00    -0.5890)  ( 2.00    -0.4973)  ( 2.00    -0.2034)  ( 2.00    -0.1571)
                     ( 2.00    -0.1571)  ( 2.00    -0.0828)  ( 2.00    -0.0754)  ( 2.00    -0.0754)
                     ( 2.00    -0.0019)  ( 2.00    -0.0019)  ( 0.00     0.0812)

 CYCLE    3
  SDIIS (wt  0.000):  0.1521 -0.6341  1.4820
 A-DIIS (wt  1.000):  0.8278  0.0000  0.1722
  DIIS coefficients:  0.8278  0.0000  0.1722
 SCF Error: norm([F,P])=      0.814865498533, max([F,P])=      0.390181691351
 orbitals (Q,E):
 ---------------
 A :22...32          ( 2.00    -0.5783)  ( 2.00    -0.5057)  ( 2.00    -0.2008)  ( 2.00    -0.1463)
                     ( 2.00    -0.1463)  ( 2.00    -0.0864)  ( 2.00    -0.0853)  ( 2.00    -0.0853)
                     ( 2.00    -0.0113)  ( 2.00    -0.0113)  ( 0.00     0.0717)

 CYCLE    4
  SDIIS (wt  0.000): -0.7412 -1.2588  3.0000
 A-DIIS (wt  1.000):  0.0000  0.0000  1.0000
  DIIS coefficients:  0.0000  0.0000  1.0000
 SCF Error: norm([F,P])=      0.773348091965, max([F,P])=      0.394480506796
 orbitals (Q,E):
 ---------------
 A :22...32          ( 2.00    -0.6340)  ( 2.00    -0.4895)  ( 2.00    -0.4863)  ( 2.00    -0.4863)
                     ( 2.00    -0.3118)  ( 2.00    -0.1364)  ( 2.00    -0.1364)  ( 2.00    -0.1120)
                     ( 2.00     0.0749)  ( 2.00     0.0749)  ( 0.00     0.1104)

 CYCLE    5
  SDIIS (wt  0.000): -0.5173 -1.1943  2.6147  0.0969
 A-DIIS (wt  1.000):  0.0000  0.0000  0.7870  0.2130
  DIIS coefficients:  0.0000  0.0000  0.7870  0.2130
 SCF Error: norm([F,P])=      2.237709214417, max([F,P])=      0.673852996848
 orbitals (Q,E):
 ---------------
 A :22...32          ( 2.00    -0.5284)  ( 2.00    -0.4491)  ( 2.00    -0.2700)  ( 2.00    -0.2229)
                     ( 2.00    -0.2229)  ( 2.00    -0.0908)  ( 2.00    -0.0817)  ( 2.00    -0.0817)
                     ( 2.00    -0.0319)  ( 2.00    -0.0319)  ( 0.00     0.0545)

 CYCLE    6
  SDIIS (wt  0.000): -0.1430 -1.8546  2.5359 -0.0830  0.5447
 A-DIIS (wt  1.000):  0.0000  0.0000  0.4566  0.0000  0.5434
  DIIS coefficients:  0.0000  0.0000  0.4566  0.0000  0.5434
 SCF Error: norm([F,P])=      0.775230485056, max([F,P])=      0.261147839182
 orbitals (Q,E):
 ---------------
 A :22...32          ( 2.00    -0.5788)  ( 2.00    -0.4800)  ( 2.00    -0.2225)  ( 2.00    -0.1498)
                     ( 2.00    -0.1497)  ( 2.00    -0.0886)  ( 2.00    -0.0886)  ( 2.00    -0.0862)
                     ( 2.00    -0.0583)  ( 2.00    -0.0583)  ( 0.00     0.0332)

 CYCLE    7
  SDIIS (wt  0.200): -0.1447  0.2204  0.1472 -0.0449  0.3015  0.5205
 A-DIIS (wt  0.800):  0.0000  0.0000  0.0000  0.0000  0.0631  0.9369
  DIIS coefficients: -0.0289  0.0441  0.0294 -0.0090  0.1107  0.8537
 SCF Error: norm([F,P])=      0.285236596200, max([F,P])=      0.080204811318
 orbitals (Q,E):
 ---------------
 A :22...32          ( 2.00    -0.5450)  ( 2.00    -0.4898)  ( 2.00    -0.2144)  ( 2.00    -0.1413)
                     ( 2.00    -0.1413)  ( 2.00    -0.1110)  ( 2.00    -0.1085)  ( 2.00    -0.1085)
                     ( 2.00    -0.0499)  ( 2.00    -0.0499)  ( 0.00     0.0467)

 CYCLE    8
  SDIIS (wt  0.000): -0.0225 -0.0357  0.0942 -0.0010  0.0636  0.5829  0.3185
 A-DIIS (wt  1.000):  0.0000  0.0000  0.0000  0.0000  0.0000  0.6768  0.3232
  DIIS coefficients:  0.0000  0.0000  0.0000  0.0000  0.0000  0.6768  0.3232
 SCF Error: norm([F,P])=      0.436480715971, max([F,P])=      0.136742535434
 orbitals (Q,E):
 ---------------
 A :22...32          ( 2.00    -0.5567)  ( 2.00    -0.4863)  ( 2.00    -0.2225)  ( 2.00    -0.1472)
                     ( 2.00    -0.1472)  ( 2.00    -0.0994)  ( 2.00    -0.0990)  ( 2.00    -0.0990)
                     ( 2.00    -0.0609)  ( 2.00    -0.0609)  ( 0.00     0.0354)

 CYCLE    9
  SDIIS (wt  0.353): -0.0107 -0.1066  0.1648 -0.0063  0.0099  0.3911  0.1620  0.3957
 A-DIIS (wt  0.647):  0.0000  0.0000  0.0000  0.0000  0.0000  0.2905  0.0000  0.7095
  DIIS coefficients: -0.0038 -0.0376  0.0581 -0.0022  0.0035  0.3260  0.0571  0.5988
 SCF Error: norm([F,P])=      0.173892279912, max([F,P])=      0.065088692504
 orbitals (Q,E):
 ---------------
 A :22...32          ( 2.00    -0.5596)  ( 2.00    -0.4948)  ( 2.00    -0.2109)  ( 2.00    -0.1330)
                     ( 2.00    -0.1330)  ( 2.00    -0.0930)  ( 2.00    -0.0929)  ( 2.00    -0.0929)
                     ( 2.00    -0.0581)  ( 2.00    -0.0581)  ( 0.00     0.0408)

 CYCLE   10
  SDIIS (wt  0.000): -0.0017  0.0364 -0.0531 -0.0012 -0.0085  0.1460 -0.0324  0.5920  0.3224
 A-DIIS (wt  1.000):  0.0000  0.0000  0.0000  0.0000  0.0000  0.0865  0.0000  0.6054  0.3082
  DIIS coefficients:  0.0000  0.0000  0.0000  0.0000  0.0000  0.0865  0.0000  0.6054  0.3082
 SCF Error: norm([F,P])=      0.227047024416, max([F,P])=      0.097943577670
 orbitals (Q,E):
 ---------------
 A :22...32          ( 2.00    -0.5662)  ( 2.00    -0.4859)  ( 2.00    -0.2194)  ( 2.00    -0.1430)
                     ( 2.00    -0.1430)  ( 2.00    -0.0936)  ( 2.00    -0.0936)  ( 2.00    -0.0925)
                     ( 2.00    -0.0610)  ( 2.00    -0.0610)  ( 0.00     0.0348)

 CYCLE   11
  SDIIS (wt  0.790): -0.0014  0.0303 -0.0442 -0.0014 -0.0021  0.0324  0.0035  0.3790  0.2154  0.3885
 A-DIIS (wt  0.210):  0.0000  0.0000  0.0000  0.0000  0.0000  0.0000  0.0000  0.2565  0.0423  0.7013
  DIIS coefficients: -0.0011  0.0239 -0.0349 -0.0011 -0.0016  0.0256  0.0027  0.3532  0.1791  0.4542
 SCF Error: norm([F,P])=      0.076793974991, max([F,P])=      0.021805621023
 orbitals (Q,E):
 ---------------
 A :22...32          ( 2.00    -0.5602)  ( 2.00    -0.4886)  ( 2.00    -0.2179)  ( 2.00    -0.1406)
                     ( 2.00    -0.1406)  ( 2.00    -0.0956)  ( 2.00    -0.0956)  ( 2.00    -0.0954)
                     ( 2.00    -0.0612)  ( 2.00    -0.0612)  ( 0.00     0.0365)

 CYCLE   12
  SDIIS (wt  0.933):  0.0093 -0.0118 -0.0000 -0.0016  0.0072 -0.0112  0.1113  0.0099  0.1828  0.7041
 A-DIIS (wt  0.067):  0.0000  0.0000  0.0000  0.0000  0.0000  0.0000  0.0000  0.0000  0.0346  0.9654
  DIIS coefficients:  0.0087 -0.0110 -0.0000 -0.0015  0.0067 -0.0104  0.1038  0.0092  0.1728  0.7217
 SCF Error: norm([F,P])=      0.017172922783, max([F,P])=      0.007682495343
 orbitals (Q,E):
 ---------------
 A :22...32          ( 2.00    -0.5614)  ( 2.00    -0.4876)  ( 2.00    -0.2188)  ( 2.00    -0.1417)
                     ( 2.00    -0.1417)  ( 2.00    -0.0956)  ( 2.00    -0.0956)  ( 2.00    -0.0951)
                     ( 2.00    -0.0612)  ( 2.00    -0.0612)  ( 0.00     0.0358)

 CYCLE   13
  SDIIS (wt  0.995): -0.0003 -0.0000 -0.0004  0.0018 -0.0021  0.0137  0.0087  0.0144  0.1913  0.7729
 A-DIIS (wt  0.005):  0.0000  0.0000  0.0000  0.0000  0.0000  0.0000  0.0000  0.0000  0.0815  0.9185
  DIIS coefficients: -0.0003 -0.0000 -0.0004  0.0018 -0.0021  0.0136  0.0087  0.0144  0.1908  0.7737
 SCF Error: norm([F,P])=      0.004119900300, max([F,P])=      0.001512172239
 orbitals (Q,E):
 ---------------
 A :22...32          ( 2.00    -0.5612)  ( 2.00    -0.4877)  ( 2.00    -0.2186)  ( 2.00    -0.1415)
                     ( 2.00    -0.1415)  ( 2.00    -0.0955)  ( 2.00    -0.0955)  ( 2.00    -0.0951)
                     ( 2.00    -0.0612)  ( 2.00    -0.0612)  ( 0.00     0.0359)

 CYCLE   14
  SDIIS (wt  1.000):  0.0000 -0.0001  0.0003 -0.0007  0.0024  0.0013  0.0072  0.0958  0.3631  0.5307
  DIIS coefficients:  0.0000 -0.0001  0.0003 -0.0007  0.0024  0.0013  0.0072  0.0958  0.3631  0.5307
 SCF Error: norm([F,P])=      0.000117393079, max([F,P])=      0.000026663174
 orbitals (Q,E):
 ---------------
 A :22...32          ( 2.00    -0.5612)  ( 2.00    -0.4878)  ( 2.00    -0.2186)  ( 2.00    -0.1415)
                     ( 2.00    -0.1415)  ( 2.00    -0.0955)  ( 2.00    -0.0955)  ( 2.00    -0.0951)
                     ( 2.00    -0.0612)  ( 2.00    -0.0612)  ( 0.00     0.0359)

 CYCLE   15
  SDIIS (wt  1.000): -0.0000 -0.0001 -0.0001  0.0010  0.0002  0.0046  0.0361  0.1210  0.2200  0.6174
  DIIS coefficients: -0.0000 -0.0001 -0.0001  0.0010  0.0002  0.0046  0.0361  0.1210  0.2200  0.6174
 SCF Error: norm([F,P])=      0.000020966670, max([F,P])=      0.000005092819
 orbitals (Q,E):
 ---------------
 A :22...32          ( 2.00    -0.5612)  ( 2.00    -0.4878)  ( 2.00    -0.2186)  ( 2.00    -0.1415)
                     ( 2.00    -0.1415)  ( 2.00    -0.0955)  ( 2.00    -0.0955)  ( 2.00    -0.0951)
                     ( 2.00    -0.0612)  ( 2.00    -0.0612)  ( 0.00     0.0359)

 CYCLE   16
  SDIIS (wt  1.000): -0.0000 -0.0000  0.0000 -0.0000  0.0001  0.0001 -0.0027  0.0167  0.1304  0.8554
  DIIS coefficients: -0.0000 -0.0000  0.0000 -0.0000  0.0001  0.0001 -0.0027  0.0167  0.1304  0.8554
 SCF Error: norm([F,P])=      0.000011489704, max([F,P])=      0.000004690860
 orbitals (Q,E):
 ---------------
 A :22...32          ( 2.00    -0.5612)  ( 2.00    -0.4878)  ( 2.00    -0.2186)  ( 2.00    -0.1415)
                     ( 2.00    -0.1415)  ( 2.00    -0.0955)  ( 2.00    -0.0955)  ( 2.00    -0.0951)
                     ( 2.00    -0.0612)  ( 2.00    -0.0612)  ( 0.00     0.0359)

 CYCLE   17
  SDIIS (wt  1.000): -0.0000  0.0000 -0.0000  0.0001  0.0004 -0.0001  0.0052  0.0437  0.3639  0.5868
  DIIS coefficients: -0.0000  0.0000 -0.0000  0.0001  0.0004 -0.0001  0.0052  0.0437  0.3639  0.5868
 SCF Error: norm([F,P])=      0.000001561603, max([F,P])=      0.000000679598
 orbitals (Q,E):
 ---------------
 A :22...32          ( 2.00    -0.5612)  ( 2.00    -0.4878)  ( 2.00    -0.2186)  ( 2.00    -0.1415)
                     ( 2.00    -0.1415)  ( 2.00    -0.0955)  ( 2.00    -0.0955)  ( 2.00    -0.0951)
                     ( 2.00    -0.0612)  ( 2.00    -0.0612)  ( 0.00     0.0359)

 SCF CONVERGED

 CYCLE   18
1
 ***************************************************************************************************



                                                *******************
                                                *  R E S U L T S  *
                                                *******************
  
 *** Setting up for NEW gradients in Focky
 *** Using FIT density in Focky

 Orbital Energies, per Irrep and Spin:
 ======================================
                        Occup              E (au)              E (eV)       Diff (eV) with prev. cycle
                        -----      --------------------        ------       --------------------------
 A
              22        2.000     -0.56123776508902E+00       -15.272               5.85E-08
              23        2.000     -0.48775313327535E+00       -13.272               6.59E-07
              24        2.000     -0.21861609041384E+00        -5.949              -4.16E-07
              25        2.000     -0.14149185188519E+00        -3.850              -4.73E-07
              26        2.000     -0.14148993325776E+00        -3.850              -4.73E-07
              27        2.000     -0.95529247417072E-01        -2.599              -1.17E-07
              28        2.000     -0.95524821215982E-01        -2.599              -1.17E-07
              29        2.000     -0.95107199415021E-01        -2.588               8.23E-09
              30        2.000     -0.61232637403197E-01        -1.666               1.54E-07
              31        2.000     -0.61229787492778E-01        -1.666               1.54E-07
              32        0.000      0.35925777755093E-01         0.978
              33        0.000      0.20776006641490E+00         5.653
              34        0.000      0.27653015589821E+00         7.525
              35        0.000      0.30431835550201E+00         8.281
              36        0.000      0.30432658267833E+00         8.281
              37        0.000      0.38036322972617E+00        10.350
              38        0.000      0.40008601667789E+00        10.887
              39        0.000      0.40009052093062E+00        10.887
              40        0.000      0.45360309630114E+00        12.343
              41        0.000      0.45360537577952E+00        12.343
  
 HOMO :       31 A                -0.61229787492778E-01
 LUMO :       32 A                 0.35925777755093E-01
  


 All Electron Calculation, thus no Orbital Energies of the Core Orbitals are calculated


 Fit test: (difference of exact and fit density, squared integrated, result summed over spins)
         Sum-of-Fragments:                             0.00085507787973
         Orthogonalized Fragments:                     0.00085756625690
         SCF:                                          0.00085966127514



 ==========================
 Electron Density at Nuclei
 ==========================
  
 The electron density is calculated at points on a small sphere around the center of a nucleus.
 The printed electron density is the average electron density on these points.
 The radius of the sphere is the printed approximate finite nuclear radius.

         Atom        Nuclear Radius (Angstrom)             Electron Density (a.u.)
         ----        -------------------------             -----------------------
     1)   Cl                0.0000426624                             3211.94351
     2)   Br                0.0000536685                            29313.21593
     3)   F                 0.0000361580                              447.55503



 =======================================
 M U L L I K E N   P O P U L A T I O N S
 =======================================
  
 The survey below gives for each atom:
 a) the total charge (Z minus electrons)
 b) the net spin polarization (nr of electrons spin-A minus spin-B)
 c) for each spin the atomic electron valence density (integrated) per L-value.

 Atom              Charge    Spin density          S         P         D         F
 ----              ------    ------------       ------    ------    ------    ------
 1 Cl              0.0288                       5.9757   10.8879    0.0931    0.0146
 2 Br             -0.5248                       7.9932   17.4829   10.0391    0.0096
 3 F              -0.5039                       3.9917    5.4999    0.0113    0.0010

 Populations of individual BAS functions
 ----------------------------------------
 1 Cl           0.5054  1.4528  1.7141  0.2462  0.7280  0.7183  0.7306  1.2707  1.2834  1.2673
                0.6430  1.0817  0.3324  0.2790  0.1673  0.3089  1.0820  0.8077  1.1554  0.4265
                0.1667  0.4959  0.0029  0.0328  0.0040  0.0368  0.0157  0.0009 -0.0036 -0.0017
               -0.0002  0.0107  0.0018 -0.0030  0.0135  0.0097 -0.0059 -0.0067
 2 Br           0.3611  1.5681  2.0732  0.7131  0.7127  0.7132  1.2648  1.2654  1.2646  1.4374
                0.5951  1.1381  1.1314  1.1398  0.8907  0.8972  0.8890  0.2677  0.4014  0.4016
                0.2677  0.4015  0.2676  0.7772  1.1648  1.1655  0.7752  1.1649  0.7777  0.2880
                0.4339  0.4328  0.2917  0.4336  0.2871  0.2715  1.2064  0.4804  0.5973  0.4950
                0.6243  0.9755  0.8575  1.0067  0.3233  0.2371  0.3461  0.0001  0.0115  0.0025
                0.0210  0.0095 -0.0054 -0.0052 -0.0032 -0.0003  0.0119  0.0012 -0.0039  0.0161
                0.0099 -0.0091 -0.0078
 3 F            0.5758  1.4010  1.0906  0.9083  0.0160  0.3932  0.3317  0.4098  0.9385  0.8426
                0.9643  0.5670  0.4557  0.5971 -0.0016  0.0037  0.0006  0.0108  0.0023 -0.0044
               -0.0016 -0.0020 -0.0001  0.0036  0.0001 -0.0016  0.0054  0.0039 -0.0030 -0.0036

 Gross Charges per Atom (Z minus electrons)
 ==========================================
             0.0288   -0.5248   -0.5039
 Net Total: -1.00000000


 Atom-Atom Population Matrix (off-diagonal elements not doubled)
 ===============================================================

     1 :    16.9717
     2 :    -0.0209   35.5396
     3 :     0.0204    0.0061    9.4775


 Frag-Frag Population Matrix (off-diagonal elements not doubled)
 ===============================================================

     1 :    52.4696
     2 :     0.0265    9.4775



 =================================================
 H I R S H F E L D   C H A R G E   A N A L Y S I S
 =================================================
  
 For each fragment: the (numerical) integral of rho(scf) * rho(fragment)/rho(sum-of-fragments)
 (nuclear charges are included, electrons are counted negative)

 The fragments and their ordering are defined in the early G E O M E T R Y output section.
 If you use single-atom fragments, this usually implies that all atoms of the same
 chemical type are grouped together. This may not be the order in which you listed them
 in the input file!

    1  ClBr                     -0.4252
    2  F                        -0.5748

 Sum of these charges (accuracy NumInt/Tails) =          -1.00000014



 =============================
 V O R O N O I   C H A R G E S
 =============================
  
 For each atom: the (numerical) integral of the total electronic charge density in its Voronoi cell,
 i.e. the region of space that is closer to that atom than to any other atom.
 (cf. Wigner-Seitz cells in crystals)

 Within the Voronoi cell the subintegrals over the atomic sphere and the remaining part are evaluated
 separately to give the numbers of electrons (negative charge) in these regions.
 The net total charge in the cell (including the nuclear charge) is also given.

 Values are provided for
    a) the Initial (sum-of-fragments) density
    b) the Orthogonalized-Fragments density
    c) the SCF density
    d) the Voronoi Deformation Density (VDD): the difference SCF-Initial for the complete atomic cell
 ---------------------------------------------------------------------------------------------------
 Total NetCharge:              -1.000                     -1.000                     -1.000   -0.000
 (accuracy NumInt/Tails)

 Remark: the 'NetTotal' Voronoi charges often do not match the Mulliken and/or Hirshfeld charges very
 well. This is caused by the fact that chemically different atoms are not treated in accordance with
 their relative sizes. (Voronoi cells are defined by boundary planes halfway between the atoms.)
 However, the CHANGES in charge, comparing 'Initial' to 'SCF' for instance, do give a fair indication
 of the flow of charge caused by the relaxation from sum-of-fragments to self-consistency.

 Warning: the absolute accuracy of the VDD charges obtained using the Fuzzy Cells (Becke) integration
 scheme is much poorer than the one obtained with an 'equivalent' Voronoi integration grid. 



 =================================================================
 M U L T I P O L E   D E R I V E D   C H A R G E   A N A L Y S I S
 =================================================================

 This charge analysis uses the atomic multipoles (obtained from the fitted density) up to some level X,
 and reconstructs these multipoles exactly (up to level X) by distributing charges over all atoms.
 This is achieved by using Lagrange multipliers and a weight function to keep the multipoles local.

 Dummy atoms can be included (by setting INCDUM in MDC-block to 1) to obtain a fractional charge.
 This is generally useful and necessary only for small symmetrical molecules, when there are not
 enough degrees of freedom to reconstruct the multipoles.

 Since the atomic multipoles are reconstructed up to level X,
 the molecular multipoles are represented also up to level X.
 The recommended level is to reconstruct up to quadrupole : -> MDC-q charges.

 See: M. Swart, P.Th. van Duijnen, J.G. Snijders, J.Comput.Chem., (2001), p. 79-88.

 ------------------------------------------------------------- 
 Atomic electronic multipole moments from SCF equations (a.u.)
 ------------------------------------------------------------- 

   atom        charge        dip-x     dip-y     dip-z      quad-xx   quad-xy   quad-xz   quad-yy   quad-yz   quad-zz
 --------------------------------------------------------------------------------------------------------------------
    1 Cl     0.068193    -0.349484  0.719510 -0.125656    -0.473561 -0.820725  0.143478  1.466792 -0.295814 -0.993231
    2 Br    -0.362128    -0.208843  0.431375 -0.075585    -0.438978 -0.753151  0.132096  1.352168 -0.273237 -0.913190
    3 F     -0.706065    -0.126276  0.259847 -0.045285    -0.025925 -0.045433  0.008032  0.080820 -0.016449 -0.054895

 --------------------------------------- 
 Multipole derived atomic charges (a.u.)
 --------------------------------------- 

 The MDC-m charges are just the Monopole terms in the multipole expansion, while for the MDC-d charges
 also the Dipoles are reconstructed. The usually preferred charges are the MDC-q charges.
 These reconstruct the Monopoles, Dipoles and Quadrupoles (both atomic AND molecular).

        Atom    Level:     MDC-m        MDC-d        MDC-q
 ---------------------------------------------------------
     1     Cl           0.068193    -0.181281    -0.012660
     2     Br          -0.362128    -0.440172    -0.514905
     3     F           -0.706065    -0.378546    -0.472434

 ------------------------------------------------ 
 Average absolute deviations in atomic multipoles
 ------------------------------------------------ 

 Stated here are the average differences between the atomic multipoles
 and the reconstructed atomic multipoles (from the distributed charges).
 If these values are not zero, this means there are not enough degrees of freedom,
 to be able to reconstruct the atomic multipoles. (This usually happens only
 for small and/or highly symmetric molecules). If this is the case, one could add
 dummy atoms as extra point charges (and setting INCDUM in MDC-block to 1).

 Level:                                 MDC-d        MDC-q
 ---------------------------------------------------------
 Charge   (a.u.)                       0.0000       0.0000
 Dipole   (Debye)                      0.0001       0.0080
 Quad.    (a.u.)                       0.4757       0.1897

 --------------------------------------- 
 Represented molecular multipole moments
 --------------------------------------- 

 Given here are the Molecular multipole moments from the atomic charges, and from the Fit Density.
 Note that the atomic charges represent the latter, NOT the ones from the Exact density.

            Q (a.u.)             Dipole moment (Debye)                                          Quadrupole moment (a.u.)
                                 x         y         z              xx        xy        xz        yy        yz        zz
------------------------------------------------------------------------------------------------------------------------
MDC-m        -1.0000       25.0251  -17.7043    0.7111        -68.8432  112.7022   -5.8521  -11.7446    6.4737   80.5878
MDC-d        -1.0000       23.2850  -14.1186    0.0845        -65.2363   84.7764   -1.9349    1.0285    3.3272   64.2078
MDC-q        -1.0000       23.2789  -14.1023    0.0812        -64.5684   86.3784   -2.2156   -0.9621    3.9328   65.5305
 
Fit.Dens.    -1.0000       23.2850  -14.1186    0.0845        -65.0243   86.1412   -2.1730    0.3695    3.8186   64.6548



 =============
 Dipole Moment  ***  (Debye)  ***
 =============
  
 Vector   :        23.27726930    -14.10259048      0.08143316
 Magnitude:        27.21618922

 This molecular dipole moment is calculated with analytic integration
 ************************************************************************************
 Since the molecule is NOT NEUTRAL, the dipole moment depends on the choice of origin
 ************************************************************************************



 =========================================
 Quadrupole Moment (Buckingham convention)  ***  (a.u.)  ***
 =========================================
  
      quad-xx        quad-xy        quad-xz        quad-yy        quad-yz        quad-zz
    -65.00389691    85.21874370    -2.01458164     0.41240429     3.51527284    64.59149262

 This molecular quadrupole moment is calculated with analytic integration
1



                                             *************************
                                             *  SFO MO coefficients  *
                                             *************************
  


                                       === A ===
 MOs expanded in CFs+SFOs
 ========================

 The SFOs have been characterized in an earlier part of output.
 To deduce the bonding / antibonding nature of SFO combinations in an MO, consider the products
 of the coefficients AND THE OVERLAP between the SFOs (may be NEGATIVE). The SFO overlap matrix
 is printed later, in the SFO Populations section.

 (The CF coefficients are not printed)

 MOs :      1        2        3        4        5        6        7        8        9       10
 occup:   2.00     2.00     2.00     2.00     2.00     2.00     2.00     2.00     2.00     2.00
 CF+SFO
     1  -1.0000   0.0000  -0.0000  -0.0000   0.0000   0.0000  -0.0000  -0.0000   0.0000   0.0000
     2   0.0000   1.0000   0.0000   0.0000  -0.0000  -0.0000   0.0000   0.0001   0.0001  -0.0000
     3   0.0000   0.0000  -1.0000  -0.0003   0.0000   0.0000  -0.0000  -0.0000  -0.0001   0.0000
     4   0.0000   0.0000   0.0003  -1.0000   0.0005   0.0000   0.0000  -0.0000  -0.0000   0.0000
     5   0.0000   0.0000   0.0000   0.0005   0.9998  -0.0183  -0.0000  -0.0000  -0.0000   0.0000
     6  -0.0000  -0.0000  -0.0000  -0.0001  -0.0183  -0.9998  -0.0000   0.0000   0.0000  -0.0000
     7   0.0000  -0.0001   0.0000   0.0000  -0.0000  -0.0000   0.0000   1.0000   0.0006  -0.0045
     8   0.0000  -0.0000  -0.0001  -0.0000   0.0000   0.0000   0.0000   0.0000   1.0000  -0.0000
     9   0.0000   0.0000  -0.0000   0.0000  -0.0000  -0.0000   0.0000   0.0046   0.0002   1.0000
    10   0.0000  -0.0000   0.0000   0.0000   0.0000   0.0000   0.0000  -0.0000   0.0000   0.0009
    11  -0.0000  -0.0000  -0.0000  -0.0000  -0.0000   0.0000  -0.0000  -0.0000  -0.0000  -0.0002
    12   0.0000  -0.0000  -0.0000   0.0000   0.0000  -0.0000  -0.0000   0.0000  -0.0016  -0.0000
    13  -0.0000   0.0000   0.0000   0.0000   0.0000   0.0000  -0.0000  -0.0000   0.0000  -0.0000
    14  -0.0000   0.0000   0.0000   0.0000   0.0000  -0.0000  -0.0000  -0.0000   0.0000  -0.0000
    15   0.0000   0.0000   0.0000   0.0000  -0.0000  -0.0000  -0.0000  -0.0000   0.0014   0.0000
    16  -0.0000  -0.0000  -0.0000  -0.0000   0.0000   0.0000  -0.0000   0.0000  -0.0000  -0.0000
    17   0.0000  -0.0000   0.0000   0.0000  -0.0000   0.0000  -0.0000   0.0000   0.0000  -0.0000
    18   0.0000  -0.0000   0.0000   0.0000   0.0000  -0.0000  -0.0000   0.0000   0.0000   0.0000
    19   0.0000   0.0000   0.0000   0.0000  -0.0000  -0.0000   0.0000  -0.0000   0.0000   0.0000
    20   0.0000   0.0000  -0.0000   0.0000  -0.0000  -0.0000   0.0001  -0.0007   0.0026   0.0005
    21   0.0000   0.0000   0.0000   0.0000  -0.0000  -0.0000   0.0001  -0.0005   0.0013   0.0003
    22  -0.0000  -0.0000   0.0000  -0.0000   0.0000   0.0000  -0.0001   0.0001  -0.0021  -0.0002
    23  -0.0000  -0.0000  -0.0000  -0.0000   0.0000   0.0000  -0.0000   0.0000  -0.0000  -0.0000
    24   0.0000   0.0000   0.0000   0.0000  -0.0000   0.0000   0.0000   0.0000   0.0000   0.0000
    25   0.0000   0.0000   0.0000   0.0000   0.0000   0.0000   0.0000  -0.0000   0.0000   0.0000
    26   0.0000   0.0000   0.0000   0.0000   0.0000  -0.0000   0.0000   0.0000   0.0000   0.0000
    27   0.0000   0.0000  -0.0000   0.0000   0.0000  -0.0000   0.0001   0.0000   0.0022   0.0003
    28   0.0000   0.0000   0.0000   0.0000  -0.0000  -0.0000   0.0000  -0.0002   0.0013   0.0001
    29  -0.0000  -0.0000  -0.0000  -0.0000  -0.0000   0.0000   0.0000   0.0000  -0.0000   0.0000
    30  -0.0000  -0.0000  -0.0000  -0.0000  -0.0000  -0.0000   0.0000   0.0000  -0.0000   0.0000
    31  -0.0000  -0.0000   0.0000  -0.0000   0.0000   0.0000  -0.0001   0.0002  -0.0027  -0.0006
    32   0.0000   0.0000   0.0000   0.0000  -0.0000  -0.0000   0.0001  -0.0002   0.0035   0.0006
    33   0.0000   0.0000  -0.0000  -0.0000   0.0000   0.0000  -0.0000  -0.0000   0.0000  -0.0000
    34   0.0000   0.0000  -0.0000  -0.0000   0.0000  -0.0000  -0.0000  -0.0000   0.0000  -0.0000
    35   0.0000   0.0000   0.0000   0.0000   0.0000  -0.0000   0.0000  -0.0000   0.0000  -0.0000
    36  -0.0000   0.0000  -0.0000  -0.0000   0.0000   0.0000   0.0000   0.0000  -0.0000   0.0000
    37  -0.0000  -0.0000  -0.0000  -0.0000   0.0000  -0.0000  -0.0000   0.0000  -0.0000  -0.0000
    38  -0.0000  -0.0000  -0.0000  -0.0000   0.0000   0.0000  -0.0000   0.0000  -0.0000  -0.0000
    39  -0.0000  -0.0000  -0.0000  -0.0000   0.0000   0.0000  -0.0001   0.0002  -0.0010  -0.0003
    40  -0.0000  -0.0000   0.0000  -0.0000  -0.0000  -0.0000   0.0000   0.0003  -0.0004   0.0002
    41  -0.0000   0.0000  -0.0000  -0.0000  -0.0000  -0.0000   0.0000   0.0000  -0.0000  -0.0000
    42   0.0000   0.0000   0.0000   0.0000  -0.0000   0.0000   0.0000  -0.0000   0.0000  -0.0000
    43  -0.0000   0.0000   0.0000  -0.0000  -0.0000  -0.0000  -0.0000  -0.0000  -0.0000  -0.0000
    44  -0.0000   0.0000   0.0000  -0.0000  -0.0000   0.0000  -0.0000  -0.0000  -0.0000  -0.0000
    45   0.0000  -0.0000  -0.0000   0.0000  -0.0000   0.0000   0.0000   0.0004   0.0000   0.0003
    46   0.0000   0.0000  -0.0000   0.0000   0.0000  -0.0000   0.0000  -0.0000   0.0000   0.0000
    47   0.0000  -0.0000  -0.0000   0.0000  -0.0000  -0.0000   0.0000   0.0000   0.0000   0.0000
    48   0.0000   0.0000   0.0000   0.0000   0.0000   0.0000   0.0000   0.0000   0.0000   0.0000
    49   0.0000   0.0000  -0.0000   0.0000   0.0000  -0.0000   0.0000   0.0000   0.0000   0.0000
    50  -0.0000   0.0000   0.0000  -0.0000  -0.0000   0.0000  -0.0000  -0.0000  -0.0000  -0.0000
    51  -0.0000   0.0000   0.0000  -0.0000  -0.0000  -0.0000  -0.0000  -0.0000  -0.0000  -0.0000
    52  -0.0000  -0.0000   0.0000  -0.0000   0.0000   0.0000  -0.0000   0.0000  -0.0004  -0.0003
    53  -0.0000   0.0000  -0.0000  -0.0000  -0.0000  -0.0000  -0.0000  -0.0000  -0.0000  -0.0000
    54  -0.0000  -0.0000  -0.0000  -0.0000  -0.0000   0.0000  -0.0000  -0.0000  -0.0000  -0.0000
    55   0.0000  -0.0000  -0.0000   0.0000  -0.0000  -0.0000  -0.0000   0.0000  -0.0000  -0.0000
    56   0.0000   0.0000  -0.0000   0.0000  -0.0000   0.0000   0.0000   0.0000   0.0000  -0.0000
    57  -0.0000  -0.0000   0.0000  -0.0000  -0.0000   0.0000  -0.0000  -0.0000  -0.0004  -0.0003
    58   0.0000   0.0000  -0.0000   0.0000   0.0000   0.0000   0.0000   0.0000   0.0000   0.0000
    59  -0.0000  -0.0000   0.0000  -0.0000   0.0000  -0.0000  -0.0000   0.0000  -0.0000  -0.0000
    60  -0.0000   0.0000   0.0000   0.0000   0.0000  -0.0000  -0.0001  -0.0001  -0.0007   0.0001
    61  -0.0000  -0.0000   0.0000  -0.0000   0.0000   0.0000  -0.0000  -0.0000  -0.0000  -0.0000
    62  -0.0000  -0.0000  -0.0000  -0.0000   0.0000  -0.0000  -0.0000  -0.0000  -0.0000  -0.0000
    63   0.0000   0.0000  -0.0000  -0.0000   0.0000   0.0000  -0.0000  -0.0009   0.0001  -0.0004
    64   0.0000  -0.0000  -0.0000   0.0000  -0.0000  -0.0000   0.0000   0.0000   0.0000   0.0000
    65  -0.0000  -0.0000  -0.0000  -0.0000   0.0000  -0.0000   0.0000   0.0000  -0.0000  -0.0000
    66   0.0000   0.0000  -0.0000  -0.0000  -0.0000  -0.0000   0.0000  -0.0002   0.0004   0.0005
    67   0.0000  -0.0000  -0.0000  -0.0000   0.0000  -0.0000  -0.0000   0.0000   0.0000  -0.0000
    68  -0.0000   0.0000   0.0000   0.0000  -0.0000  -0.0000   0.0000  -0.0000  -0.0000   0.0000
    69  -0.0000   0.0000   0.0000   0.0000  -0.0000  -0.0000   0.0000  -0.0003  -0.0004   0.0002
    70   0.0000   0.0000  -0.0000  -0.0000   0.0000   0.0000   0.0000  -0.0000   0.0000   0.0000
    71  -0.0000   0.0000   0.0000   0.0000  -0.0000   0.0000  -0.0000  -0.0000  -0.0000   0.0000
    72  -0.0000  -0.0000  -0.0000  -0.0000  -0.0000  -0.0000  -0.0000   0.0001  -0.0001  -0.0001
    73   0.0000   0.0000  -0.0000  -0.0000   0.0000  -0.0000   0.0000   0.0000   0.0000  -0.0000
    74  -0.0000  -0.0000   0.0000   0.0000  -0.0000  -0.0000   0.0000   0.0000   0.0000   0.0000
    75  -0.0000  -0.0000   0.0000   0.0000  -0.0000  -0.0000  -0.0000   0.0000  -0.0001  -0.0000
    76   0.0000   0.0001  -0.0000   0.0000  -0.0000   0.0000   0.0000  -0.0003  -0.0001   0.0001
    77   0.0000  -0.0000  -0.0001  -0.0000   0.0000   0.0000  -0.0000   0.0001  -0.0001  -0.0000
    78  -0.0000   0.0000  -0.0000   0.0000  -0.0000  -0.0000   0.0000  -0.0000  -0.0000   0.0000
    79   0.0000  -0.0000   0.0000  -0.0000   0.0000  -0.0000  -0.0000  -0.0000   0.0000  -0.0000
    80  -0.0000   0.0000   0.0000  -0.0000  -0.0000  -0.0000  -0.0000  -0.0002   0.0001  -0.0005
    81  -0.0000   0.0000   0.0000   0.0000  -0.0000   0.0000  -0.0000  -0.0000   0.0000  -0.0000
    82  -0.0000   0.0000  -0.0000   0.0000  -0.0000  -0.0000  -0.0000   0.0000   0.0000  -0.0000
    83  -0.0000  -0.0000  -0.0000  -0.0000   0.0000   0.0000  -0.0000   0.0000   0.0000  -0.0000
    84  -0.0000  -0.0000  -0.0000  -0.0000   0.0000  -0.0000  -0.0000   0.0000   0.0000  -0.0000
    85  -0.0000  -0.0000  -0.0000  -0.0000  -0.0000  -0.0000   0.0000   0.0000   0.0002   0.0001
    86  -0.0000   0.0000   0.0000   0.0000   0.0001  -0.0000  -0.0000   0.0000  -0.0000  -0.0000
    87   0.0000   0.0000  -0.0000  -0.0000  -0.0000  -0.0001   0.0000  -0.0000   0.0000   0.0000
    88   0.0000   0.0000  -0.0000   0.0001  -0.0000  -0.0000  -0.0000   0.0000   0.0000  -0.0000
    89   0.0000   0.0001  -0.0000  -0.0000   0.0000   0.0000  -0.0000   0.0000  -0.0000  -0.0000
    90  -0.0001   0.0000   0.0000   0.0000  -0.0000   0.0000  -0.0000   0.0000   0.0000   0.0000
    91  -0.0000  -0.0000  -0.0000  -0.0000   0.0000   0.0000   1.0000   0.0001  -0.0004  -0.0001
    92  -0.0000  -0.0000  -0.0000  -0.0000   0.0000   0.0000  -0.0003   0.0003  -0.0039  -0.0007
    93  -0.0000  -0.0000   0.0000  -0.0000   0.0000   0.0000   0.0000  -0.0000  -0.0003  -0.0001
    94  -0.0000  -0.0000   0.0000  -0.0000  -0.0000   0.0000   0.0000  -0.0000  -0.0002  -0.0001
    95   0.0000   0.0000  -0.0000   0.0000   0.0000   0.0000  -0.0000   0.0001   0.0018   0.0007
    96  -0.0000  -0.0000  -0.0000  -0.0000   0.0000   0.0000  -0.0001   0.0007  -0.0044  -0.0004
    97   0.0000   0.0000   0.0000   0.0000  -0.0000  -0.0000   0.0002  -0.0000   0.0017   0.0004
    98   0.0000   0.0000   0.0000   0.0000   0.0000   0.0000   0.0001  -0.0000   0.0010   0.0002
    99  -0.0000  -0.0000  -0.0000  -0.0000  -0.0000   0.0000  -0.0000   0.0000  -0.0003  -0.0001
   100   0.0000  -0.0000  -0.0000   0.0000   0.0000   0.0000   0.0000   0.0002   0.0001   0.0002
   101  -0.0000   0.0000   0.0000  -0.0000  -0.0000   0.0000  -0.0000  -0.0001  -0.0000  -0.0000
   102  -0.0000   0.0000   0.0000  -0.0000   0.0000  -0.0000  -0.0000  -0.0002  -0.0001  -0.0001
   103   0.0000  -0.0000  -0.0000   0.0000  -0.0000  -0.0000   0.0000   0.0002   0.0001   0.0001
   104  -0.0000   0.0000   0.0000  -0.0000   0.0000   0.0000  -0.0000  -0.0003  -0.0001  -0.0002
   105   0.0000   0.0000  -0.0000   0.0000  -0.0000  -0.0000  -0.0001   0.0001   0.0015   0.0004
   106  -0.0000  -0.0000  -0.0000   0.0000   0.0000   0.0000   0.0000   0.0000  -0.0000  -0.0000
   107  -0.0000  -0.0000  -0.0000   0.0000  -0.0000   0.0000   0.0000   0.0000  -0.0000  -0.0000
   108   0.0000   0.0000   0.0000  -0.0000  -0.0000   0.0000  -0.0000  -0.0001   0.0000   0.0000
   109   0.0000   0.0000   0.0000  -0.0000   0.0000   0.0000  -0.0000  -0.0002   0.0001   0.0000
   110  -0.0000  -0.0000  -0.0000   0.0000  -0.0000   0.0000   0.0000   0.0001  -0.0000  -0.0000
   111   0.0000   0.0000   0.0000  -0.0000  -0.0000   0.0000  -0.0000  -0.0000   0.0000   0.0000
   112   0.0000   0.0000   0.0000  -0.0000  -0.0000  -0.0000  -0.0000  -0.0001   0.0000   0.0000
   113  -0.0000  -0.0000  -0.0000   0.0000  -0.0000  -0.0000   0.0001   0.0001  -0.0000   0.0001
   114  -0.0000  -0.0000  -0.0000   0.0000   0.0000   0.0000   0.0002   0.0001  -0.0000   0.0001
   115  -0.0000  -0.0000  -0.0000   0.0000   0.0000  -0.0000   0.0000   0.0000  -0.0000   0.0000
   116  -0.0000   0.0000   0.0000  -0.0000   0.0000   0.0000  -0.0002  -0.0000  -0.0001  -0.0000

 MOs :     11       12       13       14       15       16       17       18       19       20
 occup:   2.00     2.00     2.00     2.00     2.00     2.00     2.00     2.00     2.00     2.00
 CF+SFO
     1  -0.0000  -0.0000   0.0000  -0.0000   0.0000  -0.0000  -0.0000  -0.0000  -0.0000  -0.0000
     2  -0.0000   0.0000  -0.0000  -0.0000   0.0000   0.0000  -0.0000  -0.0000  -0.0000  -0.0000
     3  -0.0000  -0.0000  -0.0000   0.0000  -0.0000  -0.0000  -0.0000   0.0000   0.0000  -0.0000
     4  -0.0000  -0.0000   0.0000   0.0000  -0.0000  -0.0000  -0.0000   0.0000   0.0000  -0.0000
     5  -0.0000   0.0000  -0.0000  -0.0000   0.0000   0.0000  -0.0000  -0.0000  -0.0000  -0.0000
     6   0.0000   0.0000   0.0000   0.0000   0.0000   0.0000  -0.0000   0.0000  -0.0000   0.0000
     7  -0.0000   0.0000  -0.0000  -0.0000   0.0000   0.0000  -0.0000  -0.0000  -0.0000  -0.0000
     8   0.0000  -0.0000   0.0016  -0.0000   0.0000   0.0014   0.0000  -0.0000  -0.0000   0.0000
     9   0.0003  -0.0009  -0.0000  -0.0000   0.0000   0.0000  -0.0000  -0.0000  -0.0000  -0.0000
    10  -0.4782   0.8783  -0.0000  -0.0000   0.0000   0.0000  -0.0000  -0.0000  -0.0000  -0.0000
    11  -0.8783  -0.4782   0.0000  -0.0000  -0.0000  -0.0000   0.0000  -0.0000  -0.0000  -0.0000
    12   0.0000   0.0000   1.0000  -0.0005   0.0002   0.0007   0.0000  -0.0000  -0.0000   0.0000
    13   0.0000  -0.0000   0.0004   0.9582   0.2859   0.0000  -0.0005  -0.0005  -0.0000  -0.0000
    14  -0.0000  -0.0000   0.0004   0.2859  -0.9582   0.0000  -0.0005   0.0005  -0.0000   0.0000
    15  -0.0000  -0.0000   0.0007  -0.0000   0.0000  -1.0000  -0.0006   0.0000   0.0000  -0.0000
    16  -0.0000   0.0000   0.0000   0.0006  -0.0003  -0.0006   0.9996   0.0271   0.0006   0.0001
    17  -0.0000  -0.0000   0.0000   0.0003   0.0006   0.0001  -0.0271   0.9996   0.0000   0.0005
    18  -0.0000   0.0000   0.0000   0.0000  -0.0000   0.0000  -0.0006  -0.0000   1.0000  -0.0004
    19   0.0000  -0.0000   0.0000  -0.0000  -0.0000   0.0000   0.0001   0.0005  -0.0004  -1.0000
    20  -0.0000   0.0000  -0.0002  -0.0000   0.0000   0.0010   0.0000  -0.0000  -0.0000  -0.0000
    21  -0.0000   0.0000  -0.0001  -0.0000   0.0000  -0.0012  -0.0000   0.0000   0.0000  -0.0000
    22   0.0000  -0.0000   0.0004  -0.0000   0.0000  -0.0004   0.0000   0.0000   0.0000   0.0000
    23  -0.0001   0.0002   0.0000   0.0001  -0.0000  -0.0000   0.0000   0.0000  -0.0000  -0.0000
    24  -0.0002  -0.0001  -0.0000   0.0000   0.0001   0.0000  -0.0000   0.0000   0.0000  -0.0000
    25   0.0001  -0.0001  -0.0000   0.0001   0.0000   0.0000  -0.0001  -0.0001  -0.0000  -0.0000
    26  -0.0001  -0.0001  -0.0000   0.0000  -0.0001   0.0000  -0.0001   0.0001  -0.0000   0.0000
    27  -0.0000   0.0000   0.0001  -0.0000   0.0000   0.0004  -0.0000  -0.0000  -0.0000   0.0000
    28  -0.0000  -0.0000  -0.0002   0.0000  -0.0000   0.0003  -0.0000  -0.0000  -0.0000  -0.0000
    29  -0.0000  -0.0000   0.0000  -0.0000   0.0000  -0.0000   0.0000  -0.0000   0.0000   0.0000
    30   0.0000  -0.0000   0.0000  -0.0000  -0.0000  -0.0000   0.0000   0.0000   0.0000   0.0000
    31   0.0000   0.0000   0.0002   0.0000  -0.0000  -0.0003   0.0000   0.0000   0.0000   0.0000
    32  -0.0000  -0.0000  -0.0003  -0.0000   0.0000  -0.0000  -0.0000  -0.0000  -0.0000  -0.0000
    33  -0.0000   0.0000  -0.0000   0.0000   0.0000   0.0000  -0.0002  -0.0001  -0.0000  -0.0000
    34   0.0000   0.0000   0.0000   0.0000  -0.0000   0.0000  -0.0001   0.0002   0.0000  -0.0000
    35  -0.0000  -0.0000  -0.0000   0.0000  -0.0000  -0.0000   0.0000  -0.0000  -0.0005   0.0001
    36   0.0000  -0.0000   0.0000   0.0000   0.0000   0.0000   0.0000   0.0000  -0.0001  -0.0005
    37  -0.0002  -0.0002   0.0000   0.0000  -0.0000  -0.0000  -0.0000   0.0000   0.0000  -0.0000
    38   0.0002  -0.0002   0.0000   0.0000   0.0000  -0.0000  -0.0000  -0.0000   0.0000  -0.0000
[...]
  113    7.32534421576253E-16 -1.51493113165852E-16  1.80439193588847E-18 -4.70466662860509E-16
  114    2.51531515884848E-16  2.86394544960888E-16  4.37550115497259E-16 -7.57057719465160E-16
  115    1.52763874344971E-16  1.83297294511120E-16 -9.29497163323223E-16 -2.02919553888095E-16
  116   -6.69603261727048E-16 -1.20996962449382E-16  1.58944038486375E-16 -8.58688120608520E-17

 column         101                   102                   103                   104
 row
  101    9.99999999999994E-01
  102    5.49915176939410E-16  9.99999999999999E-01
  103    1.37199220422699E-15 -1.85714006564579E-15  1.00000000000000E+00
  104    6.85950997609056E-16  1.31277401330208E-15 -3.32040303455475E-16  1.00000000000000E+00
  105    6.95278524424220E-17  1.79181349662175E-16 -1.26936357475529E-16  6.48915329023309E-16
  106    5.15195190552338E-16  6.58852507802259E-16 -2.25627766050154E-16  4.20895330171872E-16
  107   -1.28958712164570E-15 -2.53786741106913E-16 -3.16012322511055E-16  3.99353164740827E-16
  108    3.23659759475341E-17 -9.88133813190290E-17  7.52041590351520E-16  1.46775139649646E-16
  109    5.03647908019775E-17 -1.47189762277327E-16  4.39324649521757E-16  4.85034782520335E-16
  110    9.18757579645426E-17 -7.40139930409649E-16  7.84095434657990E-16 -3.51738054643874E-16
  111   -5.54262202964278E-16  3.29760831915295E-16 -2.08772445674504E-18 -7.75854651114153E-17
  112   -5.33921712587591E-16 -2.48933665835619E-16 -1.78821572417828E-16 -8.04014261445623E-16
  113   -9.75672899744995E-17 -2.81624478918425E-16  1.97465402861606E-16  4.29911572378920E-18
  114    2.16358896266587E-16 -7.88774021142150E-17 -1.60654198006881E-16  6.76861487052070E-16
  115   -1.42232819590876E-16  1.51815832718756E-16 -5.02250303656806E-17  7.16653400848182E-18
  116   -3.31765864780564E-17 -3.32199545649559E-16  1.29670579829266E-16 -1.52655665885959E-16

 column         105                   106                   107                   108
 row
  105    1.00000000000000E+00
  106    3.35470786891855E-16  9.99999999999999E-01
  107   -2.27262751396591E-16  2.09048869582884E-16  9.99999999999999E-01
  108   -2.23960593451721E-16  8.45009597301547E-17  6.51403170668513E-16  9.99999999999997E-01
  109    2.70450843794720E-16  8.01233875796260E-17 -2.21980442179277E-16  6.85077494882200E-16
  110   -1.89427060192163E-16  1.00479685708691E-15  2.25063853865519E-16 -4.50263233002599E-16
  111   -3.42891219026276E-16  4.90770810229803E-16 -8.07217872401036E-16  6.80024837472709E-16
  112    1.52453225011565E-16  6.53560934162084E-16 -8.52175654853996E-16  2.56712075269374E-16
  113   -3.92655675226887E-16  2.49457502773937E-16  7.56332129866718E-17  3.69764080431747E-16
  114   -4.76684731726303E-16 -1.04157830990937E-15 -5.61047095690463E-16  8.05711291955447E-16
  115   -2.86263678370537E-16  9.12245749165613E-17  1.03729043060702E-15 -3.41400070462194E-17
  116   -3.95516952522712E-16 -2.29417179697933E-16 -6.67868538251071E-17 -1.76074432811646E-16

 column         109                   110                   111                   112
 row
  109    1.00000000000000E+00
  110   -1.05061401269838E-14  9.99999999999999E-01
  111    3.06385157790800E-16 -4.91975423429696E-16  9.99999999999999E-01
  112    1.77964163316970E-16 -2.52853946073749E-16 -1.54495482327888E-15  1.00000000000000E+00
  113   -2.35418196370993E-16  7.96913584248790E-16  2.51136533833631E-16  4.57080895315931E-16
  114   -2.35000397369759E-16  9.74236120108215E-17 -2.23868902135180E-16 -3.42745741117585E-16
  115   -1.35211339974612E-16 -2.69291943904199E-16 -2.69611407674211E-16 -1.69087178620406E-16
  116   -8.00141203294302E-16  5.09358180633690E-16  4.08202117940792E-17  1.17961196366423E-16

 column         113                   114                   115                   116
 row
  113    1.00000000000000E+00
  114   -1.48752283955127E-15  1.00000000000000E+00
  115   -6.20056440054322E-17 -3.75428825024747E-17  9.99999999999999E-01
  116    1.46150452851046E-16 -2.63677968348475E-16  2.81892564846231E-17  1.00000000000000E+00


 SFO contributions (%) per orbital
 (multiplication by the orbital occupation yields the SFO Gross Populations)

 Orb.:       22     23     24     25     26     27     28     29     30     31     32     33     34     35
 occup:     2.00   2.00   2.00   2.00   2.00   2.00   2.00   2.00   2.00   2.00   0.00   0.00   0.00   0.00
 CF+SFO     ----   ----   ----   ----   ----   ----   ----   ----   ----   ----   ----   ----   ----   ----
 ------
     20:   93.89   3.10   0.61   0.00   0.00   0.00   0.00   0.32   0.00   0.00   0.27   0.13  -0.01  -0.00
     21:    2.29  95.42   0.73   0.00   0.00   0.00   0.00   0.40   0.00   0.00   0.15  -0.06  -0.04  -0.00
     22:   -0.00   0.00  53.86   0.00   0.00   0.35   0.02  40.81   0.00   0.00   3.60   0.12   0.23  -0.00
     23:    0.00   0.00   0.00  45.41   2.06  51.90   0.05   0.44   0.10   0.01   0.00  -0.00   0.00   0.07
     24:    0.00  -0.00   0.00   2.06  45.41   0.05  52.32   0.03   0.01   0.10   0.00  -0.00  -0.00   0.03
     25:    0.00   0.00   0.00   6.55   0.20   7.01   1.36   0.05  84.62   0.07   0.00  -0.00  -0.00   0.13
     26:    0.00   0.00   0.00   0.20   6.54   1.34   7.06   0.03   0.07  84.62   0.00  -0.00  -0.00   0.00
     27:    0.02  -0.00   3.22   0.00   0.00   0.19   0.01  22.28   0.00   0.00  72.88  -0.22  -0.12  -0.00
     28:   -0.00  -0.00   0.21  -0.00  -0.00   0.00   0.00   0.00   0.00   0.00   0.50  -2.07 102.19   0.00
     29:   -0.00   0.00   0.00   0.00   0.00   0.10   0.06   0.00   0.02   0.06   0.00   0.00   0.00  10.78
     30:    0.00  -0.00   0.00   0.00   0.00   0.06   0.10   0.00   0.06   0.02   0.00   0.00   0.00  88.85
     31:    0.08  -0.02   0.01   0.00   0.00   0.00   0.00   0.09   0.00   0.00   0.70  -5.12   0.14   0.00
     32:   -0.02   0.05   0.05   0.00   0.00  -0.00  -0.00  -0.08  -0.00  -0.00   0.24 -17.11  -0.48   0.00
     92:    2.25   0.55   1.01   0.00   0.00  -0.00  -0.00  -0.03  -0.00  -0.00   0.24   0.98  -0.17  -0.00
     93:    0.04   0.02   1.07  44.00   0.49  37.55   0.66   0.18  13.48   0.87   0.51   0.04  -0.00   0.01
     94:    0.03   0.02   0.76   0.30  44.56   0.79  36.58   1.01   0.72  13.75   0.36   0.03  -0.00   0.00
     95:    1.60   0.87  38.41   1.42   0.68   0.13   1.24  32.54   0.55   0.13  18.31   1.46  -0.02   0.00
     96:    0.03   0.02  -0.03   0.00   0.00   0.00   0.00   0.43   0.00   0.00   0.97 127.95  -2.20   0.00
     97:   -0.23  -0.08  -0.23  -0.10  -0.01   0.12   0.00   0.48   0.05   0.01   0.32  -3.59   0.04   0.00
     98:   -0.07  -0.03  -0.08  -0.33  -0.00   0.19   0.02   0.20   0.19   0.00   0.10  -1.15   0.01   0.00


 Summation over all MOs, multiplied by occupation: Total SFO Gross Populations in this Irrep
 ===========================================================================================

     2.00    2.00    2.00    2.00    2.00    2.00    2.00    2.00    2.00    2.00    2.00    2.00
     2.00    2.00    2.00    2.00    2.00    2.00    2.00    1.99    1.99    1.92    2.00    2.00
     2.00    2.00    0.53    0.00    0.00    0.00    0.01   -0.00   -0.00   -0.00    0.00    0.00
     0.01    0.01    0.00    0.02    0.00    0.00    0.00    0.00    0.00    0.00    0.00    0.00
     0.00    0.00    0.00    0.00    0.00    0.00    0.00    0.00    0.00    0.00    0.00    0.00
     0.00    0.00   -0.00    0.00    0.00   -0.00    0.00    0.00    0.00    0.00    0.00   -0.00
     0.00    0.00   -0.00   -0.00    0.00    0.00    0.00   -0.00    0.00    0.00    0.00    0.00
    -0.00    0.00    0.00    0.00   -0.00    0.00    2.00    1.99    1.97    1.97    1.56    0.01
    -0.00    0.00    0.00    0.00    0.00    0.00    0.00    0.00   -0.00    0.00    0.00    0.00
     0.00    0.00    0.00    0.00    0.00    0.00    0.00   -0.00



 List of all MOs, ordered by energy, with the most significant SFO gross populations
 ===================================================================================

 Each percentage contribution in the table below corresponds to the indicated SFO.
 In general, a SFO may be a linear combination of several Fragment Orbitals on the same,
 or on symmetry-related Fragments. Only the first 'member' of such a combination is
 specified here. A full definition of all SFOs is given in an earlier part of the output.
 The numbering of the SFOs in this table does NOT include the Core Orbitals, and starts
 from one for each symmetry representation, as in the SFO definition list earlier.

       E(eV)  Occ       MO           %     SFO (first member)   E(eV)  Occ   Fragment
 -------------------------------------------------------------------------------------

     -15.272  2.00    22 A         93.89%    20 A             -20.942  2.00     1 ClBr
                                    2.29%    21 A             -19.278  2.00     1 ClBr
                                    2.25%     2 A             -15.093  2.00     2 F
                                    1.60%     5 A               2.944  2.00     2 F
     -13.272  2.00    23 A         95.42%    21 A             -19.278  2.00     1 ClBr
                                    3.10%    20 A             -20.942  2.00     1 ClBr
      -5.949  2.00    24 A         53.86%    22 A             -10.496  2.00     1 ClBr
                                   38.41%     5 A               2.944  2.00     2 F
                                    3.22%    27 A              -6.361  0.00     1 ClBr
                                    1.07%     3 A               2.944  2.00     2 F
                                    1.01%     2 A             -15.093  2.00     2 F
      -3.850  2.00    25 A         45.41%    23 A              -8.645  2.00     1 ClBr
                                   44.00%     3 A               2.944  2.00     2 F
                                    6.55%    25 A              -7.473  2.00     1 ClBr
                                    2.06%    24 A              -8.645  2.00     1 ClBr
                                    1.42%     5 A               2.944  2.00     2 F
      -3.850  2.00    26 A         45.41%    24 A              -8.645  2.00     1 ClBr
                                   44.56%     4 A               2.944  2.00     2 F
                                    6.54%    26 A              -7.473  2.00     1 ClBr
                                    2.06%    23 A              -8.645  2.00     1 ClBr
      -2.599  2.00    27 A         51.90%    23 A              -8.645  2.00     1 ClBr
                                   37.55%     3 A               2.944  2.00     2 F
                                    7.01%    25 A              -7.473  2.00     1 ClBr
                                    1.34%    26 A              -7.473  2.00     1 ClBr
      -2.599  2.00    28 A         52.32%    24 A              -8.645  2.00     1 ClBr
                                   36.58%     4 A               2.944  2.00     2 F
                                    7.06%    26 A              -7.473  2.00     1 ClBr
                                    1.36%    25 A              -7.473  2.00     1 ClBr
                                    1.24%     5 A               2.944  2.00     2 F
      -2.588  2.00    29 A         40.81%    22 A             -10.496  2.00     1 ClBr
                                   32.54%     5 A               2.944  2.00     2 F
                                   22.28%    27 A              -6.361  0.00     1 ClBr
                                    1.01%     4 A               2.944  2.00     2 F
      -1.666  2.00    30 A         84.62%    25 A              -7.473  2.00     1 ClBr
                                   13.48%     3 A               2.944  2.00     2 F
      -1.666  2.00    31 A         84.62%    26 A              -7.473  2.00     1 ClBr
                                   13.75%     4 A               2.944  2.00     2 F
       0.978  0.00    32 A         72.88%    27 A              -6.361  0.00     1 ClBr
                                   18.31%     5 A               2.944  2.00     2 F
                                    3.60%    22 A             -10.496  2.00     1 ClBr
       5.653  0.00    33 A        127.95%     6 A               7.773  0.00     2 F
                                  -17.11%    32 A               5.346  0.00     1 ClBr
                                   -5.12%    31 A               4.843  0.00     1 ClBr
                                   -3.59%     7 A              22.092  0.00     2 F
                                   -2.07%    28 A               2.946  0.00     1 ClBr
                                    1.46%     5 A               2.944  2.00     2 F
                                   -1.15%     8 A              22.092  0.00     2 F



 =======================================================================
 Electrostatic potential at the Nuclei due to electrons and other nuclei
 =======================================================================
  
         Atom                  Potential
         ----                  ---------
     1)   Cl                 64.58384419
     2)   Br                176.14894720
     3)   F                  26.84208634
 
 
 ========================
 No memory problems found
 ========================
 
 Maximum number of active allocate calls:         636
 
 *******************************************************************************

                             A D F   E X I T
 NORMAL TERMINATION



 =================
 Timing Statistics
 =================
  
 Total Used :                     CPU=        6.38      System=        0.21     Elapsed=        7.15

 Calls  Section                     ( Mean, Percentage )
 ---------------------------------------------------------------------------------------------------
     3  ><      ................      0.00    0.00             0.00    0.00             0.00    0.02
     1  INIT    ................      0.45    7.09             0.03   12.21             0.48    6.72
     1  GEOMET  ................      0.04    0.56             0.00    1.88             0.51    7.07
     1  FRAGM   ................      0.01    0.14             0.01    4.69             0.03    0.36
     1  INPUTA  ................      0.00    0.00             0.00    0.00             0.00    0.01
     1  ATDEN   ................      0.01    0.09             0.00    0.00             0.02    0.26
     1  MAINSY  ................      0.01    0.14             0.00    1.41             0.02    0.24
     1  SYMFIT  ................      0.00    0.02             0.00    0.47             0.00    0.03
     1  CORORT  ................      0.00    0.02             0.00    0.00             0.00    0.01
     1  SYMORB  ................      0.00    0.05             0.00    0.00             0.00    0.05
     1  CLSMAT  ................      0.01    0.13             0.00    0.00             0.01    0.11
     1  ORTHON  ................      0.01    0.13             0.00    0.94             0.01    0.14
     1  GENPT   ................      0.12    1.84             0.01    3.29             0.13    1.75
     1  PTBAS   ................      0.04    0.60             0.00    0.47             0.04    0.54
    18  FOCKY   ................      0.12   34.33             0.00    8.92             0.12   31.03
    18  FOCKTR  ................      0.00    0.55             0.00    0.47             0.00    0.54
    18  SDIIS   ................      0.00    1.10             0.00    0.94             0.00    0.99
     1  COREPS  ................      0.10    1.62             0.00    0.47             0.10    1.46
     1  TOTEN   ................      0.33    5.19             0.00    1.88             0.34    4.73
     1  POPAN   ................      0.00    0.06             0.00    0.47             0.01    0.12
     1  DEBYE   ................      0.00    0.06             0.00    0.00             0.00    0.06
     1  INPUTE  ................      0.00    0.00             0.00    0.00             0.00    0.02
     1  SYMORE  ................      0.00    0.02             0.00    0.00             0.00    0.02
     1  METS    ................      0.00    0.00             0.00    0.47             0.00    0.01
     1  CETS    ................      0.01    0.17             0.00    1.88             0.03    0.38
     1  POPUL   ................      2.91   45.69             0.12   57.75             3.07   42.90
     1  EXIT PROCEDURE .........      0.03    0.42             0.00    1.41             0.03    0.44


 Currently Open Files (EXIT00)
 ====================

 Unit    Access Format  Status   Type       Ident (file)
 -------------------------------------------------------
   3      SEQ    FORM   TRANSP  NORMAL      LOGFILE
                                          ( logfile )


 Buffered I/O statistics
 =======================
 Memory available:                     67108864
 Number of records fitting in memory:     16131
 Input :   1.2% of                        57469  *4k bytes
 Output:  13.0% of                         4357  *4k bytes
 Records from serial files evicted:           0
                    others evicted:           0
 Hash table lookups:     164165 with          0 conflicts (  0.00%)

 ***************************************************************************************************
 (LOGFILE)
 <May09-2019> <17:11:57>  ADF 2017  RunTime: May09-2019 17:11:57  Nodes: 1  Procs: 12
 <May09-2019> <17:11:57>  *** (NO TITLE) ***
 <May09-2019> <17:11:57>  RunType   : SINGLE POINT
 <May09-2019> <17:11:58>  Net Charge: -1 (Nuclei minus Electrons)
 <May09-2019> <17:11:58>  Symmetry  : NOSYM
 <May09-2019> <17:11:58>  >>>> FRAGM
  Coordinates
    Atom         X           Y           Z   (Angstrom)
    1.Cl       -5.003273    3.263878   -0.074901
    2.Br       -3.920693    1.025248    0.317390
    3.F        -5.851414    5.009792   -0.379690
 <May09-2019> <17:11:58>  >>>> CORORT
 <May09-2019> <17:11:58>  >>>> CLSMAT
 <May09-2019> <17:11:58>  >>>> ORTHON
 <May09-2019> <17:11:58>  >>>> GENPT
 <May09-2019> <17:11:58>  Block Length= 128
 <May09-2019> <17:11:58>  >>>> PTBAS
 <May09-2019> <17:11:58>  >>>> CYCLE
 <May09-2019> <17:11:58>              |Error|         MaxErr       Wt(A-DIIS)
 <May09-2019> <17:11:58>      1      1.25075705      0.74167185
 <May09-2019> <17:11:58>      2      1.57280055      0.66938725    100.0
 <May09-2019> <17:11:59>      3      0.81486550      0.39018169    100.0
 <May09-2019> <17:11:59>      4      0.77334809      0.39448051    100.0
 <May09-2019> <17:11:59>      5      2.23770921      0.67385300    100.0
 <May09-2019> <17:11:59>      6      0.77523049      0.26114784    100.0
 <May09-2019> <17:11:59>      7      0.28523660      0.08020481     80.0
 <May09-2019> <17:11:59>      8      0.43648072      0.13674254    100.0
 <May09-2019> <17:11:59>      9      0.17389228      0.06508869     64.7
 <May09-2019> <17:11:59>     10      0.22704702      0.09794358    100.0
 <May09-2019> <17:11:59>     11      0.07679397      0.02180562     21.0
 <May09-2019> <17:12:00>     12      0.01717292      0.00768250      6.7
 <May09-2019> <17:12:00>     13      0.00411990      0.00151217      0.5
 <May09-2019> <17:12:00>     14      0.00011739      0.00002666      0.0
 <May09-2019> <17:12:00>     15      0.00002097      0.00000509      0.0
 <May09-2019> <17:12:00>     16      0.00001149      0.00000469      0.0
 <May09-2019> <17:12:00>     17      0.00000156      0.00000068      0.0
 <May09-2019> <17:12:00>  SCF converged
 <May09-2019> <17:12:00>     18      0.00000052      0.00000023      0.0
 <May09-2019> <17:12:00>  >>>> TOTEN
 <May09-2019> <17:12:01>  >>>> POPAN
 <May09-2019> <17:12:01>  >>>> DEBYE
 <May09-2019> <17:12:01>  >>>> AMETS
 <May09-2019> <17:12:04>   Bond Energy          -0.11017157 a.u.
 <May09-2019> <17:12:04>   Bond Energy          -2.99792091 eV
 <May09-2019> <17:12:04>   Bond Energy         -69.13       kcal/mol
 <May09-2019> <17:12:04>  >>>> POPUL
 <May09-2019> <17:12:04>  NORMAL TERMINATION
 <May09-2019> <17:12:04>  END
