

 Parallel Execution: Process Information
 ==============================================================================
 Rank   Node Name                              NodeID   MyNodeRank  NodeMaster
    0   BAZIS-cn076                               0          0          0
    1   BAZIS-cn076                               0          1         -1
    2   BAZIS-cn076                               0          2         -1
    3   BAZIS-cn076                               0          3         -1
    4   BAZIS-cn076                               0          4         -1
    5   BAZIS-cn076                               0          5         -1
    6   BAZIS-cn076                               0          6         -1
    7   BAZIS-cn076                               0          7         -1
    8   BAZIS-cn076                               0          8         -1
    9   BAZIS-cn076                               0          9         -1
   10   BAZIS-cn076                               0         10         -1
   11   BAZIS-cn076                               0         11         -1
 ==============================================================================


May use up to 30736MB of RAM as shared memory on node 0


XC
    GGA BP86
END

SCF
    iterations 250
END

EPRINT
    SFO Eig Ovl
END

ZLMFIT
    Quality normal
END

BECKEGRID
    Quality good
End

SYMMETRY nosym
CHARGE -1

ATOMS
1.F        -4.925125    3.099637   -0.045734 f=FCl
2.Cl       -3.873652    1.278883    0.085098 f=FCl
3.Cl       -5.976604    4.920399   -0.176566 f=Cl
END

Fragments
FCl /home/tcst25/advanced_comp_chemistry/exercise2/halogen/ClFCl/frag1_FCl.t21
Cl /home/tcst25/advanced_comp_chemistry/exercise2/halogen/ClFCl/frag2_Cl.t21
End
end input

 *******************************************************************************
 *                                                                             *
 *  -------------------------------------                                      *
 *   Amsterdam Density Functional  (ADF)         2017                          *
 *  -------------------------------------                                      *
 *                                               r58813 2017-04-12             *
 *                                                                             *
 *                                                                             *
 *                              =================                              *
 *                              |               |                              *
 *                              |     A D F     |                              *
 *                              |               |                              *
 *                              =================                              *
 *                                                                             *
 *                                                                             *
 *   Online information and documentation:  https://www.scm.com/support/       *
 *   E-mail:  support@scm.com   info@scm.com                                   *
 *                                                                             *
 *   Scientific publications using ADF results must be properly referenced     *
 *   See the User Manuals (or the web site) for recommended citations          *
 *   The terms and conditions of the End User License Agreement apply to       *
 *   the use of ADF, https://www.scm.com/license-terms/                        *
 *                                                                             *
 **********************  x86_64_linux_intel / intelmpi  ************************
 
 Licensed to: VU/FEW (+ SARA) / ALGEMEEN / Amsterdam / THE NETHERLANDS
 SCM User ID: u7668
  
 ADF 2017  RunTime: May09-2019 17:12:08  Nodes: 1  Procs: 12

 Temporary files are created in /local/datastore0/tcst25/189781/kid_0.2KKP7I


Communication costs MPI_COMM_WORLD:      2.702 usec per message,   0.0110 usec per 8-byte item
Communication costs for intra-node:      2.719 usec per message,   0.0109 usec per 8-byte item

 *** (NO TITLE) ***



 ===========================
 A T T A C H E D   F I L E S
 ===========================
  



 ===============================
 M O D E L   P A R A M E T E R S
 ===============================
  
 DENSITY FUNCTIONAL POTENTIAL (scf)
    LDA:                               VWN                                      
    Gradient Corrections:              Becke88 Perdew86                        == Not Default ==

 SPIN  (restricted / unrestr.)
    Molecule:                          Restricted                               
    Fragments:                         Restricted                               

 OTHER ASPECTS
    Relativistic Corrections:          ---                                      

    Nuclear Charge Density Model:      Point Charge Nuclei                      
    Core Treatment:                    Frozen Orbital(s)                        

    Hyperfine or Zeeman Interaction:   ---                                      


 Fragment File(s)
 ----------------
 FCl:
         file : /home/tcst25/advanced_comp_chemistry/exercise2/halogen/ClFCl/frag1_FCl.t21
         jobid: ADF 2017  RunTime: May09-2019 16:32:27  Nodes: 1  Procs: 12
         title: *** (NO TITLE) ***
 Cl:
         file : /home/tcst25/advanced_comp_chemistry/exercise2/halogen/ClFCl/frag2_Cl.t21
         jobid: ADF 2017  RunTime: May09-2019 16:32:26  Nodes: 1  Procs: 12
         title: *** (NO TITLE) ***



                                        ************************************
                                        *  R U N   T Y P E : SINGLE POINT  *
                                        ************************************
  



 ===============
 G E O M E T R Y  ***  Linear Molecule  ***
 ===============
  

 ATOMS
 =====                            X Y Z                    CHARGE
                                (Angstrom)             Nucl     +Core       At.Mass
                       --------------------------    ----------------       -------
    1  F              -4.9251    3.0996   -0.0457      9.00      9.00       18.9984
    2  Cl             -3.8737    1.2789    0.0851     17.00     17.00       34.9689
    3  Cl             -5.9766    4.9204   -0.1766     17.00     17.00       34.9689


 FRAGMENTS
 =========                                     Atoms in this Fragment     Cart. coord.s (Angstrom)
                                               -------------------------------------------------------
    1  FCl                                               1  F           -4.9251    3.0996   -0.0457
                                                         2  Cl          -3.8737    1.2789    0.0851
    2  Cl                                                3  Cl          -5.9766    4.9204   -0.1766


 Interatomic Distance Matrix (Angstrom)
 --------------------------------------

   1)     0.000
   2)     2.107   0.000
   3)     2.107   4.213   0.000

 Min. Distance =    2.1066
 Max. Distance =    4.2133



 =====================================
 S Y M M E T R Y ,   E L E C T R O N S
 =====================================
  
 Symmetry: NOSYM

 Irreducible Representations, including subspecies
 -------------------------------------------------
 A


 Configuration of Valence Electrons
 ==================================
 ( determined in the SCF procedure )

 Total:   44

 Net Charge: -1 (Nuclei minus Electrons)

 Aufbau principle for MO occupations will be applied through SCF cycle no.     125
 Thereafter, the program will assign electrons to MOs that are spatially
 similar to the occupied MOs in a "reference" cycle ("KeepOrbitals").
 The reference cycle is always the PREVIOUS cycle: it will evolve with
 the SCF procedure.
1
 ***************************************************************************************************



                                      ****************************************
                                      *  B U I L D : (Fragments, Functions)  *
                                      ****************************************
  

 The individual fragments are copies of the corresponding 'Master' fragments defined on the fragment files.
 However, they may have been rotated (and translated) with respect to the Master. The local coordinate axes
 of each fragment (which define for instance the spatial orientation in the current molecule of a fragment
 P:x orbital) are not necessarily those of the molecule.
 The local frame (if different from the molecular one) is printed to enable an interpretation of the expan-
 sion of an MO in Fragment Orbitals.



                                             *************************
                                             *  Fragment Type : FCl  *
                                             *************************
  

 Fragment no.    1   (in the list of all fragments)
 -----------------
 The local coordinate frame is identical to the molecular frame.

 Check Atomic Coordinates:

                  Master (on file)          After Computed Tranformation               As specified on Input
           ----------------------------     ----------------------------     ---------------------------------
     1)    -4.92513   3.09964  -0.04573     -4.92513   3.09964  -0.04573       1  -4.92513   3.09964  -0.04573
     2)    -3.87365   1.27888   0.08510     -3.87365   1.27888   0.08510       2  -3.87365   1.27888   0.08510



                                              ************************
                                              *  Fragment Type : Cl  *
                                              ************************
  

 Fragment no.    2   (in the list of all fragments)
 -----------------
 The local coordinate frame is identical to the molecular frame.

 Check Atomic Coordinates:

                  Master (on file)          After Computed Tranformation               As specified on Input
           ----------------------------     ----------------------------     ---------------------------------
     1)    -5.97660   4.92040  -0.17657     -5.97660   4.92040  -0.17657       3  -5.97660   4.92040  -0.17657



 =======
 S F O s  ***  (Symmetrized Fragment Orbitals)  ***
 =======
  
 SFOs are linear combinations of (valence) Fragment Orbitals (FOs), such that the SFOs transform as the
 irreducible representations of the (molecular) symmetry group. Each SFO is therefore characterized by
 an irrep of the molecule and by a few (or only one) generating FOs.
 The SFOs constitute a symmetry-adapted basis for the Fock matrix. The MO eigenvector coefficients in
 this basis provide a direct interpretation of the MOs in terms of Frontier Orbital Theory.

 The SFOs are combined with auxiliary Core Functions (CFs) to ensure orthogonalization on the (frozen)
 Core Orbitals (COs). The Core-orthogonalized SFOs (CSFOs) constitute the true Fock basis.

 The FOs, and hence also the (C)SFOs are combinations of the elementary basis functions (BAS). The basis
 functions that participate in the description of the SFOs depend on the irrep. The indices of the
 involved functions are printed below for each irrep.
 (The complete list of primitive basis functions is printed in another section)

 Total nr. of (C)SFOs (summation over all irreps) :    94

 NOTE: a (C)SFO that is defined as a combination of more than one FO is usually NOT normalized.



                                       === A ===
 Nr. of SFOs :   94
 Cartesian basis functions that participate in this irrep (total number =   106) :
      1     2     3     4     5     6     9    12     7    10
     13     8    11    14    15    16    17    18    19    20
     21    22    23    24    25    26    27    28    29    30
     31    32    33    34    41    42    43    35    38    44
     47    50    36    39    45    48    51    37    40    46
     49    52    53    54    55    56    57    58    59    60
     61    62    63    64    65    66    67    68    69    70
     71    72    79    80    81    73    76    82    85    88
     74    77    83    86    89    75    78    84    87    90
     91    92    93    94    95    96    97    98    99   100
    101   102   103   104   105   106

    SFO  (index         Fragment          Generating    Expansion in Fragment Orbitals
  indx  incl.CFs)   Occup   Orb.Energy   FragmentType  Coeff.   Orbital     on Fragment
 --------------------------------------------------------------------------------------
     1       1      2.000    -100.823 au  FCl           1.00      1 A               1
                        (   -2743.536 eV)
     2       2      2.000     -24.330 au  FCl           1.00      2 A               1
                        (    -662.047 eV)
     3       3      2.000      -9.270 au  FCl           1.00      3 A               1
                        (    -252.260 eV)
     4       4      2.000      -7.108 au  FCl           1.00      4 A               1
                        (    -193.408 eV)
     5       5      2.000      -7.086 au  FCl           1.00      5 A               1
                        (    -192.807 eV)
     6       6      2.000      -7.086 au  FCl           1.00      6 A               1
                        (    -192.807 eV)
     7       7      2.000      -1.057 au  FCl           1.00      7 A               1
                        (     -28.752 eV)
     8       8      2.000      -0.785 au  FCl           1.00      8 A               1
                        (     -21.362 eV)
     9       9      2.000      -0.440 au  FCl           1.00      9 A               1
                        (     -11.986 eV)
    10      10      2.000      -0.371 au  FCl           1.00     10 A               1
                        (     -10.100 eV)
    11      11      2.000      -0.371 au  FCl           1.00     11 A               1
                        (     -10.100 eV)
    12      12      2.000      -0.322 au  FCl           1.00     12 A               1
                        (      -8.757 eV)
    13      13      2.000      -0.322 au  FCl           1.00     13 A               1
                        (      -8.757 eV)
    14      14       --        -0.288 au  FCl           1.00     14 A               1
                        (      -7.834 eV)
    15      15       --         0.039 au  FCl           1.00     15 A               1
                        (       1.073 eV)
    16      16       --         0.183 au  FCl           1.00     16 A               1
                        (       4.973 eV)
    17      17       --         0.217 au  FCl           1.00     17 A               1
                        (       5.915 eV)
    18      18       --         0.217 au  FCl           1.00     18 A               1
                        (       5.915 eV)
    19      19       --         0.272 au  FCl           1.00     19 A               1
                        (       7.392 eV)
    20      20       --         0.316 au  FCl           1.00     20 A               1
                        (       8.608 eV)
    21      21       --         0.316 au  FCl           1.00     21 A               1
                        (       8.608 eV)
    22      22       --         0.366 au  FCl           1.00     22 A               1
                        (       9.957 eV)
    23      23       --         0.366 au  FCl           1.00     23 A               1
                        (       9.957 eV)
    24      24       --         0.442 au  FCl           1.00     24 A               1
                        (      12.024 eV)
    25      25       --         0.548 au  FCl           1.00     25 A               1
                        (      14.909 eV)
    26      26       --         0.548 au  FCl           1.00     26 A               1
                        (      14.909 eV)
    27      27       --         0.718 au  FCl           1.00     27 A               1
                        (      19.528 eV)
    28      28       --         1.041 au  FCl           1.00     28 A               1
                        (      28.315 eV)
    29      29       --         1.041 au  FCl           1.00     29 A               1
                        (      28.315 eV)
    30      30       --         1.049 au  FCl           1.00     30 A               1
                        (      28.535 eV)
    31      31       --         1.049 au  FCl           1.00     31 A               1
                        (      28.535 eV)
    32      32       --         1.177 au  FCl           1.00     32 A               1
                        (      32.028 eV)
    33      33       --         1.177 au  FCl           1.00     33 A               1
                        (      32.029 eV)
    34      34       --         1.233 au  FCl           1.00     34 A               1
                        (      33.542 eV)
    35      35       --         1.299 au  FCl           1.00     35 A               1
                        (      35.355 eV)
    36      36       --         1.299 au  FCl           1.00     36 A               1
                        (      35.355 eV)
    37      37       --         1.381 au  FCl           1.00     37 A               1
                        (      37.576 eV)
    38      38       --         1.515 au  FCl           1.00     38 A               1
                        (      41.228 eV)
    39      39       --         1.515 au  FCl           1.00     39 A               1
                        (      41.228 eV)
    40      40       --         1.821 au  FCl           1.00     40 A               1
                        (      49.562 eV)
    41      41       --         2.086 au  FCl           1.00     41 A               1
                        (      56.763 eV)
    42      42       --         2.086 au  FCl           1.00     42 A               1
                        (      56.764 eV)
    43      43       --         2.094 au  FCl           1.00     43 A               1
                        (      56.976 eV)
    44      44       --         2.469 au  FCl           1.00     44 A               1
                        (      67.187 eV)
    45      45       --         3.467 au  FCl           1.00     45 A               1
                        (      94.341 eV)
    46      46       --         3.467 au  FCl           1.00     46 A               1
                        (      94.341 eV)
    47      47       --         3.489 au  FCl           1.00     47 A               1
                        (      94.930 eV)
    48      48       --         3.489 au  FCl           1.00     48 A               1
                        (      94.931 eV)
    49      49       --         3.598 au  FCl           1.00     49 A               1
                        (      97.915 eV)
    50      50       --         3.598 au  FCl           1.00     50 A               1
                        (      97.915 eV)
    51      51       --         3.758 au  FCl           1.00     51 A               1
                        (     102.267 eV)
    52      52       --         4.705 au  FCl           1.00     52 A               1
                        (     128.028 eV)
    53      53       --         4.705 au  FCl           1.00     53 A               1
                        (     128.028 eV)
    54      54       --         5.108 au  FCl           1.00     54 A               1
                        (     139.008 eV)
    55      55       --        13.076 au  FCl           1.00     55 A               1
                        (     355.816 eV)
    56      56       --        18.826 au  FCl           1.00     56 A               1
                        (     512.292 eV)
    57      57       --        18.826 au  FCl           1.00     57 A               1
                        (     512.294 eV)
    58      58       --        19.194 au  FCl           1.00     58 A               1
                        (     522.290 eV)
    59      59       --        49.027 au  FCl           1.00     59 A               1
                        (    1334.085 eV)
    60      60       --       216.050 au  FCl           1.00     60 A               1
                        (    5879.018 eV)
    61      61      2.000    -100.372 au  Cl            1.00      1 A               2
                        (   -2731.270 eV)
    62      62      2.000      -8.827 au  Cl            1.00      2 A               2
                        (    -240.193 eV)
    63      63      2.000      -6.649 au  Cl            1.00      3 A               2
                        (    -180.916 eV)
    64      64      2.000      -6.649 au  Cl            1.00      4 A               2
                        (    -180.916 eV)
    65      65      2.000      -6.649 au  Cl            1.00      5 A               2
                        (    -180.916 eV)
    66      66      2.000      -0.385 au  Cl            1.00      6 A               2
                        (     -10.473 eV)
    67      67      2.000       0.033 au  Cl            1.00      7 A               2
                        (       0.909 eV)
    68      68      2.000       0.033 au  Cl            1.00      8 A               2
                        (       0.909 eV)
    69      69      2.000       0.033 au  Cl            1.00      9 A               2
                        (       0.909 eV)
    70      70       --         0.475 au  Cl            1.00     10 A               2
                        (      12.914 eV)
    71      71       --         0.489 au  Cl            1.00     11 A               2
                        (      13.299 eV)
    72      72       --         0.489 au  Cl            1.00     12 A               2
                        (      13.299 eV)
    73      73       --         0.489 au  Cl            1.00     13 A               2
                        (      13.299 eV)
    74      74       --         0.741 au  Cl            1.00     14 A               2
                        (      20.162 eV)
    75      75       --         0.741 au  Cl            1.00     15 A               2
                        (      20.162 eV)
    76      76       --         0.741 au  Cl            1.00     16 A               2
                        (      20.162 eV)
    77      77       --         0.741 au  Cl            1.00     17 A               2
                        (      20.162 eV)
    78      78       --         0.741 au  Cl            1.00     18 A               2
                        (      20.162 eV)
    79      79       --         1.518 au  Cl            1.00     19 A               2
                        (      41.294 eV)
    80      80       --         1.518 au  Cl            1.00     20 A               2
                        (      41.294 eV)
    81      81       --         1.518 au  Cl            1.00     21 A               2
                        (      41.294 eV)
    82      82       --         1.518 au  Cl            1.00     22 A               2
                        (      41.294 eV)
    83      83       --         1.518 au  Cl            1.00     23 A               2
                        (      41.294 eV)
    84      84       --         1.518 au  Cl            1.00     24 A               2
                        (      41.294 eV)
    85      85       --         1.518 au  Cl            1.00     25 A               2
                        (      41.294 eV)
    86      86       --         2.351 au  Cl            1.00     26 A               2
                        (      63.962 eV)
    87      87       --         2.448 au  Cl            1.00     27 A               2
                        (      66.612 eV)
    88      88       --         2.448 au  Cl            1.00     28 A               2
                        (      66.612 eV)
    89      89       --         2.448 au  Cl            1.00     29 A               2
                        (      66.612 eV)
    90      90       --        13.113 au  Cl            1.00     30 A               2
                        (     356.814 eV)
    91      91       --        19.210 au  Cl            1.00     31 A               2
                        (     522.735 eV)
    92      92       --        19.210 au  Cl            1.00     32 A               2
                        (     522.735 eV)
    93      93       --        19.210 au  Cl            1.00     33 A               2
                        (     522.735 eV)
    94      94       --       215.062 au  Cl            1.00     34 A               2
                        (    5852.138 eV)



 ================================
 (Slater-type)  F U N C T I O N S  ***  (Basis and Fit)  ***
 ================================
  

 Atom Type    1  (F)
 ==============

 Valence Basis Sets:  10
 -----------------------
   1 S   10.880000
   1 S    7.700000
   2 S    3.240000
   2 S    1.940000
   2 S    0.740000
   2 P    4.540000
   2 P    2.300000
   2 P    1.240000
   3 D    2.000000
   4 F    3.000000

 Atom Type    2  (Cl)
 ==============

 Valence Basis Sets:  14
 -----------------------
   1 S   20.300000
   1 S   15.250000
   2 S    6.250000
   2 S    4.450000
   2 P    8.850000
   2 P    5.050000
   3 S    3.450000
   3 S    2.300000
   3 S    1.600000
   3 P    3.350000
   3 P    2.050000
   3 P    1.200000
   3 D    2.000000
   4 F    2.000000

 Atom Type    3  (Cl)
 ==============

 Valence Basis Sets:  14
 -----------------------
   1 S   20.300000
   1 S   15.250000
   2 S    6.250000
   2 S    4.450000
   2 P    8.850000
   2 P    5.050000
   3 S    3.450000
   3 S    2.300000
   3 S    1.600000
   3 P    3.350000
   3 P    2.050000
   3 P    1.200000
   3 D    2.000000
   4 F    2.000000


 BAS: List of all Elementary Cartesian Basis Functions
 =====================================================

 The numbering in the list below (to the right of the function characteristics) is referred
 to in print-outs of MO eigenvectors and Mulliken populations in the BAS representation
 (as contrasted to the SFO representation).

 Notes:
 1. The functions are characterized by a polynomial prefactor (powers of x,y,z and r) and
    an exponential decay factor alpha.
 2. Since the basis sets are specific for an atom TYPE, the individual functions occur on
    all atoms of that type.
 3. The word 'Core' in the left margin signals that it is a Core Function (CF) : not a
    degree of freedom in the valence set, but only used to ensure orthogonalization of
    the other valence basis functions on the frozen Core Orbitals.


 (power of) X  Y  Z  R     Alpha  on Atom
            ==========     =====     ==========

 F                                    1
                                  ---------------------------------------------------------------------------
            0  0  0  0    10.880      1
            0  0  0  0     7.700      2
            0  0  0  1     3.240      3
            0  0  0  1     1.940      4
            0  0  0  1     0.740      5
            1  0  0  0     4.540      6
            0  1  0  0     4.540      7
            0  0  1  0     4.540      8
            1  0  0  0     2.300      9
            0  1  0  0     2.300     10
            0  0  1  0     2.300     11
            1  0  0  0     1.240     12
            0  1  0  0     1.240     13
            0  0  1  0     1.240     14
            2  0  0  0     2.000     15
            1  1  0  0     2.000     16
            1  0  1  0     2.000     17
            0  2  0  0     2.000     18
            0  1  1  0     2.000     19
            0  0  2  0     2.000     20
            3  0  0  0     3.000     21
            2  1  0  0     3.000     22
            2  0  1  0     3.000     23
            1  2  0  0     3.000     24
            1  1  1  0     3.000     25
            1  0  2  0     3.000     26
            0  3  0  0     3.000     27
            0  2  1  0     3.000     28
            0  1  2  0     3.000     29
            0  0  3  0     3.000     30

 Cl                                   2
                                  ---------------------------------------------------------------------------
            0  0  0  0    20.300     31
            0  0  0  0    15.250     32
            0  0  0  1     6.250     33
            0  0  0  1     4.450     34
            1  0  0  0     8.850     35
            0  1  0  0     8.850     36
            0  0  1  0     8.850     37
            1  0  0  0     5.050     38
            0  1  0  0     5.050     39
            0  0  1  0     5.050     40
            0  0  0  2     3.450     41
            0  0  0  2     2.300     42
            0  0  0  2     1.600     43
            1  0  0  1     3.350     44
            0  1  0  1     3.350     45
            0  0  1  1     3.350     46
            1  0  0  1     2.050     47
            0  1  0  1     2.050     48
            0  0  1  1     2.050     49
            1  0  0  1     1.200     50
            0  1  0  1     1.200     51
            0  0  1  1     1.200     52
            2  0  0  0     2.000     53
            1  1  0  0     2.000     54
            1  0  1  0     2.000     55
            0  2  0  0     2.000     56
            0  1  1  0     2.000     57
            0  0  2  0     2.000     58
            3  0  0  0     2.000     59
            2  1  0  0     2.000     60
            2  0  1  0     2.000     61
            1  2  0  0     2.000     62
            1  1  1  0     2.000     63
            1  0  2  0     2.000     64
            0  3  0  0     2.000     65
            0  2  1  0     2.000     66
            0  1  2  0     2.000     67
            0  0  3  0     2.000     68

 Cl                                   3
                                  ---------------------------------------------------------------------------
            0  0  0  0    20.300     69
            0  0  0  0    15.250     70
            0  0  0  1     6.250     71
            0  0  0  1     4.450     72
            1  0  0  0     8.850     73
            0  1  0  0     8.850     74
            0  0  1  0     8.850     75
            1  0  0  0     5.050     76
            0  1  0  0     5.050     77
            0  0  1  0     5.050     78
            0  0  0  2     3.450     79
            0  0  0  2     2.300     80
            0  0  0  2     1.600     81
            1  0  0  1     3.350     82
            0  1  0  1     3.350     83
            0  0  1  1     3.350     84
            1  0  0  1     2.050     85
            0  1  0  1     2.050     86
            0  0  1  1     2.050     87
            1  0  0  1     1.200     88
            0  1  0  1     1.200     89
            0  0  1  1     1.200     90
            2  0  0  0     2.000     91
            1  1  0  0     2.000     92
            1  0  1  0     2.000     93
            0  2  0  0     2.000     94
            0  1  1  0     2.000     95
            0  0  2  0     2.000     96
            3  0  0  0     2.000     97
            2  1  0  0     2.000     98
            2  0  1  0     2.000     99
            1  2  0  0     2.000    100
            1  1  1  0     2.000    101
            1  0  2  0     2.000    102
            0  3  0  0     2.000    103
            0  2  1  0     2.000    104
            0  1  2  0     2.000    105
            0  0  3  0     2.000    106

 Total number of charge fitting functions (nprimf)       297
 Total number of Cartesian basis functions (naos)        106
 Total number of Cartesian core functions  (ncos)          0

1
 ***************************************************************************************************



                                              ***********************
                                              *  T E C H N I C A L  *
                                              ***********************
  



 =============================================================
 P A R A L L E L I Z A T I O N  and  V E C T O R I Z A T I O N
 =============================================================
  
 Nr of parallel processes:                               12
 Maximum vector length in NumInt loops:                 128

 IO buffersize (Mb):                                     64.000000



 =====================
 S C F   U P D A T E S
 =====================
  
 Max. nr. of cycles:                               250
 Convergence criterion:                              0.0000010000
   secondary criterion:                              0.0010000000

 Mix parameter (when DIIS does not apply):           0.2000000000
 Mixed ADIIS+DIIS will be used
    Max number of expansion vectors:                10
    Pure ADIIS when Max([F,P]) is above              0.1000000000
    Pure DIIS when Max([F,P]) is below               0.0010000000
 Automatic ElectronSmearing (in case of problematic SCF convergence) disabled



 =================
 P R E C I S I O N  ***  (General: NumInt, NeglectFunctionTails, ...)  ***
 =================
  

 NumInt:           Target precision:                 6.0000000000
 -------           Initial precision:                6.0000000000
                   Min. precision (optimization):    6.0000000000

 Neglect Functions:          Basis functions:        0.1000000000E-07
 ------------------          Fit functions:          0.1000000000E-07



 ===========================
 L I N E A R   S C A L I N G
 ===========================
  

 Cut-off radii density fit:                        0.1000000000E-09
 Overlap cut-off criterion AO matrix elements:     0.1000000000E-07
 Cut-offs for Coulomb potential and fitted density:0.1000000000E-09
 Cut-off criterion for Coulomb multipole terms:    0.1000000000E-09
 Progressive Convergence parameter:                 0.000000000    
1
 ***************************************************************************************************



                                            ***************************
                                            *  C O M P U T A T I O N  *
                                            ***************************
  

 Number of elements of the density matrix on this node (used, total):       741      5671



 ===========================================
 Numerical Integration : Fuzzy Cells (Becke)
 ===========================================
  
 Becke grid quality: GOOD           
  
 Lebedev angular grid order:             min:  11 max:  31
 Nr. of radial points:                   min:  65 max:  80

 Total nr. of points:      48616
 Nr. of blocks:              380
 Block length:               128
 Nr. of dummy points:         24


 Test of Precision of the Numerical Integration Grid
 ===================================================

 Integral of the Total Core Density:                   0.00000000000000



 ========================
 Density Fitting (zlmFit)
 ========================
  
 ZlmFit Fit Quality: NORMAL         
  
 Max L-expansion:                        min:   7 max:   7
 Nr. of radial interpolation points:     min:  51 max:  60



 =====
 S C F  ***  ScaSCF  ***
 =====
  
 Initial density matrix is calculated as sum of fragments

 CYCLE    1
 SCF Error: norm([F,P])=      1.022025182076, max([F,P])=      0.654220571027
 orbitals (Q,E):
 ---------------
 A :13...32          ( 2.00    -0.6695)  ( 2.00    -0.3947)  ( 2.00    -0.2764)  ( 2.00    -0.2266)
                     ( 2.00    -0.2266)  ( 2.00    -0.1329)  ( 2.00    -0.1329)  ( 2.00    -0.1253)
                     ( 2.00     0.0343)  ( 2.00     0.0343)  ( 0.00     0.0764)  ( 0.00     0.2042)
                     ( 0.00     0.3108)  ( 0.00     0.3391)  ( 0.00     0.3391)  ( 0.00     0.3995)
                     ( 0.00     0.4406)  ( 0.00     0.4406)  ( 0.00     0.4758)  ( 0.00     0.4776)

 CYCLE    2
  SDIIS (wt  0.000):  0.5443  0.4557
 A-DIIS (wt  1.000):  0.8510  0.1490
  DIIS coefficients:  0.8510  0.1490
 SCF Error: norm([F,P])=      1.121107774062, max([F,P])=      0.344360098250
 orbitals (Q,E):
 ---------------
 A :13...23          ( 2.00    -0.5879)  ( 2.00    -0.4730)  ( 2.00    -0.2219)  ( 2.00    -0.1575)
                     ( 2.00    -0.1575)  ( 2.00    -0.1006)  ( 2.00    -0.1006)  ( 2.00    -0.0949)
                     ( 2.00    -0.0328)  ( 2.00    -0.0328)  ( 0.00     0.0263)

 CYCLE    3
  SDIIS (wt  0.000):  0.2295 -0.2110  0.9815
 A-DIIS (wt  1.000):  0.7471  0.0000  0.2529
  DIIS coefficients:  0.7471  0.0000  0.2529
 SCF Error: norm([F,P])=      0.589279286225, max([F,P])=      0.225128482397
 orbitals (Q,E):
 ---------------
 A :13...23          ( 2.00    -0.5703)  ( 2.00    -0.4825)  ( 2.00    -0.2361)  ( 2.00    -0.1618)
                     ( 2.00    -0.1618)  ( 2.00    -0.1169)  ( 2.00    -0.1169)  ( 2.00    -0.0968)
                     ( 2.00    -0.0435)  ( 2.00    -0.0435)  ( 0.00     0.0075)

 CYCLE    4
  SDIIS (wt  0.000): -0.7762  0.2460  1.5302
 A-DIIS (wt  1.000):  0.0000  0.6051  0.3949
  DIIS coefficients:  0.0000  0.6051  0.3949
 SCF Error: norm([F,P])=      0.626389801349, max([F,P])=      0.306478380600
 orbitals (Q,E):
 ---------------
 A :13...23          ( 2.00    -0.7502)  ( 2.00    -0.3449)  ( 2.00    -0.3012)  ( 2.00    -0.3012)
                     ( 2.00    -0.2787)  ( 2.00    -0.1222)  ( 2.00    -0.1222)  ( 2.00    -0.1128)
                     ( 2.00     0.1210)  ( 2.00     0.1210)  ( 0.00     0.1625)

 CYCLE    5
  SDIIS (wt  0.000): -0.1525  0.7203  0.2152  0.2170
 A-DIIS (wt  1.000):  0.0000  0.7510  0.0000  0.2490
  DIIS coefficients:  0.0000  0.7510  0.0000  0.2490
 SCF Error: norm([F,P])=      1.589912600284, max([F,P])=      0.476699218990
 orbitals (Q,E):
 ---------------
 A :13...23          ( 2.00    -0.5692)  ( 2.00    -0.4748)  ( 2.00    -0.2089)  ( 2.00    -0.1430)
                     ( 2.00    -0.1430)  ( 2.00    -0.0965)  ( 2.00    -0.0965)  ( 2.00    -0.0854)
                     ( 2.00    -0.0367)  ( 2.00    -0.0367)  ( 0.00     0.0281)

 CYCLE    6
  SDIIS (wt  0.000): -0.1717 -0.1410  0.7942 -0.0815  0.6000
 A-DIIS (wt  1.000):  0.0000  0.0000  0.4638  0.0000  0.5362
  DIIS coefficients:  0.0000  0.0000  0.4638  0.0000  0.5362
 SCF Error: norm([F,P])=      0.556436687299, max([F,P])=      0.183215636799
 orbitals (Q,E):
 ---------------
 A :13...23          ( 2.00    -0.5273)  ( 2.00    -0.5116)  ( 2.00    -0.2171)  ( 2.00    -0.1435)
                     ( 2.00    -0.1435)  ( 2.00    -0.0848)  ( 2.00    -0.0848)  ( 2.00    -0.0800)
                     ( 2.00    -0.0676)  ( 2.00    -0.0676)  ( 0.00     0.0036)

 CYCLE    7
  SDIIS (wt  0.430):  0.0345 -0.2648  0.2331  0.0226  0.0633  0.9113
 A-DIIS (wt  0.570):  0.0000  0.0000  0.0000  0.0000  0.0000  1.0000
  DIIS coefficients:  0.0148 -0.1138  0.1002  0.0097  0.0272  0.9619
 SCF Error: norm([F,P])=      0.128717534418, max([F,P])=      0.057446783781
 orbitals (Q,E):
 ---------------
 A :13...23          ( 2.00    -0.5326)  ( 2.00    -0.5094)  ( 2.00    -0.2454)  ( 2.00    -0.1779)
                     ( 2.00    -0.1779)  ( 2.00    -0.0886)  ( 2.00    -0.0886)  ( 2.00    -0.0830)
                     ( 2.00    -0.0707)  ( 2.00    -0.0707)  ( 0.00    -0.0124)

 CYCLE    8
  SDIIS (wt  0.000): -0.0261 -0.0307  0.1029 -0.0054  0.0214  0.6781  0.2597
 A-DIIS (wt  1.000):  0.0000  0.0000  0.0000  0.0000  0.0000  0.7848  0.2152
  DIIS coefficients:  0.0000  0.0000  0.0000  0.0000  0.0000  0.7848  0.2152
 SCF Error: norm([F,P])=      0.329198807719, max([F,P])=      0.158462701630
 orbitals (Q,E):
 ---------------
 A :13...23          ( 2.00    -0.5290)  ( 2.00    -0.5134)  ( 2.00    -0.2368)  ( 2.00    -0.1666)
                     ( 2.00    -0.1666)  ( 2.00    -0.0855)  ( 2.00    -0.0855)  ( 2.00    -0.0825)
                     ( 2.00    -0.0731)  ( 2.00    -0.0731)  ( 0.00    -0.0089)

 CYCLE    9
  SDIIS (wt  0.584): -0.0073  0.0277 -0.0265 -0.0019  0.0368  0.4799  0.0635  0.4278
 A-DIIS (wt  0.416):  0.0000  0.0000  0.0000  0.0000  0.0000  0.5362  0.0523  0.4115
  DIIS coefficients: -0.0043  0.0162 -0.0155 -0.0011  0.0215  0.5033  0.0588  0.4210
 SCF Error: norm([F,P])=      0.136425900131, max([F,P])=      0.042202184051
 orbitals (Q,E):
 ---------------
 A :13...23          ( 2.00    -0.5297)  ( 2.00    -0.5136)  ( 2.00    -0.2278)  ( 2.00    -0.1546)
                     ( 2.00    -0.1546)  ( 2.00    -0.0864)  ( 2.00    -0.0864)  ( 2.00    -0.0827)
                     ( 2.00    -0.0712)  ( 2.00    -0.0712)  ( 0.00    -0.0040)

 CYCLE   10
  SDIIS (wt  0.767):  0.0029  0.0154 -0.0264  0.0001  0.0048  0.1900 -0.0842  0.3866  0.5108
 A-DIIS (wt  0.233):  0.0000  0.0000  0.0000  0.0000  0.0000  0.2677  0.0000  0.2258  0.5065
  DIIS coefficients:  0.0022  0.0118 -0.0202  0.0001  0.0037  0.2081 -0.0645  0.3491  0.5098
 SCF Error: norm([F,P])=      0.056293937315, max([F,P])=      0.024091719334
 orbitals (Q,E):
 ---------------
 A :13...23          ( 2.00    -0.5288)  ( 2.00    -0.5137)  ( 2.00    -0.2277)  ( 2.00    -0.1547)
                     ( 2.00    -0.1547)  ( 2.00    -0.0857)  ( 2.00    -0.0857)  ( 2.00    -0.0823)
                     ( 2.00    -0.0713)  ( 2.00    -0.0713)  ( 0.00    -0.0039)

 CYCLE   11
  SDIIS (wt  0.928):  0.0003 -0.0020 -0.0008 -0.0004  0.0014  0.0309  0.0075 -0.0022  0.2025  0.7627
 A-DIIS (wt  0.072):  0.0000  0.0000  0.0000  0.0000  0.0000  0.0000  0.0000  0.0000  0.1969  0.8031
  DIIS coefficients:  0.0002 -0.0019 -0.0007 -0.0003  0.0013  0.0286  0.0070 -0.0020  0.2021  0.7656
 SCF Error: norm([F,P])=      0.016983672371, max([F,P])=      0.008100682243
 orbitals (Q,E):
 ---------------
 A :13...23          ( 2.00    -0.5287)  ( 2.00    -0.5137)  ( 2.00    -0.2274)  ( 2.00    -0.1544)
                     ( 2.00    -0.1544)  ( 2.00    -0.0857)  ( 2.00    -0.0857)  ( 2.00    -0.0822)
                     ( 2.00    -0.0713)  ( 2.00    -0.0713)  ( 0.00    -0.0037)

 CYCLE   12
  SDIIS (wt  1.000): -0.0013  0.0005 -0.0002  0.0005  0.0099  0.0058 -0.0094  0.0790  0.3672  0.5480
  DIIS coefficients: -0.0013  0.0005 -0.0002  0.0005  0.0099  0.0058 -0.0094  0.0790  0.3672  0.5480
 SCF Error: norm([F,P])=      0.001003093182, max([F,P])=      0.000442451314
 orbitals (Q,E):
 ---------------
 A :13...23          ( 2.00    -0.5288)  ( 2.00    -0.5137)  ( 2.00    -0.2275)  ( 2.00    -0.1544)
                     ( 2.00    -0.1544)  ( 2.00    -0.0857)  ( 2.00    -0.0857)  ( 2.00    -0.0822)
                     ( 2.00    -0.0713)  ( 2.00    -0.0713)  ( 0.00    -0.0038)

 CYCLE   13
  SDIIS (wt  1.000): -0.0001 -0.0000  0.0000  0.0007  0.0001  0.0001  0.0035  0.0229  0.1484  0.8243
  DIIS coefficients: -0.0001 -0.0000  0.0000  0.0007  0.0001  0.0001  0.0035  0.0229  0.1484  0.8243
 SCF Error: norm([F,P])=      0.000091219295, max([F,P])=      0.000036783473
 orbitals (Q,E):
 ---------------
 A :13...23          ( 2.00    -0.5288)  ( 2.00    -0.5137)  ( 2.00    -0.2275)  ( 2.00    -0.1544)
                     ( 2.00    -0.1544)  ( 2.00    -0.0857)  ( 2.00    -0.0857)  ( 2.00    -0.0822)
                     ( 2.00    -0.0713)  ( 2.00    -0.0713)  ( 0.00    -0.0037)

 CYCLE   14
  SDIIS (wt  1.000): -0.0000 -0.0000  0.0002 -0.0000  0.0002  0.0005  0.0024  0.0466  0.2577  0.6924
  DIIS coefficients: -0.0000 -0.0000  0.0002 -0.0000  0.0002  0.0005  0.0024  0.0466  0.2577  0.6924
 SCF Error: norm([F,P])=      0.000024573741, max([F,P])=      0.000010581917
 orbitals (Q,E):
 ---------------
 A :13...23          ( 2.00    -0.5288)  ( 2.00    -0.5137)  ( 2.00    -0.2275)  ( 2.00    -0.1544)
                     ( 2.00    -0.1544)  ( 2.00    -0.0857)  ( 2.00    -0.0857)  ( 2.00    -0.0822)
                     ( 2.00    -0.0713)  ( 2.00    -0.0713)  ( 0.00    -0.0037)

 CYCLE   15
  SDIIS (wt  1.000): -0.0000  0.0001 -0.0000  0.0000  0.0002  0.0010  0.0139  0.0691  0.2575  0.6583
  DIIS coefficients: -0.0000  0.0001 -0.0000  0.0000  0.0002  0.0010  0.0139  0.0691  0.2575  0.6583
 SCF Error: norm([F,P])=      0.000004837271, max([F,P])=      0.000002296309
 orbitals (Q,E):
 ---------------
 A :13...23          ( 2.00    -0.5288)  ( 2.00    -0.5137)  ( 2.00    -0.2275)  ( 2.00    -0.1544)
                     ( 2.00    -0.1544)  ( 2.00    -0.0857)  ( 2.00    -0.0857)  ( 2.00    -0.0822)
                     ( 2.00    -0.0713)  ( 2.00    -0.0713)  ( 0.00    -0.0037)

 CYCLE   16
  SDIIS (wt  1.000):  0.0000 -0.0000  0.0000  0.0000  0.0002  0.0006  0.0018  0.0107  0.1392  0.8474
  DIIS coefficients:  0.0000 -0.0000  0.0000  0.0000  0.0002  0.0006  0.0018  0.0107  0.1392  0.8474
 SCF Error: norm([F,P])=      0.000001345796, max([F,P])=      0.000000559928
 orbitals (Q,E):
 ---------------
 A :13...23          ( 2.00    -0.5288)  ( 2.00    -0.5137)  ( 2.00    -0.2275)  ( 2.00    -0.1544)
                     ( 2.00    -0.1544)  ( 2.00    -0.0857)  ( 2.00    -0.0857)  ( 2.00    -0.0822)
                     ( 2.00    -0.0713)  ( 2.00    -0.0713)  ( 0.00    -0.0037)

 SCF CONVERGED

 CYCLE   17
1
 ***************************************************************************************************



                                                *******************
                                                *  R E S U L T S  *
                                                *******************
  
 *** Setting up for NEW gradients in Focky
 *** Using FIT density in Focky

 Orbital Energies, per Irrep and Spin:
 ======================================
                        Occup              E (au)              E (eV)       Diff (eV) with prev. cycle
                        -----      --------------------        ------       --------------------------
 A
              13        2.000     -0.52876207319183E+00       -14.388              -5.18E-08
              14        2.000     -0.51373112330833E+00       -13.979              -4.90E-08
              15        2.000     -0.22745795898057E+00        -6.189              -5.57E-08
              16        2.000     -0.15441606291579E+00        -4.202              -3.85E-08
              17        2.000     -0.15441244337183E+00        -4.202              -3.97E-08
              18        2.000     -0.85711511712756E-01        -2.332              -2.59E-08
              19        2.000     -0.85709101551513E-01        -2.332              -3.34E-08
              20        2.000     -0.82247644912029E-01        -2.238              -7.83E-08
              21        2.000     -0.71293371240894E-01        -1.940              -2.67E-08
              22        2.000     -0.71291425178709E-01        -1.940              -3.35E-08
              23        0.000     -0.37489486789951E-02        -0.102
              24        0.000      0.22226732377665E+00         6.048
              25        0.000      0.37700113716927E+00        10.259
              26        0.000      0.39857337871623E+00        10.846
              27        0.000      0.40635340979196E+00        11.057
              28        0.000      0.40636137937836E+00        11.058
              29        0.000      0.43543776949897E+00        11.849
              30        0.000      0.43544158660475E+00        11.849
              31        0.000      0.46882492499857E+00        12.757
              32        0.000      0.55702677945983E+00        15.157
  
 HOMO :       22 A                -0.71291425178709E-01
 LUMO :       23 A                -0.37489486789951E-02
  


 All Electron Calculation, thus no Orbital Energies of the Core Orbitals are calculated


 Fit test: (difference of exact and fit density, squared integrated, result summed over spins)
         Sum-of-Fragments:                             0.00015929266181
         Orthogonalized Fragments:                     0.00017004602909
         SCF:                                          0.00016871779018



 ==========================
 Electron Density at Nuclei
 ==========================
  
 The electron density is calculated at points on a small sphere around the center of a nucleus.
 The printed electron density is the average electron density on these points.
 The radius of the sphere is the printed approximate finite nuclear radius.

         Atom        Nuclear Radius (Angstrom)             Electron Density (a.u.)
         ----        -------------------------             -----------------------
     1)   F                 0.0000361580                              448.32685
     2)   Cl                0.0000426624                             3210.83077
     3)   Cl                0.0000426624                             3210.83077



 =======================================
 M U L L I K E N   P O P U L A T I O N S
 =======================================
  
 The survey below gives for each atom:
 a) the total charge (Z minus electrons)
 b) the net spin polarization (nr of electrons spin-A minus spin-B)
 c) for each spin the atomic electron valence density (integrated) per L-value.

 Atom              Charge    Spin density          S         P         D         F
 ----              ------    ------------       ------    ------    ------    ------
 1 F              -0.2640                       3.9574    5.2863    0.0189    0.0014
 2 Cl             -0.3680                       5.9883   11.3515    0.0220    0.0062
 3 Cl             -0.3680                       5.9883   11.3515    0.0220    0.0062

 Populations of individual BAS functions
 ----------------------------------------
 1 F            0.5755  1.4004  1.1261  0.8827 -0.0273  0.3811  0.2982  0.4220  0.9488  0.8039
                1.0202  0.4879  0.3862  0.5379 -0.0010  0.0076  0.0009  0.0163  0.0026 -0.0075
               -0.0009 -0.0021  0.0004  0.0039  0.0001 -0.0023  0.0061  0.0047 -0.0035 -0.0050
 2 Cl           0.5055  1.4529  1.7134  0.2521  0.7269  0.7223  0.7292  1.2712  1.2771  1.2682
                0.6137  1.0422  0.4086  0.2861  0.2332  0.3121  1.0192  0.8741  1.0907  0.5351
                0.4090  0.5972  0.0003  0.0078  0.0013  0.0134  0.0039 -0.0048 -0.0015 -0.0009
                0.0004  0.0061  0.0008 -0.0025  0.0076  0.0055 -0.0043 -0.0050
 3 Cl           0.5055  1.4529  1.7134  0.2521  0.7269  0.7223  0.7292  1.2712  1.2771  1.2682
                0.6137  1.0422  0.4086  0.2861  0.2332  0.3121  1.0192  0.8741  1.0907  0.5351
                0.4090  0.5972  0.0003  0.0078  0.0013  0.0134  0.0039 -0.0048 -0.0015 -0.0009
                0.0004  0.0061  0.0008 -0.0025  0.0076  0.0055 -0.0043 -0.0050

 Gross Charges per Atom (Z minus electrons)
 ==========================================
            -0.2640   -0.3680   -0.3680
 Net Total: -1.00000000


 Atom-Atom Population Matrix (off-diagonal elements not doubled)
 ===============================================================

     1 :     9.3472
     2 :    -0.0416   17.3731
     3 :    -0.0416    0.0365   17.3731


 Frag-Frag Population Matrix (off-diagonal elements not doubled)
 ===============================================================

     1 :    26.6371
     2 :    -0.0051   17.3731



 =================================================
 H I R S H F E L D   C H A R G E   A N A L Y S I S
 =================================================
  
 For each fragment: the (numerical) integral of rho(scf) * rho(fragment)/rho(sum-of-fragments)
 (nuclear charges are included, electrons are counted negative)

 The fragments and their ordering are defined in the early G E O M E T R Y output section.
 If you use single-atom fragments, this usually implies that all atoms of the same
 chemical type are grouped together. This may not be the order in which you listed them
 in the input file!

    1  FCl                      -0.5206
    2  Cl                       -0.4794

 Sum of these charges (accuracy NumInt/Tails) =          -1.00000049



 =============================
 V O R O N O I   C H A R G E S
 =============================
  
 For each atom: the (numerical) integral of the total electronic charge density in its Voronoi cell,
 i.e. the region of space that is closer to that atom than to any other atom.
 (cf. Wigner-Seitz cells in crystals)

 Within the Voronoi cell the subintegrals over the atomic sphere and the remaining part are evaluated
 separately to give the numbers of electrons (negative charge) in these regions.
 The net total charge in the cell (including the nuclear charge) is also given.

 Values are provided for
    a) the Initial (sum-of-fragments) density
    b) the Orthogonalized-Fragments density
    c) the SCF density
    d) the Voronoi Deformation Density (VDD): the difference SCF-Initial for the complete atomic cell
 ---------------------------------------------------------------------------------------------------
 Total NetCharge:              -1.000                     -1.000                     -1.000   -0.000
 (accuracy NumInt/Tails)

 Remark: the 'NetTotal' Voronoi charges often do not match the Mulliken and/or Hirshfeld charges very
 well. This is caused by the fact that chemically different atoms are not treated in accordance with
 their relative sizes. (Voronoi cells are defined by boundary planes halfway between the atoms.)
 However, the CHANGES in charge, comparing 'Initial' to 'SCF' for instance, do give a fair indication
 of the flow of charge caused by the relaxation from sum-of-fragments to self-consistency.

 Warning: the absolute accuracy of the VDD charges obtained using the Fuzzy Cells (Becke) integration
 scheme is much poorer than the one obtained with an 'equivalent' Voronoi integration grid. 



 =================================================================
 M U L T I P O L E   D E R I V E D   C H A R G E   A N A L Y S I S
 =================================================================

 This charge analysis uses the atomic multipoles (obtained from the fitted density) up to some level X,
 and reconstructs these multipoles exactly (up to level X) by distributing charges over all atoms.
 This is achieved by using Lagrange multipliers and a weight function to keep the multipoles local.

 Dummy atoms can be included (by setting INCDUM in MDC-block to 1) to obtain a fractional charge.
 This is generally useful and necessary only for small symmetrical molecules, when there are not
 enough degrees of freedom to reconstruct the multipoles.

 Since the atomic multipoles are reconstructed up to level X,
 the molecular multipoles are represented also up to level X.
 The recommended level is to reconstruct up to quadrupole : -> MDC-q charges.

 See: M. Swart, P.Th. van Duijnen, J.G. Snijders, J.Comput.Chem., (2001), p. 79-88.

 ------------------------------------------------------------- 
 Atomic electronic multipole moments from SCF equations (a.u.)
 ------------------------------------------------------------- 

   atom        charge        dip-x     dip-y     dip-z      quad-xx   quad-xy   quad-xz   quad-yy   quad-yz   quad-zz
 --------------------------------------------------------------------------------------------------------------------
    1 F     -0.715656    -0.000001  0.000001 -0.000000     0.027128  0.091972 -0.006414 -0.132599  0.011150  0.105471
    2 Cl    -0.142168    -0.363099  0.628722 -0.045239    -0.247986 -0.846985  0.060875  1.218264 -0.105412 -0.970278
    3 Cl    -0.142176     0.363096 -0.628717  0.045239    -0.247985 -0.846981  0.060875  1.218259 -0.105412 -0.970274

 --------------------------------------- 
 Multipole derived atomic charges (a.u.)
 --------------------------------------- 

 The MDC-m charges are just the Monopole terms in the multipole expansion, while for the MDC-d charges
 also the Dipoles are reconstructed. The usually preferred charges are the MDC-q charges.
 These reconstruct the Monopoles, Dipoles and Quadrupoles (both atomic AND molecular).

        Atom    Level:     MDC-m        MDC-d        MDC-q
 ---------------------------------------------------------
     1     F           -0.715656    -0.348636    -0.105636
     2     Cl          -0.142168    -0.325679    -0.447179
     3     Cl          -0.142176    -0.325685    -0.447185

 ------------------------------------------------ 
 Average absolute deviations in atomic multipoles
 ------------------------------------------------ 

 Stated here are the average differences between the atomic multipoles
 and the reconstructed atomic multipoles (from the distributed charges).
 If these values are not zero, this means there are not enough degrees of freedom,
 to be able to reconstruct the atomic multipoles. (This usually happens only
 for small and/or highly symmetric molecules). If this is the case, one could add
 dummy atoms as extra point charges (and setting INCDUM in MDC-block to 1).

 Level:                                 MDC-d        MDC-q
 ---------------------------------------------------------
 Charge   (a.u.)                       0.0000       0.0000
 Dipole   (Debye)                      0.0000       0.0000
 Quad.    (a.u.)                       0.5308       0.1707

 --------------------------------------- 
 Represented molecular multipole moments
 --------------------------------------- 

 Given here are the Molecular multipole moments from the atomic charges, and from the Fit Density.
 Note that the atomic charges represent the latter, NOT the ones from the Exact density.

            Q (a.u.)             Dipole moment (Debye)                                          Quadrupole moment (a.u.)
                                 x         y         z              xx        xy        xz        yy        yz        zz
------------------------------------------------------------------------------------------------------------------------
MDC-m        -1.0000       23.6564  -14.8883    0.2197        -68.8951   84.6909   -1.4161    6.2088    1.1222   62.6863
MDC-d        -1.0000       23.6564  -14.8883    0.2197        -68.1604   88.4547   -1.6866    2.5996    1.5905   65.5608
MDC-q        -1.0000       23.6564  -14.8883    0.2197        -67.6740   90.9466   -1.8656    0.2099    1.9006   67.4641
 
Fit.Dens.    -1.0000       23.6564  -14.8883    0.2197        -67.9009   90.5846   -1.8397    1.3251    1.8558   66.5759



 =============
 Dipole Moment  ***  (Debye)  ***
 =============
  
 Vector   :        23.65642135    -14.88825442      0.21967344
 Magnitude:        27.95236389

 This molecular dipole moment is calculated with analytic integration
 ************************************************************************************
 Since the molecule is NOT NEUTRAL, the dipole moment depends on the choice of origin
 ************************************************************************************



 =========================================
 Quadrupole Moment (Buckingham convention)  ***  (a.u.)  ***
 =========================================
  
      quad-xx        quad-xy        quad-xz        quad-yy        quad-yz        quad-zz
    -67.90030592    89.78799086    -1.78264402     1.32122413     1.75703398    66.57908179

 This molecular quadrupole moment is calculated with analytic integration
1



                                             *************************
                                             *  SFO MO coefficients  *
                                             *************************
  


                                       === A ===
 MOs expanded in CFs+SFOs
 ========================

 The SFOs have been characterized in an earlier part of output.
 To deduce the bonding / antibonding nature of SFO combinations in an MO, consider the products
 of the coefficients AND THE OVERLAP between the SFOs (may be NEGATIVE). The SFO overlap matrix
 is printed later, in the SFO Populations section.

 (The CF coefficients are not printed)

 MOs :      1        2        3        4        5        6        7        8        9       10
 occup:   2.00     2.00     2.00     2.00     2.00     2.00     2.00     2.00     2.00     2.00
 CF+SFO
     1   0.9990   0.0444  -0.0000   0.0000   0.0000  -0.0000   0.0000   0.0000  -0.0000  -0.0000
     2   0.0000  -0.0000  -1.0000  -0.0001   0.0000   0.0000   0.0000   0.0000   0.0000   0.0000
     3  -0.0001  -0.0000  -0.0000   0.7647   0.6444  -0.0021   0.0004   0.0000  -0.0000  -0.0000
     4   0.0000   0.0000   0.0000   0.0017   0.0014   0.9838  -0.1790   0.0000  -0.0000  -0.0000
     5   0.0000   0.0000   0.0000   0.0000   0.0000   0.0000  -0.0000  -0.9952   0.0978  -0.0017
     6   0.0000   0.0000  -0.0000   0.0000   0.0000   0.0000  -0.0000  -0.0017   0.0002   0.9952
     7   0.0000  -0.0000   0.0001  -0.0007   0.0003   0.0002   0.0002   0.0000   0.0000   0.0000
     8  -0.0000   0.0000  -0.0000   0.0004   0.0003   0.0000  -0.0001  -0.0000   0.0000   0.0000
     9  -0.0000   0.0000   0.0001   0.0003  -0.0001  -0.0003  -0.0003  -0.0000  -0.0000  -0.0000
    10  -0.0000   0.0000   0.0000  -0.0000   0.0000   0.0000  -0.0000  -0.0000  -0.0000  -0.0000
    11   0.0000  -0.0000   0.0000  -0.0000   0.0000  -0.0000  -0.0000   0.0000   0.0000  -0.0000
    12  -0.0000  -0.0000  -0.0000   0.0000   0.0000   0.0000   0.0000  -0.0001   0.0000  -0.0000
    13   0.0000  -0.0000  -0.0000  -0.0000   0.0000  -0.0000   0.0000   0.0000  -0.0000  -0.0001
    14   0.0000  -0.0000  -0.0001  -0.0003   0.0001   0.0000   0.0002  -0.0000   0.0000   0.0000
    15  -0.0000   0.0001  -0.0000   0.0014  -0.0005  -0.0003  -0.0001  -0.0000  -0.0000  -0.0000
    16   0.0000  -0.0000   0.0000  -0.0004   0.0002   0.0002   0.0000   0.0000   0.0000   0.0000
    17  -0.0000   0.0000   0.0000   0.0000  -0.0000  -0.0000   0.0000   0.0000   0.0000  -0.0000
    18  -0.0000   0.0000  -0.0000   0.0000  -0.0000  -0.0000  -0.0000   0.0000   0.0000   0.0000
    19   0.0000  -0.0000  -0.0000  -0.0001   0.0003   0.0000   0.0001  -0.0000   0.0000   0.0000
    20   0.0000  -0.0000   0.0000   0.0000   0.0000   0.0000   0.0000  -0.0001  -0.0000  -0.0000
    21  -0.0000   0.0000  -0.0000   0.0000  -0.0000  -0.0000  -0.0000  -0.0000  -0.0000   0.0001
    22  -0.0000  -0.0000  -0.0000   0.0000   0.0000  -0.0000   0.0000   0.0000  -0.0000  -0.0000
    23   0.0000  -0.0000  -0.0000   0.0000   0.0000  -0.0000   0.0000   0.0000  -0.0000   0.0000
    24  -0.0000   0.0000  -0.0001   0.0004   0.0001  -0.0002  -0.0002  -0.0000  -0.0000  -0.0000
    25  -0.0000   0.0000  -0.0000   0.0000   0.0000  -0.0000  -0.0000  -0.0000  -0.0000  -0.0000
    26   0.0000   0.0000  -0.0000   0.0000   0.0000  -0.0000  -0.0000   0.0000   0.0000  -0.0000
    27  -0.0000   0.0000  -0.0001   0.0001   0.0002  -0.0002  -0.0005   0.0000  -0.0000  -0.0000
    28  -0.0000   0.0000   0.0000   0.0000   0.0000   0.0000   0.0000  -0.0001  -0.0001   0.0000
    29  -0.0000  -0.0000  -0.0000  -0.0000   0.0000   0.0000   0.0000   0.0000   0.0000   0.0001
    30  -0.0000  -0.0000   0.0000  -0.0000   0.0000  -0.0000  -0.0000  -0.0000  -0.0000  -0.0000
    31   0.0000  -0.0000   0.0000  -0.0000   0.0000   0.0000  -0.0000   0.0000   0.0000   0.0000
    32   0.0000  -0.0000  -0.0000  -0.0000  -0.0000  -0.0000   0.0000  -0.0000  -0.0000   0.0000
    33   0.0000   0.0000  -0.0000   0.0000   0.0000  -0.0000   0.0000   0.0000   0.0000   0.0000
    34  -0.0000  -0.0000   0.0001   0.0000   0.0000   0.0001  -0.0000  -0.0000   0.0000  -0.0000
    35  -0.0000   0.0000   0.0000   0.0000   0.0000   0.0000   0.0000   0.0000   0.0000  -0.0000
    36  -0.0000  -0.0000  -0.0000  -0.0000   0.0000   0.0000  -0.0000   0.0000  -0.0000  -0.0000
    37   0.0000   0.0000   0.0000   0.0001  -0.0002   0.0002   0.0000   0.0000  -0.0000  -0.0000
    38   0.0000   0.0000   0.0000  -0.0000  -0.0000   0.0000  -0.0000   0.0001  -0.0001   0.0001
    39   0.0000   0.0000   0.0000   0.0000  -0.0000   0.0000  -0.0000  -0.0001   0.0001   0.0001
    40   0.0000  -0.0000  -0.0001  -0.0001  -0.0001   0.0004   0.0001   0.0000   0.0000  -0.0000
    41   0.0000  -0.0000  -0.0000  -0.0000  -0.0000  -0.0000  -0.0000   0.0002   0.0000   0.0001
    42   0.0000  -0.0000  -0.0000  -0.0000  -0.0000  -0.0000   0.0000  -0.0001  -0.0000   0.0002
    43   0.0000  -0.0000  -0.0000  -0.0006  -0.0003  -0.0001   0.0000  -0.0000  -0.0000  -0.0000
    44  -0.0000   0.0000  -0.0000   0.0002  -0.0000  -0.0003   0.0001  -0.0000  -0.0000   0.0000
    45   0.0000   0.0000  -0.0000  -0.0000   0.0000   0.0000  -0.0000  -0.0000  -0.0000  -0.0000
    46   0.0000   0.0000  -0.0000   0.0000  -0.0000   0.0000   0.0000   0.0000   0.0000   0.0000
    47   0.0000   0.0000  -0.0000   0.0000  -0.0000  -0.0000  -0.0000  -0.0000  -0.0000   0.0000
    48  -0.0000  -0.0000  -0.0000  -0.0000   0.0000  -0.0000   0.0000   0.0000   0.0000   0.0000
    49  -0.0000   0.0000  -0.0000   0.0000   0.0000   0.0000   0.0000  -0.0000  -0.0001   0.0000
    50  -0.0000  -0.0000   0.0000  -0.0000   0.0000  -0.0000   0.0000   0.0000   0.0000   0.0000
    51   0.0000   0.0000   0.0000   0.0000  -0.0001   0.0001   0.0000   0.0000  -0.0000   0.0000
    52   0.0000  -0.0000  -0.0000  -0.0000   0.0000   0.0000   0.0000  -0.0000   0.0000   0.0000
    53   0.0000   0.0000   0.0000  -0.0000   0.0000  -0.0000  -0.0000  -0.0000   0.0000  -0.0000
    54   0.0000   0.0000   0.0002   0.0000  -0.0000  -0.0000   0.0000   0.0000  -0.0000  -0.0000
    55   0.0001   0.0000  -0.0000  -0.0001  -0.0002   0.0000   0.0000   0.0000  -0.0000   0.0000
    56  -0.0000  -0.0000   0.0000   0.0000   0.0000   0.0000  -0.0000  -0.0006   0.0001   0.0002
    57   0.0000   0.0000  -0.0000  -0.0000  -0.0000  -0.0000   0.0000  -0.0002   0.0000  -0.0006
    58   0.0000   0.0000  -0.0000  -0.0000  -0.0000  -0.0004   0.0001   0.0000  -0.0000   0.0000
    59   0.0000   0.0000   0.0002  -0.0000  -0.0000  -0.0000   0.0000   0.0000   0.0000   0.0000
    60  -0.0001  -0.0000  -0.0000  -0.0000  -0.0000  -0.0000   0.0000   0.0000  -0.0000   0.0000
    61  -0.0444   0.9990   0.0000  -0.0000   0.0000  -0.0000   0.0000  -0.0000  -0.0000   0.0000
    62   0.0000   0.0001  -0.0000   0.6443  -0.7646  -0.0003  -0.0020   0.0000   0.0000   0.0000
    63   0.0000  -0.0000   0.0000   0.0001  -0.0002   0.0191   0.1050   0.0630   0.6407  -0.0739
    64   0.0000  -0.0000   0.0000   0.0009  -0.0011   0.1205   0.6622  -0.0594  -0.6048  -0.0411
    65  -0.0000   0.0000  -0.0000  -0.0010   0.0011  -0.1310  -0.7200  -0.0455  -0.4628  -0.0486
    66  -0.0000   0.0000  -0.0000   0.0013  -0.0006  -0.0003  -0.0003  -0.0000  -0.0000  -0.0000
    67   0.0000  -0.0000   0.0000  -0.0001   0.0000   0.0000   0.0000  -0.0000  -0.0003   0.0000
    68   0.0000  -0.0000   0.0000  -0.0005   0.0001   0.0002   0.0001   0.0000   0.0002   0.0000
    69   0.0000  -0.0000   0.0000  -0.0003   0.0001   0.0001   0.0001  -0.0000  -0.0002  -0.0000
    70  -0.0000   0.0000  -0.0000   0.0009   0.0000  -0.0002  -0.0002  -0.0000  -0.0000  -0.0000
    71  -0.0000   0.0000  -0.0000   0.0003  -0.0001  -0.0000  -0.0001  -0.0000  -0.0002  -0.0000
    72  -0.0000   0.0000  -0.0000   0.0001  -0.0000  -0.0000  -0.0000  -0.0000  -0.0002   0.0000
    73  -0.0000   0.0000  -0.0000   0.0007  -0.0003  -0.0001  -0.0002   0.0000   0.0001   0.0000
    74  -0.0000   0.0000  -0.0000  -0.0001   0.0002  -0.0001  -0.0002  -0.0000  -0.0001  -0.0000
    75  -0.0000   0.0000  -0.0000  -0.0000   0.0001  -0.0000  -0.0001  -0.0000  -0.0001   0.0000
    76   0.0000  -0.0000   0.0000   0.0001  -0.0001   0.0001   0.0001  -0.0000  -0.0001  -0.0000
    77   0.0000  -0.0000   0.0000   0.0001  -0.0001   0.0001   0.0002  -0.0000  -0.0001   0.0000
    78  -0.0000   0.0000  -0.0000  -0.0000   0.0000  -0.0000  -0.0001   0.0000   0.0000  -0.0000
    79  -0.0000   0.0000   0.0000   0.0000  -0.0000   0.0001   0.0003  -0.0000  -0.0000   0.0000
    80   0.0000  -0.0000  -0.0000  -0.0000   0.0000  -0.0000  -0.0000   0.0000   0.0000  -0.0000
    81   0.0000  -0.0000  -0.0000  -0.0000   0.0000  -0.0000  -0.0000   0.0000   0.0001   0.0000
    82   0.0000  -0.0000  -0.0000  -0.0000   0.0000  -0.0000  -0.0000  -0.0000  -0.0000   0.0000
    83   0.0000  -0.0000  -0.0000  -0.0000   0.0000  -0.0000  -0.0000  -0.0000  -0.0001   0.0000
    84   0.0000  -0.0000  -0.0000  -0.0000   0.0000  -0.0000  -0.0000  -0.0000  -0.0001   0.0000
    85  -0.0000   0.0000   0.0000   0.0000  -0.0000   0.0000   0.0000   0.0000   0.0000  -0.0000
    86   0.0000  -0.0000  -0.0000  -0.0007   0.0007  -0.0000  -0.0000   0.0000   0.0000   0.0000
    87   0.0000  -0.0000  -0.0000  -0.0000   0.0000  -0.0001  -0.0004  -0.0000  -0.0003  -0.0000
    88  -0.0000   0.0000   0.0000   0.0000  -0.0000   0.0001   0.0003  -0.0001  -0.0006  -0.0000
    89   0.0000  -0.0000  -0.0000  -0.0000   0.0000  -0.0001  -0.0002  -0.0000  -0.0003   0.0001
    90  -0.0000   0.0001  -0.0000   0.0002  -0.0002  -0.0000  -0.0000  -0.0000  -0.0000  -0.0000
    91  -0.0000   0.0000   0.0000   0.0001  -0.0001   0.0001   0.0005   0.0000   0.0001   0.0000
    92  -0.0000   0.0000   0.0000   0.0000  -0.0000   0.0000   0.0002  -0.0000  -0.0003  -0.0000
    93   0.0000  -0.0000  -0.0000  -0.0000   0.0000  -0.0000  -0.0001  -0.0000  -0.0002   0.0000
    94  -0.0000   0.0001   0.0000  -0.0000   0.0000   0.0000   0.0000   0.0000   0.0000   0.0000

 MOs :     11       12       13       14       15       16       17       18       19       20
 occup:   2.00     2.00     2.00     2.00     2.00     2.00     2.00     2.00     2.00     2.00
 CF+SFO
     1   0.0000  -0.0000   0.0000   0.0000  -0.0000   0.0000   0.0000  -0.0000   0.0000   0.0001
     2  -0.0000   0.0004   0.0026  -0.0023   0.0036  -0.0000  -0.0000   0.0000  -0.0000  -0.0106
     3   0.0000   0.0000  -0.0003  -0.0003  -0.0002   0.0000   0.0000  -0.0000   0.0000   0.0008
     4   0.0000   0.0000  -0.0000  -0.0000   0.0002  -0.0000  -0.0000   0.0000  -0.0000  -0.0002
     5   0.0002   0.0000  -0.0000  -0.0000  -0.0000  -0.0000   0.0000   0.0000   0.0000  -0.0000
     6  -0.0975   0.0000  -0.0000  -0.0000  -0.0000  -0.0000  -0.0000  -0.0000   0.0000   0.0000
     7  -0.0000  -0.9880   0.1163  -0.0716   0.0836  -0.0000  -0.0000   0.0000  -0.0001  -0.1385
     8   0.0000   0.0270   0.6996   0.7123  -0.0327   0.0000   0.0000  -0.0000   0.0000   0.0359
     9   0.0000   0.0349   0.0666  -0.0482   0.8665  -0.0000   0.0000  -0.0001   0.0004   0.4938
    10  -0.0000   0.0000   0.0000  -0.0000   0.0000   0.9181  -0.1233  -0.3506  -0.1299   0.0001
    11  -0.0000   0.0000  -0.0000   0.0000  -0.0000  -0.1233  -0.9181  -0.1299   0.3506  -0.0003
    12   0.0000  -0.0000  -0.0000  -0.0000  -0.0000  -0.1681   0.1081  -0.5996   0.0501  -0.0001
    13   0.0000  -0.0000  -0.0000   0.0000  -0.0000   0.1081   0.1681   0.0501   0.5996  -0.0005
    14  -0.0000  -0.0171  -0.0374   0.0177  -0.1558   0.0000  -0.0000  -0.0001   0.0004   0.5101
    15   0.0000   0.0023  -0.0107  -0.0052  -0.0078   0.0000   0.0000   0.0000   0.0000   0.0469
    16  -0.0000  -0.0002  -0.0048  -0.0110   0.0234  -0.0000   0.0000  -0.0000   0.0000   0.0151
    17  -0.0000   0.0000  -0.0000   0.0000  -0.0000   0.0069   0.0130  -0.0001  -0.0398   0.0000
    18   0.0000  -0.0000   0.0000   0.0000   0.0000   0.0130  -0.0069  -0.0398   0.0001  -0.0000
    19  -0.0000   0.0012  -0.0145  -0.0124  -0.0072  -0.0000   0.0000   0.0000  -0.0000  -0.0129
    20  -0.0000   0.0000  -0.0000  -0.0000  -0.0000   0.0012  -0.0005   0.0032   0.0003  -0.0000
    21   0.0000  -0.0000   0.0000   0.0000  -0.0000   0.0005   0.0012  -0.0003   0.0032  -0.0000
    22   0.0000  -0.0000   0.0000   0.0000  -0.0000  -0.0000   0.0000   0.0000  -0.0000  -0.0000
    23  -0.0000   0.0000  -0.0000  -0.0000  -0.0000   0.0000  -0.0000  -0.0000  -0.0000  -0.0000
    24   0.0000  -0.0013  -0.0014   0.0019   0.0028   0.0000  -0.0000  -0.0000   0.0000   0.0202
    25  -0.0000   0.0000   0.0000  -0.0000   0.0000   0.0079  -0.0048   0.0004  -0.0000   0.0000
    26  -0.0000  -0.0000   0.0000  -0.0000   0.0000  -0.0048  -0.0079  -0.0000  -0.0004  -0.0000
    27   0.0000   0.0017  -0.0009  -0.0014   0.0071   0.0000  -0.0000  -0.0000   0.0000   0.0104
    28   0.0000   0.0000  -0.0000  -0.0000   0.0000   0.0084  -0.0006   0.0010   0.0005  -0.0000
    29   0.0001  -0.0000  -0.0000  -0.0000  -0.0000   0.0006   0.0084  -0.0005   0.0010  -0.0000
    30  -0.0000   0.0000   0.0000   0.0000   0.0000   0.0000  -0.0000   0.0000   0.0000  -0.0000
    31   0.0000  -0.0000  -0.0000  -0.0000  -0.0000  -0.0000   0.0000  -0.0000   0.0000  -0.0000
    32   0.0000   0.0000  -0.0000  -0.0000  -0.0000  -0.0000  -0.0000  -0.0000   0.0000  -0.0000
    33  -0.0000   0.0000  -0.0000   0.0000  -0.0000  -0.0000   0.0000   0.0000  -0.0000   0.0000
    34   0.0000   0.0001   0.0013  -0.0015   0.0041  -0.0000  -0.0000  -0.0000   0.0000  -0.0007
    35  -0.0000  -0.0000   0.0000   0.0000   0.0000  -0.0000   0.0000   0.0000  -0.0000   0.0000
    36  -0.0000  -0.0000   0.0000   0.0000  -0.0000  -0.0000  -0.0000   0.0000  -0.0000   0.0000
    37  -0.0000   0.0003  -0.0040   0.0048  -0.0084   0.0000  -0.0000  -0.0000   0.0000   0.0180
    38  -0.0001   0.0000  -0.0000  -0.0000   0.0000   0.0025  -0.0038   0.0041  -0.0022   0.0000
    39  -0.0001  -0.0000   0.0000  -0.0000   0.0000  -0.0038  -0.0025  -0.0022  -0.0041   0.0000
    40  -0.0000  -0.0020   0.0010  -0.0006   0.0026  -0.0000   0.0000  -0.0000  -0.0000  -0.0046
    41   0.0000  -0.0000   0.0000   0.0000  -0.0000  -0.0018   0.0012   0.0044  -0.0005  -0.0000
    42   0.0000  -0.0000   0.0000   0.0000  -0.0000   0.0012   0.0018  -0.0005  -0.0044   0.0000
    43  -0.0000  -0.0002   0.0032   0.0032  -0.0010   0.0000  -0.0000  -0.0000   0.0000  -0.0015
    44  -0.0000  -0.0010  -0.0018  -0.0002  -0.0030  -0.0000  -0.0000   0.0000  -0.0000  -0.0032
    45  -0.0000   0.0000  -0.0000   0.0000   0.0000   0.0000   0.0000   0.0000   0.0000   0.0000
    46   0.0000  -0.0000  -0.0000  -0.0000  -0.0000   0.0000   0.0000   0.0000   0.0000  -0.0000
    47  -0.0000  -0.0000  -0.0000   0.0000  -0.0000   0.0000  -0.0000   0.0000  -0.0000   0.0000
    48  -0.0000  -0.0000  -0.0000  -0.0000  -0.0000  -0.0000   0.0000   0.0000  -0.0000   0.0000
    49   0.0000   0.0000   0.0000   0.0000   0.0000   0.0002   0.0000   0.0005   0.0003  -0.0000
    50   0.0001   0.0000  -0.0000   0.0000  -0.0000  -0.0000   0.0002  -0.0003   0.0005   0.0000
    51  -0.0000  -0.0010  -0.0002   0.0005   0.0002   0.0000  -0.0000  -0.0000   0.0000   0.0012
    52  -0.0000   0.0000   0.0000   0.0000   0.0000  -0.0023  -0.0006   0.0000   0.0000   0.0000
    53   0.0000  -0.0000   0.0000  -0.0000  -0.0000  -0.0006   0.0023   0.0000  -0.0000  -0.0000
    54   0.0000  -0.0008  -0.0002  -0.0000  -0.0015   0.0000  -0.0000   0.0000  -0.0000  -0.0008
    55  -0.0000   0.0000   0.0001   0.0001  -0.0000  -0.0000  -0.0000   0.0000   0.0000   0.0001
    56  -0.0000  -0.0000   0.0000   0.0000   0.0000  -0.0001  -0.0000   0.0001   0.0001  -0.0000
    57   0.0001   0.0000  -0.0000  -0.0000  -0.0000  -0.0000   0.0001   0.0001  -0.0001   0.0000
    58  -0.0000  -0.0000  -0.0000   0.0000   0.0000  -0.0000  -0.0000  -0.0000   0.0000   0.0002
    59  -0.0000   0.0001   0.0001  -0.0001   0.0002  -0.0000   0.0000   0.0000  -0.0000  -0.0006
    60  -0.0000   0.0000  -0.0000  -0.0000  -0.0000  -0.0000  -0.0000   0.0000   0.0000   0.0000
    61   0.0000   0.0004   0.0002   0.0000   0.0014   0.0000   0.0000   0.0000   0.0000   0.0005
    62   0.0000  -0.0039  -0.0013  -0.0011  -0.0127  -0.0000  -0.0000  -0.0000  -0.0000  -0.0042
    63  -0.7542  -0.0003  -0.0001  -0.0000  -0.0006  -0.0013  -0.0012   0.0001   0.0003  -0.0001
    64  -0.4195  -0.0018  -0.0006  -0.0002  -0.0040   0.0009  -0.0008  -0.0002   0.0001  -0.0008
    65  -0.4958   0.0019   0.0006   0.0003   0.0043   0.0007  -0.0009  -0.0002   0.0001   0.0009
    66  -0.0000  -0.0606  -0.6866   0.7065   0.1786  -0.0000  -0.0000  -0.0000   0.0000   0.0420
    67   0.0003   0.0034   0.0011   0.0020   0.0430   0.1974   0.1473   0.2999   0.6347  -0.0892
    68   0.0001   0.0225   0.0074   0.0132   0.2850  -0.1060   0.1008  -0.4015   0.1116  -0.5878
    69  -0.0003   0.0161   0.0053   0.0094   0.2035   0.1067  -0.1724   0.4991  -0.2916  -0.4193
    70   0.0000   0.0039   0.0153  -0.0135   0.0158   0.0000   0.0000   0.0000   0.0000  -0.0071
    71  -0.0002   0.0026   0.0023  -0.0006   0.0167   0.0113  -0.0136   0.0338  -0.0139  -0.0149
    72   0.0002   0.0007   0.0006  -0.0001   0.0042   0.0140   0.0124   0.0136   0.0362  -0.0038
    73   0.0000   0.0072   0.0064  -0.0016   0.0463  -0.0053   0.0038  -0.0134   0.0017  -0.0413
    74  -0.0001  -0.0069  -0.0068   0.0026  -0.0189  -0.0079   0.0110   0.0010  -0.0005  -0.0081
    75   0.0001  -0.0034  -0.0034   0.0013  -0.0094  -0.0127  -0.0119   0.0004   0.0013  -0.0040
    76  -0.0001   0.0043   0.0043  -0.0016   0.0119  -0.0074   0.0110   0.0009  -0.0005   0.0051
    77   0.0000   0.0054   0.0053  -0.0021   0.0148  -0.0111  -0.0003   0.0008   0.0004   0.0063
    78  -0.0000  -0.0021  -0.0021   0.0008  -0.0058   0.0028   0.0051  -0.0000  -0.0005  -0.0025
    79   0.0000   0.0029   0.0013   0.0007   0.0083  -0.0006  -0.0005  -0.0002  -0.0004  -0.0027
    80  -0.0000  -0.0002  -0.0001  -0.0001  -0.0006   0.0005   0.0018  -0.0002   0.0010   0.0002
    81   0.0001  -0.0000  -0.0000  -0.0000  -0.0000   0.0039  -0.0048   0.0030  -0.0013   0.0000
    82   0.0000  -0.0003  -0.0001  -0.0001  -0.0009  -0.0002  -0.0011   0.0002  -0.0006   0.0003
    83   0.0000  -0.0003  -0.0001  -0.0001  -0.0007  -0.0028  -0.0016  -0.0009  -0.0014   0.0002
    84   0.0001  -0.0003  -0.0001  -0.0001  -0.0009  -0.0038  -0.0033  -0.0009  -0.0025   0.0003
    85  -0.0000   0.0000   0.0000   0.0000   0.0000   0.0019   0.0004   0.0008   0.0006  -0.0000
    86   0.0000  -0.0002  -0.0003   0.0002   0.0012   0.0000   0.0000  -0.0000   0.0000  -0.0007
    87  -0.0003   0.0003   0.0008  -0.0008   0.0011  -0.0001   0.0001  -0.0005   0.0003   0.0002
    88  -0.0001  -0.0003  -0.0006   0.0006  -0.0008  -0.0001   0.0000  -0.0007  -0.0001  -0.0002
    89   0.0006   0.0002   0.0004  -0.0004   0.0005  -0.0001  -0.0001  -0.0001  -0.0008   0.0001
    90  -0.0000   0.0001   0.0002  -0.0002   0.0002  -0.0000   0.0000  -0.0000   0.0000   0.0000
    91   0.0001  -0.0000  -0.0000   0.0000  -0.0002  -0.0000   0.0000  -0.0001   0.0000   0.0002
    92  -0.0001  -0.0000  -0.0000   0.0000  -0.0001   0.0000  -0.0000   0.0001  -0.0000   0.0001
    93   0.0004   0.0000   0.0000  -0.0000   0.0000   0.0000   0.0000   0.0000   0.0002  -0.0001
    94   0.0000  -0.0000  -0.0000  -0.0000  -0.0001  -0.0000  -0.0000   0.0000  -0.0000  -0.0000

 MOs :     21       22       23       24       25       26       27       28       29       30
 occup:   2.00     2.00     0.00     0.00     0.00     0.00     0.00     0.00     0.00     0.00
 CF+SFO
     1  -0.0000   0.0000  -0.0001  -0.0003  -0.0004   0.0004  -0.0000  -0.0000  -0.0000  -0.0000
     2   0.0000  -0.0000   0.0119   0.0212   0.0178  -0.0231   0.0000   0.0000   0.0000   0.0000
     3  -0.0000   0.0000  -0.0011  -0.0021  -0.0033   0.0038  -0.0000  -0.0000  -0.0000  -0.0000
     4  -0.0000  -0.0000   0.0005   0.0009   0.0011  -0.0015   0.0000   0.0000   0.0000   0.0000
     5  -0.0001  -0.0000  -0.0000   0.0000  -0.0000   0.0000   0.0002   0.0000   0.0003   0.0000
     6   0.0000  -0.0001  -0.0000  -0.0000  -0.0000   0.0000  -0.0000   0.0002  -0.0000   0.0003
     7   0.0000  -0.0000   0.1350   0.2030   0.1392  -0.1740   0.0000   0.0001   0.0000   0.0000
     8   0.0000  -0.0000  -0.0164  -0.0341   0.0141  -0.0005  -0.0000  -0.0000  -0.0000  -0.0000
     9  -0.0000   0.0000  -0.1700  -0.1316  -0.0310  -0.0247  -0.0000  -0.0000  -0.0000  -0.0000
    10  -0.0503  -0.0188  -0.0000   0.0000  -0.0000   0.0000   0.0937   0.0224   0.0623   0.0086
    11  -0.0188   0.0503   0.0000   0.0000   0.0000  -0.0000   0.0224  -0.0937   0.0086  -0.0623
    12   0.7693  -0.0620  -0.0000  -0.0000  -0.0000  -0.0000  -0.0005   0.0001  -0.0642   0.0199
    13  -0.0620  -0.7693   0.0000   0.0000  -0.0000   0.0000   0.0001   0.0005   0.0199   0.0642
    14   0.0000   0.0000   0.8619   0.1439  -0.0054  -0.0434   0.0000   0.0000   0.0000   0.0000
    15  -0.0000   0.0000  -0.0380  -1.2498   0.0682   0.0008  -0.0000  -0.0001  -0.0000  -0.0001
    16   0.0000   0.0000   0.0585   0.0841   0.7236   0.6411   0.0000   0.0001   0.0001   0.0001
    17  -0.0000   0.0322  -0.0000   0.0000   0.0000  -0.0000  -0.0844  -0.6834   0.1580   0.7069
[...]
   83   -1.02835958404487E-15 -4.41557832241654E-16  4.30128834468734E-16  5.26323511713961E-16
   84   -7.85415128533425E-16 -1.15901295990737E-16  6.28065637221677E-16 -1.02406891610988E-16
   85   -4.57166156078690E-16 -2.51502118987708E-16  4.43852883718977E-16  6.38045605300245E-16
   86    3.74115394560911E-17  1.75121679564662E-16 -2.03112703869848E-15  3.08278799206060E-16
   87   -7.50147201164985E-17  1.15970563061257E-16 -5.27611740647020E-16 -2.13886013355580E-16
   88    4.38483016409542E-16  3.09788271475071E-17 -2.23961096377533E-16 -1.03012250362638E-14
   89    3.00216534473302E-16  2.38187676471159E-16 -4.25883705721599E-16 -2.58015793805638E-15
   90   -2.00619224161589E-16 -3.83160541767285E-16 -1.93071763554859E-16 -3.79521499628701E-17
   91    7.95553990489328E-17 -2.65218059535040E-16  6.99734764759725E-16  4.68623156862175E-16
   92    7.58660888136516E-16 -2.57287740036151E-16 -1.25295231140224E-16 -7.92513889152778E-16
   93   -3.38051166886546E-16 -2.13252813214115E-16  4.20358298048423E-17  1.40350348836198E-16
   94    1.50595681758237E-16  1.03541307472366E-17  2.46303628534394E-16 -4.97055874107769E-16

 column          81                    82                    83                    84
 row
   81    1.00000000000000E+00
   82   -9.23244933255022E-18  1.00000000000000E+00
   83   -4.83456339318532E-17  3.87236484135958E-16  1.00000000000000E+00
   84   -5.68728483878993E-16  6.10706324125701E-17  6.28342550071348E-17  1.00000000000000E+00
   85   -1.33558665264189E-17 -4.21123853089398E-16  4.67752684725559E-16 -5.75787604748182E-16
   86   -7.40147842676552E-17 -2.50757996132993E-16 -2.06310342581240E-16 -7.93905452615735E-17
   87   -2.54430030615878E-16  1.66597583352303E-16 -4.71152580876772E-17 -2.65758536038560E-16
   88   -6.18554560010864E-16 -4.39346030486230E-17 -2.98601550354076E-16 -8.99022840248757E-16
   89   -2.23387276204134E-16  3.54070536880789E-16 -3.43731728827220E-16  8.08095818742143E-16
   90    6.65064604320633E-17 -1.07872888380836E-16  3.61700571619348E-16  5.25363390950207E-16
   91    1.71578477027541E-16 -9.06677797939171E-17 -3.50135865354362E-16 -3.25604899501178E-16
   92    4.16637318820173E-16 -3.24279758641409E-16 -4.20165580682129E-16 -4.48270820431936E-16
   93   -5.86086064600373E-16  4.80141048013213E-17 -9.07241740729489E-17  1.14846766234390E-16
   94   -2.92635126374233E-17  6.27736117210162E-17 -2.82527839556672E-16  1.11789714312728E-16

 column          85                    86                    87                    88
 row
   85    1.00000000000000E+00
   86    2.00647689100828E-16  9.99999999999999E-01
   87   -3.65304991699803E-16 -2.50743775243902E-16  9.99999999999999E-01
   88   -5.21058422975283E-16 -1.04065620866716E-16 -4.87152364888471E-16  9.99999999999998E-01
   89    5.09665251144326E-16 -8.54465661366457E-17 -3.56259092999843E-16  3.16581528651610E-16
   90   -2.00479527211404E-16  1.14133149545920E-14  2.28534020795478E-15 -6.91998389335978E-16
   91    6.81638057887773E-17 -1.91628498822077E-17 -1.94700814376710E-15  6.20891243963400E-16
   92   -8.87431967055671E-17  4.95754196226075E-16 -5.50042020123261E-18  1.53033919036467E-15
   93   -1.76923497947795E-17 -1.17884963401170E-16  1.89326051513203E-16 -7.77981074388676E-16
   94   -6.46374547818901E-17 -7.81579662101350E-15  2.08166817117217E-17 -7.39425881635114E-17

 column          89                    90                    91                    92
 row
   89    1.00000000000000E+00
   90    1.12471385252855E-15  1.00000000000005E+00
   91   -6.26003934833027E-16  1.01068394782857E-16  1.00000000000000E+00
   92   -8.36937055676858E-16  1.09100172946959E-16  4.15406874311019E-16  1.00000000000000E+00
   93   -1.30764046424612E-16 -1.36889947517833E-16  2.84840239502676E-16  1.03328622793266E-16
   94   -2.22261445359528E-16 -4.06322111373703E-14 -3.43041567374414E-16 -1.45066250678560E-16

 column          93                    94
 row
   93    1.00000000000000E+00
   94    4.07117915768307E-17  1.00000000000004E+00


 SFO contributions (%) per orbital
 (multiplication by the orbital occupation yields the SFO Gross Populations)

 Orb.:       13     14     15     16     17     18     19     20     21     22     23     24     25     26
 occup:     2.00   2.00   2.00   2.00   2.00   2.00   2.00   2.00   2.00   2.00   0.00   0.00   0.00   0.00
 CF+SFO     ----   ----   ----   ----   ----   ----   ----   ----   ----   ----   ----   ----   ----   ----
 ------
      8:   49.79  49.91   0.09  -0.00   0.00   0.00   0.00   0.06   0.00   0.00  -0.01   0.04   0.02  -0.00
      9:    0.91   0.56  77.77   0.00   0.00   0.00   0.00  19.32  -0.00   0.00   1.04   0.04   0.03   0.11
     10:    0.00   0.00   0.00  85.93   1.55  10.73   1.47   0.00   0.05   0.01  -0.00  -0.00  -0.00   0.00
     11:    0.00   0.00   0.00   1.55  85.93   1.47  10.73   0.00   0.01   0.05   0.00   0.00   0.00   0.00
     12:    0.00   0.00   0.00   2.97   1.23  37.50   0.26   0.00  57.35   0.37   0.00   0.00   0.00   0.00
     13:    0.00   0.00   0.00   1.23   2.97   0.26  37.51   0.00   0.37  57.35   0.00   0.00  -0.00   0.00
     14:    0.38   0.14   2.85   0.00   0.00   0.00   0.00  30.84   0.00   0.00  65.50   0.27   0.02   0.02
     15:   -0.23   0.12   0.02  -0.00  -0.00   0.00  -0.00  -0.43  -0.00  -0.00  -0.58 112.97   0.82  -0.01
     16:    0.04  -0.07   0.03  -0.00   0.00   0.00   0.00   0.14   0.00   0.00  -0.20  -0.45  49.49  44.88
     19:    0.17  -0.11  -0.00  -0.00   0.00  -0.00  -0.00  -0.04  -0.00   0.00   0.06  -0.29   1.87   2.53
     24:   -0.02  -0.02   0.00   0.00  -0.00  -0.00  -0.00  -0.11   0.00  -0.00  -0.00  -0.39   0.41   1.33
     27:   -0.02   0.03   0.07  -0.00   0.00  -0.00  -0.00  -0.28  -0.00  -0.00  -0.71  -1.30   0.05   1.30
     66:   48.05  49.08   1.52   0.00   0.00   0.00  -0.00   0.04   0.00   0.00   0.60  -0.70  -0.11   0.00
     67:    0.00   0.00   0.25   5.13   2.86   8.93  40.02   0.75   7.44  33.83   0.50  -0.03   0.00   0.01
     68:    0.01   0.04  10.99   1.48   1.34  16.02   1.24  32.48  13.53   1.03  21.95  -1.12   0.05   0.31
     69:    0.01   0.02   5.61   1.50   3.91  24.75   8.44  16.52  20.93   7.03  11.19  -0.57   0.02   0.16
     70:    0.01   0.06  -0.12   0.00  -0.00   0.00  -0.00   0.05   0.00  -0.00  -0.06  -5.05  20.32   3.21
     71:    0.00   0.00   0.01  -0.07  -0.10   0.16   0.03   0.04   0.21   0.03  -0.01  -0.48   3.10   5.16
     73:    0.02   0.00   0.11  -0.02  -0.01   0.03   0.00   0.34   0.03   0.00  -0.06  -3.67  23.83  39.64


 Summation over all MOs, multiplied by occupation: Total SFO Gross Populations in this Irrep
 ===========================================================================================

     2.00    2.00    2.00    2.00    2.00    2.00    2.00    2.00    1.97    1.99    1.99    1.99
     1.99    0.69   -0.01    0.00    0.01    0.01    0.00   -0.00   -0.00    0.00    0.00   -0.00
    -0.00   -0.00   -0.00    0.00    0.00    0.00    0.00    0.00    0.00   -0.00    0.00    0.00
     0.00    0.00    0.00   -0.00    0.00    0.00    0.00   -0.00    0.00    0.00    0.00    0.00
     0.00    0.00    0.00    0.00    0.00    0.00    0.00    0.00    0.00   -0.00   -0.00    0.00
     2.00    2.00    2.00    2.00    2.00    1.99    1.98    1.57    1.78   -0.00    0.01    0.01
     0.01    0.01    0.01    0.00    0.00    0.00    0.00    0.00    0.00    0.00    0.00    0.00
     0.00   -0.00   -0.00   -0.00   -0.00   -0.00   -0.00   -0.00   -0.00   -0.00



 List of all MOs, ordered by energy, with the most significant SFO gross populations
 ===================================================================================

 Each percentage contribution in the table below corresponds to the indicated SFO.
 In general, a SFO may be a linear combination of several Fragment Orbitals on the same,
 or on symmetry-related Fragments. Only the first 'member' of such a combination is
 specified here. A full definition of all SFOs is given in an earlier part of the output.
 The numbering of the SFOs in this table does NOT include the Core Orbitals, and starts
 from one for each symmetry representation, as in the SFO definition list earlier.

       E(eV)  Occ       MO           %     SFO (first member)   E(eV)  Occ   Fragment
 -------------------------------------------------------------------------------------

     -14.388  2.00    13 A         49.79%     8 A             -21.362  2.00     1 FCl
                                   48.05%     6 A             -10.473  2.00     2 Cl
     -13.979  2.00    14 A         49.91%     8 A             -21.362  2.00     1 FCl
                                   49.08%     6 A             -10.473  2.00     2 Cl
      -6.189  2.00    15 A         77.77%     9 A             -11.986  2.00     1 FCl
                                   10.99%     8 A               0.909  2.00     2 Cl
                                    5.61%     9 A               0.909  2.00     2 Cl
                                    2.85%    14 A              -7.834  0.00     1 FCl
                                    1.52%     6 A             -10.473  2.00     2 Cl
      -4.202  2.00    16 A         85.93%    10 A             -10.100  2.00     1 FCl
                                    5.13%     7 A               0.909  2.00     2 Cl
                                    2.97%    12 A              -8.757  2.00     1 FCl
                                    1.55%    11 A             -10.100  2.00     1 FCl
                                    1.50%     9 A               0.909  2.00     2 Cl
                                    1.48%     8 A               0.909  2.00     2 Cl
                                    1.23%    13 A              -8.757  2.00     1 FCl
      -4.202  2.00    17 A         85.93%    11 A             -10.100  2.00     1 FCl
                                    3.91%     9 A               0.909  2.00     2 Cl
                                    2.97%    13 A              -8.757  2.00     1 FCl
                                    2.86%     7 A               0.909  2.00     2 Cl
                                    1.55%    10 A             -10.100  2.00     1 FCl
                                    1.34%     8 A               0.909  2.00     2 Cl
                                    1.23%    12 A              -8.757  2.00     1 FCl
      -2.332  2.00    18 A         37.50%    12 A              -8.757  2.00     1 FCl
                                   24.75%     9 A               0.909  2.00     2 Cl
                                   16.02%     8 A               0.909  2.00     2 Cl
                                   10.73%    10 A             -10.100  2.00     1 FCl
                                    8.93%     7 A               0.909  2.00     2 Cl
                                    1.47%    11 A             -10.100  2.00     1 FCl
      -2.332  2.00    19 A         40.02%     7 A               0.909  2.00     2 Cl
                                   37.51%    13 A              -8.757  2.00     1 FCl
                                   10.73%    11 A             -10.100  2.00     1 FCl
                                    8.44%     9 A               0.909  2.00     2 Cl
                                    1.47%    10 A             -10.100  2.00     1 FCl
                                    1.24%     8 A               0.909  2.00     2 Cl
      -2.238  2.00    20 A         32.48%     8 A               0.909  2.00     2 Cl
                                   30.84%    14 A              -7.834  0.00     1 FCl
                                   19.32%     9 A             -11.986  2.00     1 FCl
                                   16.52%     9 A               0.909  2.00     2 Cl
      -1.940  2.00    21 A         57.35%    12 A              -8.757  2.00     1 FCl
                                   20.93%     9 A               0.909  2.00     2 Cl
                                   13.53%     8 A               0.909  2.00     2 Cl
                                    7.44%     7 A               0.909  2.00     2 Cl
      -1.940  2.00    22 A         57.35%    13 A              -8.757  2.00     1 FCl
                                   33.83%     7 A               0.909  2.00     2 Cl
                                    7.03%     9 A               0.909  2.00     2 Cl
                                    1.03%     8 A               0.909  2.00     2 Cl
      -0.102  0.00    23 A         65.50%    14 A              -7.834  0.00     1 FCl
                                   21.95%     8 A               0.909  2.00     2 Cl
                                   11.19%     9 A               0.909  2.00     2 Cl
                                    1.04%     9 A             -11.986  2.00     1 FCl



 =======================================================================
 Electrostatic potential at the Nuclei due to electrons and other nuclei
 =======================================================================
  
         Atom                  Potential
         ----                  ---------
     1)   F                  26.79439557
     2)   Cl                 64.62654737
     3)   Cl                 64.62654885
 
 
 ========================
 No memory problems found
 ========================
 
 Maximum number of active allocate calls:         592
 
 *******************************************************************************

                             A D F   E X I T
 NORMAL TERMINATION



 =================
 Timing Statistics
 =================
  
 Total Used :                     CPU=        4.22      System=        0.14     Elapsed=        4.59

 Calls  Section                     ( Mean, Percentage )
 ---------------------------------------------------------------------------------------------------
     3  ><      ................      0.00    0.00             0.00    0.69             0.00    0.01
     1  INIT    ................      0.46   10.84             0.02   13.19             0.48   10.41
     1  GEOMET  ................      0.02    0.52             0.01    4.17             0.26    5.60
     1  FRAGM   ................      0.01    0.21             0.01    4.86             0.02    0.36
     1  INPUTA  ................      0.00    0.02             0.00    0.00             0.00    0.01
     1  ATDEN   ................      0.00    0.07             0.00    0.00             0.00    0.08
     1  MAINSY  ................      0.01    0.14             0.00    0.69             0.01    0.15
     1  SYMFIT  ................      0.00    0.02             0.00    0.69             0.00    0.04
     1  CORORT  ................      0.00    0.00             0.00    0.00             0.00    0.01
     1  SYMORB  ................      0.00    0.05             0.00    0.00             0.00    0.05
     1  CLSMAT  ................      0.01    0.21             0.00    0.69             0.01    0.20
     1  ORTHON  ................      0.00    0.12             0.00    1.39             0.01    0.17
     1  GENPT   ................      0.08    1.92             0.00    2.78             0.08    1.84
     1  PTBAS   ................      0.02    0.57             0.00    0.00             0.02    0.52
    17  FOCKY   ................      0.08   30.66             0.00    9.72             0.08   28.26
    17  FOCKTR  ................      0.00    0.36             0.00    1.39             0.00    0.45
    17  SDIIS   ................      0.00    0.85             0.00    0.00             0.00    0.91
     1  COREPS  ................      0.06    1.38             0.00    1.39             0.06    1.31
     1  TOTEN   ................      0.20    4.74             0.00    3.47             0.21    4.47
     1  POPAN   ................      0.00    0.07             0.00    0.00             0.00    0.06
     1  DEBYE   ................      0.00    0.12             0.00    0.00             0.00    0.10
     1  INPUTE  ................      0.00    0.00             0.00    0.00             0.00    0.01
     1  SYMORE  ................      0.00    0.00             0.00    0.69             0.00    0.01
     1  METS    ................      0.00    0.00             0.00    0.00             0.00    0.02
     1  CETS    ................      0.01    0.31             0.00    0.69             0.01    0.29
     1  POPUL   ................      1.96   46.38             0.08   52.78             2.03   44.24
     1  EXIT PROCEDURE .........      0.02    0.43             0.00    0.69             0.02    0.43


 Currently Open Files (EXIT00)
 ====================

 Unit    Access Format  Status   Type       Ident (file)
 -------------------------------------------------------
   3      SEQ    FORM   TRANSP  NORMAL      LOGFILE
                                          ( logfile )


 Buffered I/O statistics
 =======================
 Memory available:                     67108864
 Number of records fitting in memory:     16131
 Input :   1.3% of                        53056  *4k bytes
 Output:  11.9% of                         3953  *4k bytes
 Records from serial files evicted:           0
                    others evicted:           0
 Hash table lookups:     150794 with          0 conflicts (  0.00%)

 ***************************************************************************************************
 (LOGFILE)
 <May09-2019> <17:12:08>  ADF 2017  RunTime: May09-2019 17:12:08  Nodes: 1  Procs: 12
 <May09-2019> <17:12:09>  *** (NO TITLE) ***
 <May09-2019> <17:12:09>  RunType   : SINGLE POINT
 <May09-2019> <17:12:09>  Net Charge: -1 (Nuclei minus Electrons)
 <May09-2019> <17:12:09>  Symmetry  : NOSYM
 <May09-2019> <17:12:09>  >>>> FRAGM
  Coordinates
    Atom         X           Y           Z   (Angstrom)
    1.F        -4.925125    3.099637   -0.045734
    2.Cl       -3.873652    1.278883    0.085098
    3.Cl       -5.976604    4.920399   -0.176566
 <May09-2019> <17:12:09>  >>>> CORORT
 <May09-2019> <17:12:09>  >>>> CLSMAT
 <May09-2019> <17:12:09>  >>>> ORTHON
 <May09-2019> <17:12:09>  >>>> GENPT
 <May09-2019> <17:12:09>  Block Length= 128
 <May09-2019> <17:12:09>  >>>> PTBAS
 <May09-2019> <17:12:09>  >>>> CYCLE
 <May09-2019> <17:12:09>              |Error|         MaxErr       Wt(A-DIIS)
 <May09-2019> <17:12:09>      1      1.02202518      0.65422057
 <May09-2019> <17:12:09>      2      1.12110777      0.34436010    100.0
 <May09-2019> <17:12:09>      3      0.58927929      0.22512848    100.0
 <May09-2019> <17:12:09>      4      0.62638980      0.30647838    100.0
 <May09-2019> <17:12:10>      5      1.58991260      0.47669922    100.0
 <May09-2019> <17:12:10>      6      0.55643669      0.18321564    100.0
 <May09-2019> <17:12:10>      7      0.12871753      0.05744678     57.0
 <May09-2019> <17:12:10>      8      0.32919881      0.15846270    100.0
 <May09-2019> <17:12:10>      9      0.13642590      0.04220218     41.6
 <May09-2019> <17:12:10>     10      0.05629394      0.02409172     23.3
 <May09-2019> <17:12:10>     11      0.01698367      0.00810068      7.2
 <May09-2019> <17:12:10>     12      0.00100309      0.00044245      0.0
 <May09-2019> <17:12:10>     13      0.00009122      0.00003678      0.0
 <May09-2019> <17:12:10>     14      0.00002457      0.00001058      0.0
 <May09-2019> <17:12:10>     15      0.00000484      0.00000230      0.0
 <May09-2019> <17:12:10>     16      0.00000135      0.00000056      0.0
 <May09-2019> <17:12:10>  SCF converged
 <May09-2019> <17:12:10>     17      0.00000021      0.00000010      0.0
 <May09-2019> <17:12:10>  >>>> TOTEN
 <May09-2019> <17:12:11>  >>>> POPAN
 <May09-2019> <17:12:11>  >>>> DEBYE
 <May09-2019> <17:12:11>  >>>> AMETS
 <May09-2019> <17:12:13>   Bond Energy          -0.08032662 a.u.
 <May09-2019> <17:12:13>   Bond Energy          -2.18579857 eV
 <May09-2019> <17:12:13>   Bond Energy         -50.41       kcal/mol
 <May09-2019> <17:12:13>  >>>> POPUL
 <May09-2019> <17:12:13>  NORMAL TERMINATION
 <May09-2019> <17:12:13>  END
