
Create Br   file=TZ2P-Br
XC
  GGA blyp
  DISPERSION Grimme3 BJDAMP
End
End Input

 *******************************************************************************
 *                                                                             *
 *  -------------------------------------                                      *
 *   Amsterdam Density Functional  (ADF)         development version           *
 *  -------------------------------------                                      *
 *                                               r61132 2017-09-08             *
 *                                                                             *
 *                                                                             *
 *                              =================                              *
 *                              |               |                              *
 *                              |     A D F     |                              *
 *                              |               |                              *
 *                              =================                              *
 *                                                                             *
 *                                                                             *
 *   Online information and documentation:  https://www.scm.com/support/       *
 *   E-mail:  support@scm.com   info@scm.com                                   *
 *                                                                             *
 *   Scientific publications using ADF results must be properly referenced     *
 *   See the User Manuals (or the web site) for recommended citations          *
 *   The terms and conditions of the End User License Agreement apply to       *
 *   the use of ADF, https://www.scm.com/license-terms/                        *
 *                                                                             *
 **********************  x86_64_linux_intel / intelmpi  ************************
 
 Licensed to: VU/FEW (+ SARA) / ALGEMEEN / Amsterdam / THE NETHERLANDS
 SCM User ID: u7668
  
 ADF development version  RunTime: Apr18-2019 13:52:09  Nodes: 1  Procs: 1

 Temporary files are created in /local/datastore0/tcst25/186688/kid_0.dXJ7hV

 Bromine (TZ2P)



 ===========================
 A T T A C H E D   F I L E S
 ===========================
  
 CREATE - Data File:    TZ2P-Br
                        Bromine (TZ2P)



 ===============================
 M O D E L   P A R A M E T E R S
 ===============================
  
 DENSITY FUNCTIONAL POTENTIAL (scf)
    LDA:                               Exchange only                           == Not Default ==
    Gradient Corrections:              Becke88 LYP                             == Not Default ==

 SPIN  (restricted / unrestr.)
    Molecule:                          Restricted                               

 OTHER ASPECTS
    Relativistic Corrections:          ---                                      

    Nuclear Charge Density Model:      Point Charge Nuclei                      
    Core Treatment:                    Frozen Orbital(s)                        

    Hyperfine or Zeeman Interaction:   ---                                      

 Settings for Grimme 3 dispersion correction

      damping                        BJ
      s6                          1.000
      a1                          0.430
      s8                          2.700
      a2                          4.236

 Other (technical) parameters

      alpha                      14.000
      version                         4
 



 =====================================
 S Y M M E T R Y ,   E L E C T R O N S
 =====================================
  
 Symmetry: ATOM

 Irreducible Representations, including subspecies
 -------------------------------------------------
 S
 P:x  P:y  P:z
 D:z2  D:x2-y2  D:xy  D:xz  D:yz
 F:z3  F:z  F:xyz  F:z2x  F:z2y  F:x  F:y


 Configuration of Valence Electrons
 ==================================

          Occupation Numbers
          -------------------------------------------------
 S        4*2
 P        2*6 5
 D        10
 F        0
          -------------------------------------------------

 Total:   35

 Net Charge: 0 (Nuclei minus Electrons)

 Preset values for MO occupations will be applied through SCF cycle no. 1000000
 Thereafter, the program will assign electrons to MOs that are spatially
 similar to the occupied MOs in a "reference" cycle ("KeepOrbitals").
 The reference cycle is always the PREVIOUS cycle: it will evolve with
 the SCF procedure.



 ================================
 (Slater-type)  F U N C T I O N S  ***  (Basis and Fit)  ***
 ================================
  

 Atom Type    1  (Br)
 ==============

 Valence Basis Sets:  20
 -----------------------
   1 S   41.300000
   1 S   32.800000
   2 S   13.900000
   2 P   19.450000
   2 P   13.100000
   3 S    7.200000
   3 S    4.950000
   3 P    7.900000
   3 P    5.050000
   3 D   10.900000
   3 D    6.050000
   3 D    3.500000
   4 S    4.500000
   4 S    2.800000
   4 S    1.800000
   4 P    3.250000
   4 P    1.950000
   4 P    1.200000
   4 D    1.800000
   4 F    1.800000


 BAS: List of all Elementary Cartesian Basis Functions
 =====================================================

 The numbering in the list below (to the right of the function characteristics) is referred
 to in print-outs of MO eigenvectors and Mulliken populations in the BAS representation
 (as contrasted to the SFO representation).

 Notes:
 1. The functions are characterized by a polynomial prefactor (powers of x,y,z and r) and
    an exponential decay factor alpha.
 2. Since the basis sets are specific for an atom TYPE, the individual functions occur on
    all atoms of that type.
 3. The word 'Core' in the left margin signals that it is a Core Function (CF) : not a
    degree of freedom in the valence set, but only used to ensure orthogonalization of
    the other valence basis functions on the frozen Core Orbitals.


 (power of) X  Y  Z  R     Alpha  on Atom
            ==========     =====     ==========

 Br                                   1
                                  ---------------------------------------------------------------------------
            0  0  0  0    41.300      1
            0  0  0  0    32.800      2
            0  0  0  1    13.900      3
            1  0  0  0    19.450      4
            0  1  0  0    19.450      5
            0  0  1  0    19.450      6
            1  0  0  0    13.100      7
            0  1  0  0    13.100      8
            0  0  1  0    13.100      9
            0  0  0  2     7.200     10
            0  0  0  2     4.950     11
            1  0  0  1     7.900     12
            0  1  0  1     7.900     13
            0  0  1  1     7.900     14
            1  0  0  1     5.050     15
            0  1  0  1     5.050     16
            0  0  1  1     5.050     17
            2  0  0  0    10.900     18
            1  1  0  0    10.900     19
            1  0  1  0    10.900     20
            0  2  0  0    10.900     21
            0  1  1  0    10.900     22
            0  0  2  0    10.900     23
            2  0  0  0     6.050     24
            1  1  0  0     6.050     25
            1  0  1  0     6.050     26
            0  2  0  0     6.050     27
            0  1  1  0     6.050     28
            0  0  2  0     6.050     29
            2  0  0  0     3.500     30
            1  1  0  0     3.500     31
            1  0  1  0     3.500     32
            0  2  0  0     3.500     33
            0  1  1  0     3.500     34
            0  0  2  0     3.500     35
            0  0  0  3     4.500     36
            0  0  0  3     2.800     37
            0  0  0  3     1.800     38
            1  0  0  2     3.250     39
            0  1  0  2     3.250     40
            0  0  1  2     3.250     41
            1  0  0  2     1.950     42
            0  1  0  2     1.950     43
            0  0  1  2     1.950     44
            1  0  0  2     1.200     45
            0  1  0  2     1.200     46
            0  0  1  2     1.200     47
            2  0  0  1     1.800     48
            1  1  0  1     1.800     49
            1  0  1  1     1.800     50
            0  2  0  1     1.800     51
            0  1  1  1     1.800     52
            0  0  2  1     1.800     53
            3  0  0  0     1.800     54
            2  1  0  0     1.800     55
            2  0  1  0     1.800     56
            1  2  0  0     1.800     57
            1  1  1  0     1.800     58
            1  0  2  0     1.800     59
            0  3  0  0     1.800     60
            0  2  1  0     1.800     61
            0  1  2  0     1.800     62
            0  0  3  0     1.800     63

 Total number of charge fitting functions (nprimf)       170
 Total number of Cartesian basis functions (naos)         63
 Total number of Cartesian core functions  (ncos)          0



 BAS: List of all Elementary Cartesian Basis Functions
 =====================================================

 The numbering in the list below (to the right of the function characteristics) is referred
 to in print-outs of MO eigenvectors and Mulliken populations in the BAS representation
 (as contrasted to the SFO representation).

 Notes:
 1. The functions are characterized by a polynomial prefactor (powers of x,y,z and r) and
    an exponential decay factor alpha.
 2. Since the basis sets are specific for an atom TYPE, the individual functions occur on
    all atoms of that type.
 3. The word 'Core' in the left margin signals that it is a Core Function (CF) : not a
    degree of freedom in the valence set, but only used to ensure orthogonalization of
    the other valence basis functions on the frozen Core Orbitals.


 (power of) X  Y  Z  R     Alpha  on Atom
            ==========     =====     ==========

 Br                                   1
                                  ---------------------------------------------------------------------------
            0  0  0  0    41.300      1
            0  0  0  0    32.800      2
            0  0  0  1    13.900      3
            1  0  0  0    19.450      4
            0  1  0  0    19.450      5
            0  0  1  0    19.450      6
            1  0  0  0    13.100      7
            0  1  0  0    13.100      8
            0  0  1  0    13.100      9
            0  0  0  2     7.200     10
            0  0  0  2     4.950     11
            1  0  0  1     7.900     12
            0  1  0  1     7.900     13
            0  0  1  1     7.900     14
            1  0  0  1     5.050     15
            0  1  0  1     5.050     16
            0  0  1  1     5.050     17
            2  0  0  0    10.900     18
            1  1  0  0    10.900     19
            1  0  1  0    10.900     20
            0  2  0  0    10.900     21
            0  1  1  0    10.900     22
            0  0  2  0    10.900     23
            2  0  0  0     6.050     24
            1  1  0  0     6.050     25
            1  0  1  0     6.050     26
            0  2  0  0     6.050     27
            0  1  1  0     6.050     28
            0  0  2  0     6.050     29
            2  0  0  0     3.500     30
            1  1  0  0     3.500     31
            1  0  1  0     3.500     32
            0  2  0  0     3.500     33
            0  1  1  0     3.500     34
            0  0  2  0     3.500     35
            0  0  0  3     4.500     36
            0  0  0  3     2.800     37
            0  0  0  3     1.800     38
            1  0  0  2     3.250     39
            0  1  0  2     3.250     40
            0  0  1  2     3.250     41
            1  0  0  2     1.950     42
            0  1  0  2     1.950     43
            0  0  1  2     1.950     44
            1  0  0  2     1.200     45
            0  1  0  2     1.200     46
            0  0  1  2     1.200     47
            2  0  0  1     1.800     48
            1  1  0  1     1.800     49
            1  0  1  1     1.800     50
            0  2  0  1     1.800     51
            0  1  1  1     1.800     52
            0  0  2  1     1.800     53
            3  0  0  0     1.800     54
            2  1  0  0     1.800     55
            2  0  1  0     1.800     56
            1  2  0  0     1.800     57
            1  1  1  0     1.800     58
            1  0  2  0     1.800     59
            0  3  0  0     1.800     60
            0  2  1  0     1.800     61
            0  1  2  0     1.800     62
            0  0  3  0     1.800     63
1
 ***************************************************************************************************



                                              ***********************
                                              *  T E C H N I C A L  *
                                              ***********************
  



 =============================================================
 P A R A L L E L I Z A T I O N  and  V E C T O R I Z A T I O N
 =============================================================
  
 Nr of parallel processes:                                1
 Maximum vector length in NumInt loops:                 128

 IO buffersize (Mb):                                     64.000000



 =====================
 S C F   U P D A T E S
 =====================
  
 Max. nr. of cycles:                               300
 Convergence criterion:                              0.0000000100
   secondary criterion:                              0.0000000100

 Mix parameter (when DIIS does not apply):           0.2000000000
 Special mix parameter for the first cycle:          1.0000000000
 Mixed ADIIS+DIIS will be used
    Max number of expansion vectors:                10
    Pure ADIIS when Max([F,P]) is above              0.1000000000
    Pure DIIS when Max([F,P]) is below               0.0010000000
 Automatic ElectronSmearing (in case of problematic SCF convergence) disabled



 =================
 P R E C I S I O N  ***  (General: NumInt, NeglectFunctionTails, ...)  ***
 =================
  

 NumInt:           Target precision:                12.0000000000
 -------           Initial precision:               10.0000000000
                   Min. precision (optimization):   10.0000000000

 Neglect Functions:          Basis functions:        0.1000000000E-13
 ------------------          Fit functions:          0.1000000000E-13



 ===========================
 L I N E A R   S C A L I N G
 ===========================
  

 Cut-off radii density fit:                        0.1000000000E-97
 Overlap cut-off criterion AO matrix elements:     0.1000000000E-97
 Cut-offs for Coulomb potential and fitted density:0.1000000000E-97
 Cut-off criterion for Coulomb multipole terms:    0.1000000000E-97
 Progressive Convergence parameter:                 0.000000000    
1
 ***************************************************************************************************



                                            ***************************
                                            *  C O M P U T A T I O N  *
                                            ***************************
  

 Number of elements of the density matrix on this node (used, total):      2016      2016



 ===========================================
 Numerical Integration : Fuzzy Cells (Becke)
 ===========================================
  
 Becke grid quality: VERYGOOD       
  
 Lebedev angular grid order:             min:  13 max:  41
 Nr. of radial points:                   min: 106 max: 106

 Total nr. of points:        106
 Nr. of blocks:                1
 Block length:               106
 Nr. of dummy points:          0


 Test of Precision of the Numerical Integration Grid
 ===================================================

 Integral of the Total Core Density:                   0.00000000000000



 ========================
 Density Fitting (zlmFit)
 ========================
  
 ZlmFit Fit Quality: VERYGOOD       
  
 Max L-expansion:                        min:   0 max:   0
 Nr. of radial interpolation points:     min: 240 max: 240



 =====
 S C F  ***  ScaSCF  ***
 =====
  

 CYCLE    1
 SCF Error: norm([F,P])=      0.000000000000, max([F,P])=      0.000000000000
 orbitals (Q,E):
 ---------------
 S :1...8            ( 2.00  -612.4786)  ( 2.00  -152.6714)  ( 2.00   -67.1618)  ( 2.00   -37.3471)
                     ( 0.00   -23.4672)  ( 0.00   -15.4322)  ( 0.00    -9.8352)  ( 0.00   627.8721)
 P :1...7            ( 6.00  -153.0715)  ( 6.00   -67.2002)  ( 5.00   -36.6918)  ( 0.00   -21.5714)
                     ( 0.00   -12.7861)  ( 0.00    -7.3590)  ( 0.00    16.5106)
 D :1...4            (10.00   -67.9473)  ( 0.00   -38.1263)  ( 0.00   -23.3212)  ( 0.00   -12.4393)
 F :1...1            ( 0.00   -14.1300)

 CYCLE    2
  SDIIS (wt  0.000):  1.0000 -0.0000
 A-DIIS (wt  1.000):  0.0000  1.0000
  DIIS coefficients:  0.0000  1.0000
 SCF Error: norm([F,P])=    133.903788591766, max([F,P])=     33.002638835768
 orbitals (Q,E):
 ---------------
 S :1...5            ( 2.00  -440.6623)  ( 2.00   -34.4608)  ( 2.00    -0.4838)  ( 2.00     0.2836)
                     ( 0.00     1.7588)
 P :1...4            ( 6.00   -26.4444)  ( 6.00     0.0834)  ( 5.00     0.3720)  ( 0.00     1.4169)
 D :1...2            (10.00     0.6774)  ( 0.00     3.4882)
 F :1...1            ( 0.00     1.3965)

 CYCLE    3
  SDIIS (wt  0.000):  0.1412  0.8588
 A-DIIS (wt  1.000):  0.4812  0.5188
  DIIS coefficients:  0.4812  0.5188
 SCF Error: norm([F,P])=     49.629143697465, max([F,P])=     17.595188807560
 orbitals (Q,E):
 ---------------
 S :1...5            ( 2.00  -480.8932)  ( 2.00   -64.7226)  ( 2.00   -13.6294)  ( 2.00    -3.4868)
                     ( 0.00    -0.5582)
 P :1...4            ( 6.00   -58.1726)  ( 6.00   -11.4786)  ( 5.00    -2.7508)  ( 0.00    -0.3243)
 D :1...2            (10.00    -7.6458)  ( 0.00    -1.4985)
 F :1...1            ( 0.00    -0.1774)

 CYCLE    4
  SDIIS (wt  0.000):  0.0224 -0.0021  0.9797
 A-DIIS (wt  1.000):  0.0000  0.0000  1.0000
  DIIS coefficients:  0.0000  0.0000  1.0000
 SCF Error: norm([F,P])=      9.092094844053, max([F,P])=      2.124855053538
 orbitals (Q,E):
 ---------------
 S :1...5            ( 2.00  -477.9553)  ( 2.00   -58.6455)  ( 2.00    -6.0025)  ( 2.00    -0.0887)
                     ( 0.00     0.6741)
 P :1...4            ( 6.00   -52.5726)  ( 6.00    -3.9206)  ( 5.00     0.0754)  ( 0.00     0.4470)
 D :1...2            (10.00    -0.2229)  ( 0.00     0.6460)
 F :1...1            ( 0.00     1.2104)

 CYCLE    5
  SDIIS (wt  0.000):  0.0181 -0.0308  0.6039  0.4089
 A-DIIS (wt  1.000):  0.0000  0.0000  0.5822  0.4178
  DIIS coefficients:  0.0000  0.0000  0.5822  0.4178
 SCF Error: norm([F,P])=     11.701584191545, max([F,P])=      3.988425979038
 orbitals (Q,E):
 ---------------
 S :1...5            ( 2.00  -481.8352)  ( 2.00   -62.3102)  ( 2.00    -8.5155)  ( 2.00    -0.7697)
                     ( 0.00     0.1875)
 P :1...4            ( 6.00   -56.2897)  ( 6.00    -6.4201)  ( 5.00    -0.3523)  ( 0.00     0.1239)
 D :1...2            (10.00    -2.6384)  ( 0.00     0.1906)
 F :1...1            ( 0.00     0.7840)

 CYCLE    6
  SDIIS (wt  0.000): -0.0026 -0.0016  0.0582  0.1076  0.8383
 A-DIIS (wt  1.000):  0.0000  0.0000  0.0000  0.0000  1.0000
  DIIS coefficients:  0.0000  0.0000  0.0000  0.0000  1.0000
 SCF Error: norm([F,P])=      1.823540048332, max([F,P])=      0.456619293025
 orbitals (Q,E):
 ---------------
 S :1...5            ( 2.00  -480.3974)  ( 2.00   -61.3034)  ( 2.00    -8.2095)  ( 2.00    -0.6754)
                     ( 0.00     0.2537)
 P :1...4            ( 6.00   -55.2073)  ( 6.00    -6.1080)  ( 5.00    -0.2621)  ( 0.00     0.1463)
 D :1...2            (10.00    -2.3134)  ( 0.00     0.2796)
 F :1...1            ( 0.00     0.8617)

 CYCLE    7
  SDIIS (wt  0.000): -0.0001  0.0001  0.0162 -0.0122  0.4359  0.5600
 A-DIIS (wt  1.000):  0.0000  0.0000  0.0000  0.0000  0.5218  0.4782
  DIIS coefficients:  0.0000  0.0000  0.0000  0.0000  0.5218  0.4782
 SCF Error: norm([F,P])=      1.607695839970, max([F,P])=      0.415842628956
 orbitals (Q,E):
 ---------------
 S :1...5            ( 2.00  -481.0075)  ( 2.00   -61.7929)  ( 2.00    -8.4313)  ( 2.00    -0.7171)
                     ( 0.00     0.2346)
 P :1...4            ( 6.00   -55.7193)  ( 6.00    -6.3308)  ( 5.00    -0.2925)  ( 0.00     0.1353)
 D :1...2            (10.00    -2.5382)  ( 0.00     0.2584)
 F :1...1            ( 0.00     0.8462)

 CYCLE    8
  SDIIS (wt  0.813): -0.0000  0.0000  0.0003 -0.0007  0.1156  0.1336  0.7512
 A-DIIS (wt  0.187):  0.0000  0.0000  0.0000  0.0000  0.0000  0.0000  1.0000
  DIIS coefficients: -0.0000  0.0000  0.0003 -0.0005  0.0941  0.1086  0.7976
 SCF Error: norm([F,P])=      0.065754007621, max([F,P])=      0.019467288040
 orbitals (Q,E):
 ---------------
 S :1...5            ( 2.00  -480.9996)  ( 2.00   -61.7672)  ( 2.00    -8.3915)  ( 2.00    -0.6991)
                     ( 0.00     0.2415)
 P :1...4            ( 6.00   -55.6965)  ( 6.00    -6.2914)  ( 5.00    -0.2791)  ( 0.00     0.1389)
 D :1...2            (10.00    -2.4995)  ( 0.00     0.2673)
 F :1...1            ( 0.00     0.8551)

 CYCLE    9
  SDIIS (wt  0.928): -0.0000 -0.0000 -0.0004  0.0001  0.0270  0.0241  0.3726  0.5766
 A-DIIS (wt  0.072):  0.0000  0.0000  0.0000  0.0000  0.0000  0.0000  0.1253  0.8747
  DIIS coefficients: -0.0000 -0.0000 -0.0004  0.0001  0.0251  0.0224  0.3549  0.5979
 SCF Error: norm([F,P])=      0.026013191770, max([F,P])=      0.008091160141
 orbitals (Q,E):
 ---------------
 S :1...5            ( 2.00  -481.0129)  ( 2.00   -61.7801)  ( 2.00    -8.4039)  ( 2.00    -0.7064)
                     ( 0.00     0.2380)
 P :1...4            ( 6.00   -55.7094)  ( 6.00    -6.3038)  ( 5.00    -0.2850)  ( 0.00     0.1366)
 D :1...2            (10.00    -2.5117)  ( 0.00     0.2628)
 F :1...1            ( 0.00     0.8506)

 CYCLE   10
  SDIIS (wt  1.000): -0.0000  0.0000 -0.0000 -0.0000  0.0019  0.0015  0.0216  0.0490  0.9260
  DIIS coefficients: -0.0000  0.0000 -0.0000 -0.0000  0.0019  0.0015  0.0216  0.0490  0.9260
 SCF Error: norm([F,P])=      0.000463673934, max([F,P])=      0.000100374140
 orbitals (Q,E):
 ---------------
 S :1...5            ( 2.00  -481.0128)  ( 2.00   -61.7801)  ( 2.00    -8.4038)  ( 2.00    -0.7064)
                     ( 0.00     0.2380)
 P :1...4            ( 6.00   -55.7094)  ( 6.00    -6.3036)  ( 5.00    -0.2850)  ( 0.00     0.1366)
 D :1...2            (10.00    -2.5116)  ( 0.00     0.2628)
 F :1...1            ( 0.00     0.8506)

 CYCLE   11
  SDIIS (wt  1.000): -0.0000  0.0000 -0.0000 -0.0000  0.0000  0.0000  0.0003  0.0002 -0.0123  1.0118
  DIIS coefficients: -0.0000  0.0000 -0.0000 -0.0000  0.0000  0.0000  0.0003  0.0002 -0.0123  1.0118
 SCF Error: norm([F,P])=      0.000010859570, max([F,P])=      0.000002783508
 orbitals (Q,E):
 ---------------
 S :1...5            ( 2.00  -481.0127)  ( 2.00   -61.7800)  ( 2.00    -8.4038)  ( 2.00    -0.7064)
                     ( 0.00     0.2380)
 P :1...4            ( 6.00   -55.7094)  ( 6.00    -6.3036)  ( 5.00    -0.2850)  ( 0.00     0.1366)
 D :1...2            (10.00    -2.5116)  ( 0.00     0.2628)
 F :1...1            ( 0.00     0.8506)

 CYCLE   12
  SDIIS (wt  1.000): -0.0000  0.0000  0.0000 -0.0114  1.0114
  DIIS coefficients: -0.0000  0.0000  0.0000 -0.0114  1.0114
 SCF Error: norm([F,P])=      0.000000253930, max([F,P])=      0.000000059057
 orbitals (Q,E):
 ---------------
 S :1...5            ( 2.00  -481.0127)  ( 2.00   -61.7800)  ( 2.00    -8.4038)  ( 2.00    -0.7064)
                     ( 0.00     0.2380)
 P :1...4            ( 6.00   -55.7094)  ( 6.00    -6.3036)  ( 5.00    -0.2850)  ( 0.00     0.1366)
 D :1...2            (10.00    -2.5116)  ( 0.00     0.2628)
 F :1...1            ( 0.00     0.8506)

 CYCLE   13
  SDIIS (wt  1.000):  0.0000 -0.0000 -0.0002  0.0471  0.9531
  DIIS coefficients:  0.0000 -0.0000 -0.0002  0.0471  0.9531
 SCF Error: norm([F,P])=      0.000000008155, max([F,P])=      0.000000002198
 orbitals (Q,E):
 ---------------
 S :1...5            ( 2.00  -481.0127)  ( 2.00   -61.7800)  ( 2.00    -8.4038)  ( 2.00    -0.7064)
                     ( 0.00     0.2380)
 P :1...4            ( 6.00   -55.7094)  ( 6.00    -6.3036)  ( 5.00    -0.2850)  ( 0.00     0.1366)
 D :1...2            (10.00    -2.5116)  ( 0.00     0.2628)
 F :1...1            ( 0.00     0.8506)

 SCF CONVERGED

 CYCLE   14
1
 ***************************************************************************************************



                                                *******************
                                                *  R E S U L T S  *
                                                *******************
  
 *** Setting up for NEW gradients in Focky
 *** Using FIT density in Focky

 Orbital Energies, per Irrep and Spin:
 ======================================
                        Occup              E (au)              E (eV)       Diff (eV) with prev. cycle
                        -----      --------------------        ------       --------------------------
 S
               1        2.000     -0.48101274587878E+03    -13089.023              -3.04E-09
               2        2.000     -0.61780048652771E+02     -1681.121              -1.34E-09
               3        2.000     -0.84037718795878E+01      -228.678              -2.41E-09
               4        2.000     -0.70640809652969E+00       -19.222              -2.95E-09
               5        0.000      0.23797090184223E+00         6.476
               6        0.000      0.24655941619106E+01        67.092
               7        0.000      0.14293653166501E+02       388.950
               8        0.000      0.74647931329125E+03     20312.736
 P
               1        6.000     -0.55709370544448E+02     -1515.929              -1.52E-09
               2        6.000     -0.63036166135521E+01      -171.530              -2.40E-09
               3        5.000     -0.28498840632730E+00        -7.755              -2.43E-09
               4        0.000      0.13662305746043E+00         3.718
               5        0.000      0.12150701661255E+01        33.064
               6        0.000      0.88352207867398E+01       240.419
               7        0.000      0.10087703617678E+03      2745.004
 D
               1       10.000     -0.25115984206637E+01       -68.344              -2.32E-09
               2        0.000      0.26280809227207E+00         7.151
               3        0.000      0.26773687643252E+01        72.855
               4        0.000      0.20605889125446E+02       560.715
 F
               1        0.000      0.85063213392399E+00        23.147


 Partially Occupied:
               3 P                -0.28498840632730E+00
  
 HOMO :        4 S                -0.70640809652969E+00
 LUMO :        4 P                 0.13662305746043E+00
  


 Orbital Energies, all Irreps
 ========================================

 Irrep        no.  (spin)   Occup              E (au)                E (eV)
 ---------------------------------------------------------------------------
 S             1             2.00       -0.48101274587878E+03    -13089.0228
 S             2             2.00       -0.61780048652771E+02     -1681.1207
 P             1             6.00       -0.55709370544448E+02     -1515.9291
 S             3             2.00       -0.84037718795878E+01      -228.6783
 P             2             6.00       -0.63036166135521E+01      -171.5301
 D             1            10.00       -0.25115984206637E+01       -68.3441
 S             4             2.00       -0.70640809652969E+00       -19.2223
 P             3             5.00       -0.28498840632730E+00        -7.7549
 P             4             0.00        0.13662305746043E+00         3.7177
 S             5             0.00        0.23797090184223E+00         6.4755
 D             2             0.00        0.26280809227207E+00         7.1514
 F             1             0.00        0.85063213392399E+00        23.1469
 P             5             0.00        0.12150701661255E+01        33.0637
 S             6             0.00        0.24655941619106E+01        67.0922
 D             3             0.00        0.26773687643252E+01        72.8549
 P             6             0.00        0.88352207867398E+01       240.4186
 S             7             0.00        0.14293653166501E+02       388.9501
 D             4             0.00        0.20605889125446E+02       560.7148
 P             7             0.00        0.10087703617678E+03      2745.0038
 S             8             0.00        0.74647931329125E+03     20312.7356


 All Electron Calculation, thus no Orbital Energies of the Core Orbitals are calculated



 =======================================
 M U L L I K E N   P O P U L A T I O N S
 =======================================
  
 The survey below gives for each atom:
 a) the total charge (Z minus electrons)
 b) the net spin polarization (nr of electrons spin-A minus spin-B)
 c) for each spin the atomic electron valence density (integrated) per L-value.

 Atom              Charge    Spin density          S         P         D         F
 ----              ------    ------------       ------    ------    ------    ------
 1 Br              0.0000                       8.0000   17.0000   10.0000    0.0000

 Populations of individual BAS functions
 ----------------------------------------
 1 Br           0.3604  1.5689  2.0728  0.7136  0.7136  0.7136  1.2644  1.2644  1.2644  1.4494
                0.5676  1.1356  1.1356  1.1356  0.8920  0.8920  0.8920  0.2683  0.4025  0.4025
                0.2683  0.4025  0.2683  0.7743  1.1615  1.1615  0.7743  1.1615  0.7743  0.2907
                0.4361  0.4361  0.2907  0.4361  0.2907  0.2958  1.2583  0.4268  0.5585  0.5585
                0.5585  0.8946  0.8946  0.8946  0.2080  0.2080  0.2080 -0.0001 -0.0001 -0.0001
               -0.0001 -0.0001 -0.0001  0.0000  0.0000  0.0000  0.0000  0.0000  0.0000  0.0000
                0.0000  0.0000  0.0000

 Gross Charges per Atom (Z minus electrons)
 ==========================================
             0.0000
 Net Total:  0.00000000



 =======================================================================
 Electrostatic potential at the Nuclei due to electrons and other nuclei
 =======================================================================
  
         Atom                  Potential
         ----                  ---------
     1)   Br                175.92949555
 
 
 ========================
 No memory problems found
 ========================
 
 Maximum number of active allocate calls:         447
 
 *******************************************************************************

                             A D F   E X I T
 NORMAL TERMINATION



 =================
 Timing Statistics
 =================
  
 Total Used :                     CPU=        0.82      System=        0.03     Elapsed=        0.85

 Calls  Section                     ( Mean, Percentage )
 ---------------------------------------------------------------------------------------------------
     3  ><      ................      0.00    0.12             0.00    0.00             0.00    0.09
     1  INIT    ................      0.01    1.34             0.01   50.00             0.03    3.01
     1  GEOMET  ................      0.01    0.73             0.00    7.69             0.01    1.01
     1  INPUTA  ................      0.00    0.12             0.00    0.00             0.00    0.19
     1  MAINSY  ................      0.00    0.61             0.00    3.85             0.01    0.70
     1  SYMFIT  ................      0.00    0.12             0.00    0.00             0.00    0.09
     1  CORORT  ................      0.00    0.00             0.00    0.00             0.00    0.03
     1  SYMORB  ................      0.00    0.12             0.00    0.00             0.00    0.08
     1  CLSMAT  ................      0.00    0.61             0.00    0.00             0.01    0.62
     1  ORTHON  ................      0.00    0.24             0.00    0.00             0.00    0.19
     1  GENPT   ................      0.02    2.93             0.00    3.85             0.03    2.97
     1  PTBAS   ................      0.00    0.49             0.00    0.00             0.00    0.43
    14  FOCKY   ................      0.05   81.71             0.00   19.23             0.05   78.94
    14  FOCKTR  ................      0.00    1.10             0.00    0.00             0.00    1.43
    14  SDIIS   ................      0.00    2.44             0.00    3.84             0.00    2.75
     1  COREPS  ................      0.04    4.39             0.00    0.00             0.04    4.31
     1  POPAN   ................      0.01    0.73             0.00    0.00             0.01    0.62
     1  DEBYE   ................      0.00    0.12             0.00    0.00             0.00    0.10
     1  EXIT PROCEDURE .........      0.02    2.07             0.00   11.54             0.02    2.41


 Currently Open Files (EXIT00)
 ====================

 Unit    Access Format  Status   Type       Ident (file)
 -------------------------------------------------------
   3      SEQ    FORM   TRANSP  NORMAL      LOGFILE
                                          ( logfile )


 Buffered I/O statistics
 =======================
 Memory available:                     67108864
 Number of records fitting in memory:     16131
 Input :   0.1% of                        29683  *4k bytes
 Output:  11.9% of                         1574  *4k bytes
 Records from serial files evicted:           0
                    others evicted:           0
 Hash table lookups:      77061 with          0 conflicts (  0.00%)

 ***************************************************************************************************
 (LOGFILE)
 <Apr18-2019> <13:52:09>  ADF development version  RunTime: Apr18-2019 13:52:09  Nodes: 1  Procs: 1
 <Apr18-2019> <13:52:09>  Bromine (TZ2P)
 <Apr18-2019> <13:52:09>  RunType   : CREATE
 <Apr18-2019> <13:52:09>  Net Charge: 0 (Nuclei minus Electrons)
 <Apr18-2019> <13:52:09>  Symmetry  : ATOM
  Coordinates
    Atom         X           Y           Z   (Angstrom)
    1.Br        0.000000    0.000000    0.000000
 <Apr18-2019> <13:52:09>  >>>> CORORT
 <Apr18-2019> <13:52:09>  >>>> CLSMAT
 <Apr18-2019> <13:52:09>  >>>> ORTHON
 <Apr18-2019> <13:52:09>  >>>> GENPT
 <Apr18-2019> <13:52:09>  Block Length= 106
 <Apr18-2019> <13:52:09>  >>>> PTBAS
 <Apr18-2019> <13:52:09>  >>>> CYCLE
 <Apr18-2019> <13:52:09>              |Error|         MaxErr       Wt(A-DIIS)
 <Apr18-2019> <13:52:09>      1      0.00000000      0.00000000
 <Apr18-2019> <13:52:09>      2    133.90378859     33.00263884    100.0
 <Apr18-2019> <13:52:09>      3     49.62914370     17.59518881    100.0
 <Apr18-2019> <13:52:09>      4      9.09209484      2.12485505    100.0
 <Apr18-2019> <13:52:09>      5     11.70158419      3.98842598    100.0
 <Apr18-2019> <13:52:09>      6      1.82354005      0.45661929    100.0
 <Apr18-2019> <13:52:09>      7      1.60769584      0.41584263    100.0
 <Apr18-2019> <13:52:09>      8      0.06575401      0.01946729     18.7
 <Apr18-2019> <13:52:09>      9      0.02601319      0.00809116      7.2
 <Apr18-2019> <13:52:09>     10      0.00046367      0.00010037      0.0
 <Apr18-2019> <13:52:09>     11      0.00001086      0.00000278      0.0
 <Apr18-2019> <13:52:09>     12      0.00000025      0.00000006      0.0
 <Apr18-2019> <13:52:09>     13      0.00000001      0.00000000      0.0
 <Apr18-2019> <13:52:09>  SCF converged
 <Apr18-2019> <13:52:09>     14      0.00000000      0.00000000      0.0
 <Apr18-2019> <13:52:09>  >>>> POPAN
 <Apr18-2019> <13:52:09>  >>>> DEBYE
 <Apr18-2019> <13:52:09>  NORMAL TERMINATION
 <Apr18-2019> <13:52:09>  END

Create F   file=TZ2P-F
XC
  GGA blyp
  DISPERSION Grimme3 BJDAMP
End
End Input

 *******************************************************************************
 *                                                                             *
 *  -------------------------------------                                      *
 *   Amsterdam Density Functional  (ADF)         development version           *
 *  -------------------------------------                                      *
 *                                               r61132 2017-09-08             *
 *                                                                             *
 *                                                                             *
 *                              =================                              *
 *                              |               |                              *
 *                              |     A D F     |                              *
 *                              |               |                              *
 *                              =================                              *
 *                                                                             *
 *                                                                             *
 *   Online information and documentation:  https://www.scm.com/support/       *
 *   E-mail:  support@scm.com   info@scm.com                                   *
 *                                                                             *
 *   Scientific publications using ADF results must be properly referenced     *
 *   See the User Manuals (or the web site) for recommended citations          *
 *   The terms and conditions of the End User License Agreement apply to       *
 *   the use of ADF, https://www.scm.com/license-terms/                        *
 *                                                                             *
 **********************  x86_64_linux_intel / intelmpi  ************************
 
 Licensed to: VU/FEW (+ SARA) / ALGEMEEN / Amsterdam / THE NETHERLANDS
 SCM User ID: u7668
  
 ADF development version  RunTime: Apr18-2019 13:52:10  Nodes: 1  Procs: 1

 Temporary files are created in /local/datastore0/tcst25/186688/kid_0.UzVq9W

 Fluorine (TZ2P)



 ===========================
 A T T A C H E D   F I L E S
 ===========================
  
 CREATE - Data File:    TZ2P-F
                        Fluorine (TZ2P)



 ===============================
 M O D E L   P A R A M E T E R S
 ===============================
  
 DENSITY FUNCTIONAL POTENTIAL (scf)
    LDA:                               Exchange only                           == Not Default ==
    Gradient Corrections:              Becke88 LYP                             == Not Default ==

 SPIN  (restricted / unrestr.)
    Molecule:                          Restricted                               

 OTHER ASPECTS
    Relativistic Corrections:          ---                                      

    Nuclear Charge Density Model:      Point Charge Nuclei                      
    Core Treatment:                    Frozen Orbital(s)                        

    Hyperfine or Zeeman Interaction:   ---                                      

 Settings for Grimme 3 dispersion correction

      damping                        BJ
      s6                          1.000
      a1                          0.430
      s8                          2.700
      a2                          4.236

 Other (technical) parameters

      alpha                      14.000
      version                         4
 



 =====================================
 S Y M M E T R Y ,   E L E C T R O N S
 =====================================
  
 Symmetry: ATOM

 Irreducible Representations, including subspecies
 -------------------------------------------------
 S
 P:x  P:y  P:z
 D:z2  D:x2-y2  D:xy  D:xz  D:yz
 F:z3  F:z  F:xyz  F:z2x  F:z2y  F:x  F:y


 Configuration of Valence Electrons
 ==================================

          Occupation Numbers
          -------------------------------------------------
 S        2*2
 P        5
 D        0
 F        0
          -------------------------------------------------

 Total:   9

 Net Charge: 0 (Nuclei minus Electrons)

 Preset values for MO occupations will be applied through SCF cycle no. 1000000
 Thereafter, the program will assign electrons to MOs that are spatially
 similar to the occupied MOs in a "reference" cycle ("KeepOrbitals").
 The reference cycle is always the PREVIOUS cycle: it will evolve with
 the SCF procedure.



 ================================
 (Slater-type)  F U N C T I O N S  ***  (Basis and Fit)  ***
 ================================
  

 Atom Type    1  (F)
 ==============

 Valence Basis Sets:  10
 -----------------------
   1 S   10.880000
   1 S    7.700000
   2 S    3.240000
   2 S    1.940000
   2 S    0.740000
   2 P    4.540000
   2 P    2.300000
   2 P    1.240000
   3 D    2.000000
   4 F    3.000000


 BAS: List of all Elementary Cartesian Basis Functions
 =====================================================

 The numbering in the list below (to the right of the function characteristics) is referred
 to in print-outs of MO eigenvectors and Mulliken populations in the BAS representation
 (as contrasted to the SFO representation).

 Notes:
 1. The functions are characterized by a polynomial prefactor (powers of x,y,z and r) and
    an exponential decay factor alpha.
 2. Since the basis sets are specific for an atom TYPE, the individual functions occur on
    all atoms of that type.
 3. The word 'Core' in the left margin signals that it is a Core Function (CF) : not a
    degree of freedom in the valence set, but only used to ensure orthogonalization of
    the other valence basis functions on the frozen Core Orbitals.


 (power of) X  Y  Z  R     Alpha  on Atom
            ==========     =====     ==========

 F                                    1
                                  ---------------------------------------------------------------------------
            0  0  0  0    10.880      1
            0  0  0  0     7.700      2
            0  0  0  1     3.240      3
            0  0  0  1     1.940      4
            0  0  0  1     0.740      5
            1  0  0  0     4.540      6
            0  1  0  0     4.540      7
            0  0  1  0     4.540      8
            1  0  0  0     2.300      9
            0  1  0  0     2.300     10
            0  0  1  0     2.300     11
            1  0  0  0     1.240     12
            0  1  0  0     1.240     13
            0  0  1  0     1.240     14
            2  0  0  0     2.000     15
            1  1  0  0     2.000     16
            1  0  1  0     2.000     17
            0  2  0  0     2.000     18
            0  1  1  0     2.000     19
            0  0  2  0     2.000     20
            3  0  0  0     3.000     21
            2  1  0  0     3.000     22
            2  0  1  0     3.000     23
            1  2  0  0     3.000     24
            1  1  1  0     3.000     25
            1  0  2  0     3.000     26
            0  3  0  0     3.000     27
            0  2  1  0     3.000     28
            0  1  2  0     3.000     29
            0  0  3  0     3.000     30

 Total number of charge fitting functions (nprimf)        85
 Total number of Cartesian basis functions (naos)         30
 Total number of Cartesian core functions  (ncos)          0



 BAS: List of all Elementary Cartesian Basis Functions
 =====================================================

 The numbering in the list below (to the right of the function characteristics) is referred
 to in print-outs of MO eigenvectors and Mulliken populations in the BAS representation
 (as contrasted to the SFO representation).

 Notes:
 1. The functions are characterized by a polynomial prefactor (powers of x,y,z and r) and
    an exponential decay factor alpha.
 2. Since the basis sets are specific for an atom TYPE, the individual functions occur on
    all atoms of that type.
 3. The word 'Core' in the left margin signals that it is a Core Function (CF) : not a
    degree of freedom in the valence set, but only used to ensure orthogonalization of
    the other valence basis functions on the frozen Core Orbitals.


 (power of) X  Y  Z  R     Alpha  on Atom
            ==========     =====     ==========

 F                                    1
                                  ---------------------------------------------------------------------------
            0  0  0  0    10.880      1
            0  0  0  0     7.700      2
            0  0  0  1     3.240      3
            0  0  0  1     1.940      4
            0  0  0  1     0.740      5
            1  0  0  0     4.540      6
            0  1  0  0     4.540      7
            0  0  1  0     4.540      8
            1  0  0  0     2.300      9
            0  1  0  0     2.300     10
            0  0  1  0     2.300     11
            1  0  0  0     1.240     12
            0  1  0  0     1.240     13
            0  0  1  0     1.240     14
            2  0  0  0     2.000     15
            1  1  0  0     2.000     16
            1  0  1  0     2.000     17
            0  2  0  0     2.000     18
            0  1  1  0     2.000     19
            0  0  2  0     2.000     20
            3  0  0  0     3.000     21
            2  1  0  0     3.000     22
            2  0  1  0     3.000     23
            1  2  0  0     3.000     24
            1  1  1  0     3.000     25
            1  0  2  0     3.000     26
            0  3  0  0     3.000     27
            0  2  1  0     3.000     28
            0  1  2  0     3.000     29
            0  0  3  0     3.000     30
1
 ***************************************************************************************************



                                              ***********************
                                              *  T E C H N I C A L  *
                                              ***********************
  



 =============================================================
 P A R A L L E L I Z A T I O N  and  V E C T O R I Z A T I O N
 =============================================================
  
 Nr of parallel processes:                                1
 Maximum vector length in NumInt loops:                 128

 IO buffersize (Mb):                                     64.000000



 =====================
 S C F   U P D A T E S
 =====================
  
 Max. nr. of cycles:                               300
 Convergence criterion:                              0.0000000100
   secondary criterion:                              0.0000000100

 Mix parameter (when DIIS does not apply):           0.2000000000
 Special mix parameter for the first cycle:          1.0000000000
 Mixed ADIIS+DIIS will be used
    Max number of expansion vectors:                10
    Pure ADIIS when Max([F,P]) is above              0.1000000000
    Pure DIIS when Max([F,P]) is below               0.0010000000
 Automatic ElectronSmearing (in case of problematic SCF convergence) disabled



 =================
 P R E C I S I O N  ***  (General: NumInt, NeglectFunctionTails, ...)  ***
 =================
  

 NumInt:           Target precision:                12.0000000000
 -------           Initial precision:               10.0000000000
                   Min. precision (optimization):   10.0000000000

 Neglect Functions:          Basis functions:        0.1000000000E-13
 ------------------          Fit functions:          0.1000000000E-13



 ===========================
 L I N E A R   S C A L I N G
 ===========================
  

 Cut-off radii density fit:                        0.1000000000E-97
 Overlap cut-off criterion AO matrix elements:     0.1000000000E-97
 Cut-offs for Coulomb potential and fitted density:0.1000000000E-97
 Cut-off criterion for Coulomb multipole terms:    0.1000000000E-97
 Progressive Convergence parameter:                 0.000000000    
1
 ***************************************************************************************************



                                            ***************************
                                            *  C O M P U T A T I O N  *
                                            ***************************
  

 Number of elements of the density matrix on this node (used, total):       465       465



 ===========================================
 Numerical Integration : Fuzzy Cells (Becke)
 ===========================================
  
 Becke grid quality: VERYGOOD       
  
 Lebedev angular grid order:             min:  13 max:  41
 Nr. of radial points:                   min:  76 max:  76

 Total nr. of points:         76
 Nr. of blocks:                1
 Block length:                76
 Nr. of dummy points:          0


 Test of Precision of the Numerical Integration Grid
 ===================================================

 Integral of the Total Core Density:                   0.00000000000000



 ========================
 Density Fitting (zlmFit)
 ========================
  
 ZlmFit Fit Quality: VERYGOOD       
  
 Max L-expansion:                        min:   0 max:   0
 Nr. of radial interpolation points:     min: 170 max: 170



 =====
 S C F  ***  ScaSCF  ***
 =====
  

 CYCLE    1
 SCF Error: norm([F,P])=      0.000000000000, max([F,P])=      0.000000000000
 orbitals (Q,E):
 ---------------
 S :1...5            ( 2.00   -40.4878)  ( 2.00   -10.0106)  ( 0.00    -4.4145)  ( 0.00    -2.1243)
                     ( 0.00    34.3132)
 P :1...3            ( 5.00   -10.1248)  ( 0.00    -4.4262)  ( 0.00    -2.4124)
 D :1...1            ( 0.00    -4.0000)
 F :1...1            ( 0.00    -2.2500)

 CYCLE    2
  SDIIS (wt  0.000):  1.0000 -0.0000
 A-DIIS (wt  1.000):  0.0000  1.0000
  DIIS coefficients:  0.0000  1.0000
 SCF Error: norm([F,P])=     11.373794780581, max([F,P])=      4.777759414031
 orbitals (Q,E):
 ---------------
 S :1...3            ( 2.00   -18.8794)  ( 2.00    -0.0304)  ( 0.00     0.3093)
 P :1...2            ( 5.00     0.3553)  ( 0.00     1.5643)
 D :1...1            ( 0.00     1.6494)
 F :1...1            ( 0.00     4.0453)

 CYCLE    3
  SDIIS (wt  0.000):  0.2302  0.7698
 A-DIIS (wt  1.000):  0.4427  0.5573
  DIIS coefficients:  0.4427  0.5573
 SCF Error: norm([F,P])=      5.107371177545, max([F,P])=      3.125425661947
 orbitals (Q,E):
 ---------------
 S :1...3            ( 2.00   -24.7932)  ( 2.00    -1.7827)  ( 0.00    -0.0636)
 P :1...2            ( 5.00    -1.0793)  ( 0.00     0.2021)
 D :1...1            ( 0.00     0.6865)
 F :1...1            ( 0.00     2.8888)

 CYCLE    4
  SDIIS (wt  0.000): -0.0128  0.1085  0.9043
 A-DIIS (wt  1.000):  0.0000  0.0000  1.0000
  DIIS coefficients:  0.0000  0.0000  1.0000
 SCF Error: norm([F,P])=      0.965884247460, max([F,P])=      0.451655557762
 orbitals (Q,E):
 ---------------
 S :1...3            ( 2.00   -23.6749)  ( 2.00    -0.7847)  ( 0.00     0.0644)
 P :1...2            ( 5.00    -0.1299)  ( 0.00     0.5762)
 D :1...1            ( 0.00     1.2513)
 F :1...1            ( 0.00     3.5825)

 CYCLE    5
  SDIIS (wt  0.000):  0.0122 -0.0391  0.5749  0.4520
 A-DIIS (wt  1.000):  0.0000  0.0000  0.6712  0.3288
  DIIS coefficients:  0.0000  0.0000  0.6712  0.3288
 SCF Error: norm([F,P])=      1.674963411166, max([F,P])=      0.825318021724
 orbitals (Q,E):
 ---------------
 S :1...3            ( 2.00   -24.3044)  ( 2.00    -1.0529)  ( 0.00     0.0313)
 P :1...2            ( 5.00    -0.3714)  ( 0.00     0.4442)
 D :1...1            ( 0.00     1.1317)
 F :1...1            ( 0.00     3.4351)

 CYCLE    6
  SDIIS (wt  0.024):  0.0029  0.0040  0.0564 -0.0876  1.0243
 A-DIIS (wt  0.976):  0.0000  0.0000  0.0000  0.0000  1.0000
  DIIS coefficients:  0.0001  0.0001  0.0013 -0.0021  1.0006
 SCF Error: norm([F,P])=      0.199607562059, max([F,P])=      0.097634841195
 orbitals (Q,E):
 ---------------
 S :1...3            ( 2.00   -24.5137)  ( 2.00    -1.1478)  ( 0.00     0.0173)
 P :1...2            ( 5.00    -0.4644)  ( 0.00     0.4071)
 D :1...1            ( 0.00     1.0935)
 F :1...1            ( 0.00     3.3875)

 CYCLE    7
  SDIIS (wt  0.000): -0.0005  0.0010  0.0222 -0.0066  0.6116  0.3724
 A-DIIS (wt  1.000):  0.0000  0.0000  0.0000  0.0000  0.6122  0.3878
  DIIS coefficients:  0.0000  0.0000  0.0000  0.0000  0.6122  0.3878
 SCF Error: norm([F,P])=      0.266507541610, max([F,P])=      0.126514736478
 orbitals (Q,E):
 ---------------
 S :1...3            ( 2.00   -24.3946)  ( 2.00    -1.0985)  ( 0.00     0.0225)
 P :1...2            ( 5.00    -0.4159)  ( 0.00     0.4255)
 D :1...1            ( 0.00     1.1136)
 F :1...1            ( 0.00     3.4123)

 CYCLE    8
  SDIIS (wt  0.859):  0.0000 -0.0000 -0.0010  0.0023  0.0294 -0.0834  1.0527
 A-DIIS (wt  0.141):  0.0000  0.0000  0.0000  0.0000  0.0000  0.0000  1.0000
  DIIS coefficients:  0.0000 -0.0000 -0.0009  0.0020  0.0252 -0.0716  1.0453
 SCF Error: norm([F,P])=      0.030968782312, max([F,P])=      0.014981503364
 orbitals (Q,E):
 ---------------
 S :1...3            ( 2.00   -24.3770)  ( 2.00    -1.0904)  ( 0.00     0.0233)
 P :1...2            ( 5.00    -0.4080)  ( 0.00     0.4287)
 D :1...1            ( 0.00     1.1172)
 F :1...1            ( 0.00     3.4167)

 CYCLE    9
  SDIIS (wt  0.981): -0.0000  0.0000 -0.0001 -0.0004  0.0017  0.0154  0.0457  0.9377
 A-DIIS (wt  0.019):  0.0000  0.0000  0.0000  0.0000  0.0000  0.0000  0.0000  1.0000
  DIIS coefficients: -0.0000  0.0000 -0.0001 -0.0004  0.0017  0.0151  0.0448  0.9389
 SCF Error: norm([F,P])=      0.006059807167, max([F,P])=      0.002904332574
 orbitals (Q,E):
 ---------------
 S :1...3            ( 2.00   -24.3801)  ( 2.00    -1.0917)  ( 0.00     0.0232)
 P :1...2            ( 5.00    -0.4093)  ( 0.00     0.4282)
 D :1...1            ( 0.00     1.1167)
 F :1...1            ( 0.00     3.4160)

 CYCLE   10
  SDIIS (wt  1.000): -0.0000  0.0000  0.0000 -0.0000 -0.0005 -0.0009  1.0014
  DIIS coefficients: -0.0000  0.0000  0.0000 -0.0000 -0.0005 -0.0009  1.0014
 SCF Error: norm([F,P])=      0.000165576581, max([F,P])=      0.000079185113
 orbitals (Q,E):
 ---------------
 S :1...3            ( 2.00   -24.3800)  ( 2.00    -1.0917)  ( 0.00     0.0232)
 P :1...2            ( 5.00    -0.4092)  ( 0.00     0.4282)
 D :1...1            ( 0.00     1.1167)
 F :1...1            ( 0.00     3.4160)

 CYCLE   11
  SDIIS (wt  1.000): -0.0000  0.0000 -0.0000 -0.0003 -0.0117  1.0121
  DIIS coefficients: -0.0000  0.0000 -0.0000 -0.0003 -0.0117  1.0121
 SCF Error: norm([F,P])=      0.000000045102, max([F,P])=      0.000000021900
 orbitals (Q,E):
 ---------------
 S :1...3            ( 2.00   -24.3800)  ( 2.00    -1.0917)  ( 0.00     0.0232)
 P :1...2            ( 5.00    -0.4092)  ( 0.00     0.4282)
 D :1...1            ( 0.00     1.1167)
 F :1...1            ( 0.00     3.4160)

 CYCLE   12
  SDIIS (wt  1.000): -0.0000  0.0075  0.9925
  DIIS coefficients: -0.0000  0.0075  0.9925
 SCF Error: norm([F,P])=      0.000000000761, max([F,P])=      0.000000000372
 orbitals (Q,E):
 ---------------
 S :1...3            ( 2.00   -24.3800)  ( 2.00    -1.0917)  ( 0.00     0.0232)
 P :1...2            ( 5.00    -0.4092)  ( 0.00     0.4282)
 D :1...1            ( 0.00     1.1167)
 F :1...1            ( 0.00     3.4160)

 SCF CONVERGED

 CYCLE   13
1
 ***************************************************************************************************



                                                *******************
                                                *  R E S U L T S  *
                                                *******************
  
 *** Setting up for NEW gradients in Focky
 *** Using FIT density in Focky

 Orbital Energies, per Irrep and Spin:
 ======================================
                        Occup              E (au)              E (eV)       Diff (eV) with prev. cycle
                        -----      --------------------        ------       --------------------------
 S
               1        2.000     -0.24380013662793E+02      -663.414              -5.70E-10
               2        2.000     -0.10916696572490E+01       -29.706              -4.11E-10
               3        0.000      0.23171521938657E-01         0.631
               4        0.000      0.15801599788495E+01        42.998
               5        0.000      0.48367571090263E+02      1316.149
 P
               1        5.000     -0.40924594303694E+00       -11.136              -3.94E-10
               2        0.000      0.42818717158446E+00        11.652
               3        0.000      0.45634501130520E+01       124.178
 D
               1        0.000      0.11166683619357E+01        30.386
 F
               1        0.000      0.34160293329535E+01        92.955


 Partially Occupied:
               1 P                -0.40924594303694E+00
  
 HOMO :        2 S                -0.10916696572490E+01
 LUMO :        3 S                 0.23171521938657E-01
  


 Orbital Energies, all Irreps
 ========================================

 Irrep        no.  (spin)   Occup              E (au)                E (eV)
 ---------------------------------------------------------------------------
 S             1             2.00       -0.24380013662793E+02      -663.4139
 S             2             2.00       -0.10916696572490E+01       -29.7058
 P             1             5.00       -0.40924594303694E+00       -11.1361
 S             3             0.00        0.23171521938657E-01         0.6305
 P             2             0.00        0.42818717158446E+00        11.6516
 D             1             0.00        0.11166683619357E+01        30.3861
 S             4             0.00        0.15801599788495E+01        42.9983
 F             1             0.00        0.34160293329535E+01        92.9549
 P             3             0.00        0.45634501130520E+01       124.1778
 S             5             0.00        0.48367571090263E+02      1316.1486


 All Electron Calculation, thus no Orbital Energies of the Core Orbitals are calculated



 =======================================
 M U L L I K E N   P O P U L A T I O N S
 =======================================
  
 The survey below gives for each atom:
 a) the total charge (Z minus electrons)
 b) the net spin polarization (nr of electrons spin-A minus spin-B)
 c) for each spin the atomic electron valence density (integrated) per L-value.

 Atom              Charge    Spin density          S         P         D         F
 ----              ------    ------------       ------    ------    ------    ------
 1 F              -0.0000                       4.0000    5.0000    0.0000    0.0000

 Populations of individual BAS functions
 ----------------------------------------
 1 F            0.5735  1.4020  1.1462  0.8789 -0.0006  0.3652  0.3652  0.3652  0.9146  0.9146
                0.9146  0.3869  0.3869  0.3869  0.0000  0.0000  0.0000  0.0000  0.0000  0.0000
                0.0000  0.0000  0.0000  0.0000  0.0000  0.0000  0.0000  0.0000  0.0000  0.0000

 Gross Charges per Atom (Z minus electrons)
 ==========================================
            -0.0000
 Net Total: -0.00000000



 =======================================================================
 Electrostatic potential at the Nuclei due to electrons and other nuclei
 =======================================================================
  
         Atom                  Potential
         ----                  ---------
     1)   F                  26.51041126
 
 
 ========================
 No memory problems found
 ========================
 
 Maximum number of active allocate calls:         447
 
 *******************************************************************************

                             A D F   E X I T
 NORMAL TERMINATION



 =================
 Timing Statistics
 =================
  
 Total Used :                     CPU=        0.50      System=        0.03     Elapsed=        0.53

 Calls  Section                     ( Mean, Percentage )
 ---------------------------------------------------------------------------------------------------
     3  ><      ................      0.00    0.20             0.00    0.00             0.00    0.15
     1  INIT    ................      0.01    1.79             0.02   59.26             0.03    4.93
     1  GEOMET  ................      0.01    1.19             0.00    7.41             0.01    1.59
     1  INPUTA  ................      0.00    0.40             0.00    0.00             0.00    0.29
     1  MAINSY  ................      0.00    0.80             0.00    7.40             0.01    1.12
     1  SYMFIT  ................      0.00    0.20             0.00    0.00             0.00    0.15
     1  CORORT  ................      0.00    0.00             0.00    0.00             0.00    0.05
     1  SYMORB  ................      0.00    0.00             0.00    0.00             0.00    0.13
     1  CLSMAT  ................      0.01    1.19             0.00    0.00             0.01    0.98
     1  ORTHON  ................      0.00    0.20             0.00    0.00             0.00    0.28
     1  GENPT   ................      0.01    2.78             0.00    3.70             0.01    2.77
     1  PTBAS   ................      0.00    0.60             0.00    0.00             0.00    0.65
    13  FOCKY   ................      0.03   76.14             0.00    7.41             0.03   72.30
    13  FOCKTR  ................      0.00    1.99             0.00    0.00             0.00    2.02
    13  SDIIS   ................      0.00    3.98             0.00    3.70             0.00    3.92
     1  COREPS  ................      0.02    3.98             0.00    7.40             0.02    4.13
     1  POPAN   ................      0.00    0.99             0.00    0.00             0.01    0.98
     1  DEBYE   ................      0.00    0.20             0.00    0.00             0.00    0.11
     1  EXIT PROCEDURE .........      0.02    3.38             0.00    3.70             0.02    3.45


 Currently Open Files (EXIT00)
 ====================

 Unit    Access Format  Status   Type       Ident (file)
 -------------------------------------------------------
   3      SEQ    FORM   TRANSP  NORMAL      LOGFILE
                                          ( logfile )


 Buffered I/O statistics
 =======================
 Memory available:                     67108864
 Number of records fitting in memory:     16131
 Input :   0.1% of                        27818  *4k bytes
 Output:  13.5% of                         1383  *4k bytes
 Records from serial files evicted:           0
                    others evicted:           0
 Hash table lookups:      71870 with          0 conflicts (  0.00%)

 ***************************************************************************************************
 (LOGFILE)
 <Apr18-2019> <13:52:09>  ADF development version  RunTime: Apr18-2019 13:52:09  Nodes: 1  Procs: 1
 <Apr18-2019> <13:52:09>  Bromine (TZ2P)
 <Apr18-2019> <13:52:09>  RunType   : CREATE
 <Apr18-2019> <13:52:09>  Net Charge: 0 (Nuclei minus Electrons)
 <Apr18-2019> <13:52:09>  Symmetry  : ATOM
  Coordinates
    Atom         X           Y           Z   (Angstrom)
    1.Br        0.000000    0.000000    0.000000
 <Apr18-2019> <13:52:09>  >>>> CORORT
 <Apr18-2019> <13:52:09>  >>>> CLSMAT
 <Apr18-2019> <13:52:09>  >>>> ORTHON
 <Apr18-2019> <13:52:09>  >>>> GENPT
 <Apr18-2019> <13:52:09>  Block Length= 106
 <Apr18-2019> <13:52:09>  >>>> PTBAS
 <Apr18-2019> <13:52:09>  >>>> CYCLE
 <Apr18-2019> <13:52:09>              |Error|         MaxErr       Wt(A-DIIS)
 <Apr18-2019> <13:52:09>      1      0.00000000      0.00000000
 <Apr18-2019> <13:52:09>      2    133.90378859     33.00263884    100.0
 <Apr18-2019> <13:52:09>      3     49.62914370     17.59518881    100.0
 <Apr18-2019> <13:52:09>      4      9.09209484      2.12485505    100.0
 <Apr18-2019> <13:52:09>      5     11.70158419      3.98842598    100.0
 <Apr18-2019> <13:52:09>      6      1.82354005      0.45661929    100.0
 <Apr18-2019> <13:52:09>      7      1.60769584      0.41584263    100.0
 <Apr18-2019> <13:52:09>      8      0.06575401      0.01946729     18.7
 <Apr18-2019> <13:52:09>      9      0.02601319      0.00809116      7.2
 <Apr18-2019> <13:52:09>     10      0.00046367      0.00010037      0.0
 <Apr18-2019> <13:52:09>     11      0.00001086      0.00000278      0.0
 <Apr18-2019> <13:52:09>     12      0.00000025      0.00000006      0.0
 <Apr18-2019> <13:52:09>     13      0.00000001      0.00000000      0.0
 <Apr18-2019> <13:52:09>  SCF converged
 <Apr18-2019> <13:52:09>     14      0.00000000      0.00000000      0.0
 <Apr18-2019> <13:52:09>  >>>> POPAN
 <Apr18-2019> <13:52:09>  >>>> DEBYE
 <Apr18-2019> <13:52:09>  NORMAL TERMINATION
 <Apr18-2019> <13:52:09>  END
 <Apr18-2019> <13:52:10>  ADF development version  RunTime: Apr18-2019 13:52:10  Nodes: 1  Procs: 1
 <Apr18-2019> <13:52:10>  Fluorine (TZ2P)
 <Apr18-2019> <13:52:10>  RunType   : CREATE
 <Apr18-2019> <13:52:10>  Net Charge: 0 (Nuclei minus Electrons)
 <Apr18-2019> <13:52:10>  Symmetry  : ATOM
  Coordinates
    Atom         X           Y           Z   (Angstrom)
    1.F         0.000000    0.000000    0.000000
 <Apr18-2019> <13:52:10>  >>>> CORORT
 <Apr18-2019> <13:52:10>  >>>> CLSMAT
 <Apr18-2019> <13:52:10>  >>>> ORTHON
 <Apr18-2019> <13:52:10>  >>>> GENPT
 <Apr18-2019> <13:52:10>  Block Length=  76
 <Apr18-2019> <13:52:10>  >>>> PTBAS
 <Apr18-2019> <13:52:10>  >>>> CYCLE
 <Apr18-2019> <13:52:10>              |Error|         MaxErr       Wt(A-DIIS)
 <Apr18-2019> <13:52:10>      1      0.00000000      0.00000000
 <Apr18-2019> <13:52:10>      2     11.37379478      4.77775941    100.0
 <Apr18-2019> <13:52:10>      3      5.10737118      3.12542566    100.0
 <Apr18-2019> <13:52:10>      4      0.96588425      0.45165556    100.0
 <Apr18-2019> <13:52:10>      5      1.67496341      0.82531802    100.0
 <Apr18-2019> <13:52:10>      6      0.19960756      0.09763484     97.6
 <Apr18-2019> <13:52:10>      7      0.26650754      0.12651474    100.0
 <Apr18-2019> <13:52:10>      8      0.03096878      0.01498150     14.1
 <Apr18-2019> <13:52:10>      9      0.00605981      0.00290433      1.9
 <Apr18-2019> <13:52:10>     10      0.00016558      0.00007919      0.0
 <Apr18-2019> <13:52:10>     11      0.00000005      0.00000002      0.0
 <Apr18-2019> <13:52:10>     12      0.00000000      0.00000000      0.0
 <Apr18-2019> <13:52:10>  SCF converged
 <Apr18-2019> <13:52:10>     13      0.00000000      0.00000000      0.0
 <Apr18-2019> <13:52:10>  >>>> POPAN
 <Apr18-2019> <13:52:10>  >>>> DEBYE
 <Apr18-2019> <13:52:10>  NORMAL TERMINATION
 <Apr18-2019> <13:52:10>  END


 Parallel Execution: Process Information
 ==============================================================================
 Rank   Node Name                              NodeID   MyNodeRank  NodeMaster
    0   BAZIS-cn076                               0          0          0
    1   BAZIS-cn076                               0          1         -1
    2   BAZIS-cn076                               0          2         -1
    3   BAZIS-cn076                               0          3         -1
    4   BAZIS-cn076                               0          4         -1
    5   BAZIS-cn076                               0          5         -1
    6   BAZIS-cn076                               0          6         -1
    7   BAZIS-cn076                               0          7         -1
    8   BAZIS-cn076                               0          8         -1
    9   BAZIS-cn076                               0          9         -1
   10   BAZIS-cn076                               0         10         -1
   11   BAZIS-cn076                               0         11         -1
 ==============================================================================


May use up to 30736MB of RAM as shared memory on node 0


XC
  GGA blyp
  DISPERSION Grimme3 BJDAMP
END

ANALYTICALFREQ
END

SCF
  iterations 250
END

Geometry
  Iterations 300
  Optim Cartesian
  Convergence E=1e-4 grad=1e-4
End

SYMMETRY nosym
CHARGE -1

ZLMFIT
  Quality normal
END

BECKEGRID
  Quality good
End

ATOMS
Br     -4.94867129       3.04098476       0.02199102
Br     -3.76372578       1.14672480       0.05741844
F     -6.06298381       5.11120939      -0.21661069
END

Fragments
Br t21.Br
F t21.F
End
end input

 *******************************************************************************
 *                                                                             *
 *  -------------------------------------                                      *
 *   Amsterdam Density Functional  (ADF)         development version           *
 *  -------------------------------------                                      *
 *                                               r61132 2017-09-08             *
 *                                                                             *
 *                                                                             *
 *                              =================                              *
 *                              |               |                              *
 *                              |     A D F     |                              *
 *                              |               |                              *
 *                              =================                              *
 *                                                                             *
 *                                                                             *
 *   Online information and documentation:  https://www.scm.com/support/       *
 *   E-mail:  support@scm.com   info@scm.com                                   *
 *                                                                             *
 *   Scientific publications using ADF results must be properly referenced     *
 *   See the User Manuals (or the web site) for recommended citations          *
 *   The terms and conditions of the End User License Agreement apply to       *
 *   the use of ADF, https://www.scm.com/license-terms/                        *
 *                                                                             *
 **********************  x86_64_linux_intel / intelmpi  ************************
 
 Licensed to: VU/FEW (+ SARA) / ALGEMEEN / Amsterdam / THE NETHERLANDS
 SCM User ID: u7668
  
 ADF development version  RunTime: Apr18-2019 13:52:10  Nodes: 1  Procs: 12

 Temporary files are created in /local/datastore0/tcst25/186688/kid_0.2AYK5i


Communication costs MPI_COMM_WORLD:      2.554 usec per message,   0.0134 usec per 8-byte item
Communication costs for intra-node:      2.555 usec per message,   0.0133 usec per 8-byte item

 *** (NO TITLE) ***



 ===========================
 A T T A C H E D   F I L E S
 ===========================
  



 ===============================
 M O D E L   P A R A M E T E R S
 ===============================
  
 DENSITY FUNCTIONAL POTENTIAL (scf)
    LDA:                               Exchange only                           == Not Default ==
    Gradient Corrections:              Becke88 LYP                             == Not Default ==

 SPIN  (restricted / unrestr.)
    Molecule:                          Restricted                               
    Fragments:                         Restricted                               

 OTHER ASPECTS
    Relativistic Corrections:          ---                                      

    Nuclear Charge Density Model:      Point Charge Nuclei                      
    Core Treatment:                    Frozen Orbital(s)                        

    Hyperfine or Zeeman Interaction:   ---                                      

 Settings for Grimme 3 dispersion correction

      damping                        BJ
      s6                          1.000
      a1                          0.430
      s8                          2.700
      a2                          4.236

 Other (technical) parameters

      alpha                      14.000
      version                         4
 


 Fragment File(s)
 ----------------
 Br:
         file : t21.Br
         jobid: ADF development version  RunTime: Apr18-2019 13:52:09  Nodes: 1  Procs: 1
         title: Bromine (TZ2P)
 F:
         file : t21.F
         jobid: ADF development version  RunTime: Apr18-2019 13:52:10  Nodes: 1  Procs: 1
         title: Fluorine (TZ2P)



                                   *********************************************
                                   *  R U N   T Y P E : GEOMETRY OPTIMIZATION  *
                                   *********************************************
  



 ===============
 G E O M E T R Y  ***  Planar Molecule  ***
 ===============
  

 ATOMS
 =====                            X Y Z                    CHARGE
                                (Angstrom)             Nucl     +Core       At.Mass
                       --------------------------    ----------------       -------
    1  Br             -4.9487    3.0410    0.0220     35.00     35.00       78.9183
    2  Br             -3.7637    1.1467    0.0574     35.00     35.00       78.9183
    3  F              -6.0630    5.1112   -0.2166      9.00      9.00       18.9984


 FRAGMENTS
 =========                                     Atoms in this Fragment     Cart. coord.s (Angstrom)
                                               -------------------------------------------------------
    1  Br                                                1  Br          -4.9487    3.0410    0.0220
    2  Br                                                2  Br          -3.7637    1.1467    0.0574
    3  F                                                 3  F           -6.0630    5.1112   -0.2166


 Interatomic Distance Matrix (Angstrom)
 --------------------------------------

   1)     0.000
   2)     2.235   0.000
   3)     2.363   4.591   0.000

 Min. Distance =    2.2346
 Max. Distance =    4.5912



 =====================================
 S Y M M E T R Y ,   E L E C T R O N S
 =====================================
  
 Symmetry: NOSYM

 Irreducible Representations, including subspecies
 -------------------------------------------------
 A


 Configuration of Valence Electrons
 ==================================
 ( determined in the SCF procedure )

 Total:   80

 Net Charge: -1 (Nuclei minus Electrons)

 Aufbau principle for MO occupations will be applied through SCF cycle no.     125
 Thereafter, the program will assign electrons to MOs that are spatially
 similar to the occupied MOs in a "reference" cycle ("KeepOrbitals").
 The reference cycle is always the PREVIOUS cycle: it will evolve with
 the SCF procedure.
1
 ***************************************************************************************************



                                      ****************************************
                                      *  B U I L D : (Fragments, Functions)  *
                                      ****************************************
  



 =======
 S F O s  ***  (Symmetrized Fragment Orbitals)  ***
 =======
  
 SFOs are linear combinations of (valence) Fragment Orbitals (FOs), such that the SFOs transform as the
 irreducible representations of the (molecular) symmetry group. Each SFO is therefore characterized by
 an irrep of the molecule and by a few (or only one) generating FOs.
 The SFOs constitute a symmetry-adapted basis for the Fock matrix. The MO eigenvector coefficients in
 this basis provide a direct interpretation of the MOs in terms of Frontier Orbital Theory.

 The SFOs are combined with auxiliary Core Functions (CFs) to ensure orthogonalization on the (frozen)
 Core Orbitals (COs). The Core-orthogonalized SFOs (CSFOs) constitute the true Fock basis.

 The FOs, and hence also the (C)SFOs are combinations of the elementary basis functions (BAS). The basis
 functions that participate in the description of the SFOs depend on the irrep. The indices of the
 involved functions are printed below for each irrep.
 (The complete list of primitive basis functions is printed in another section)

 Total nr. of (C)SFOs (summation over all irreps) :   138

 NOTE: a (C)SFO that is defined as a combination of more than one FO is usually NOT normalized.



                                       === A ===
 Nr. of SFOs :  138
 Cartesian basis functions that participate in this irrep (total number =   156) :
      1     2     3    10    11    36    37    38     4     7
     12    15    39    42    45     5     8    13    16    40
     43    46     6     9    14    17    41    44    47    18
     24    30    48    19    25    31    49    20    26    32
     50    21    27    33    51    22    28    34    52    23
     29    35    53    54    55    56    57    58    59    60
     61    62    63    64    65    66    73    74    99   100
    101    67    70    75    78   102   105   108    68    71
     76    79   103   106   109    69    72    77    80   104
    107   110    81    87    93   111    82    88    94   112
     83    89    95   113    84    90    96   114    85    91
     97   115    86    92    98   116   117   118   119   120
    121   122   123   124   125   126   127   128   129   130
    131   132   135   138   133   136   139   134   137   140
    141   142   143   144   145   146   147   148   149   150
    151   152   153   154   155   156

    SFO  (index         Fragment          Generating    Expansion in Fragment Orbitals
  indx  incl.CFs)   Occup   Orb.Energy   FragmentType  Coeff.   Orbital     on Fragment
 --------------------------------------------------------------------------------------
     1       1      2.000    -481.013 au  Br            1.00      1 S               1
                        (  -13089.023 eV)
     2       2      2.000     -61.780 au  Br            1.00      2 S               1
                        (   -1681.121 eV)
     3       3      2.000      -8.404 au  Br            1.00      3 S               1
                        (    -228.678 eV)
     4       4      2.000      -0.706 au  Br            1.00      4 S               1
                        (     -19.222 eV)
     5       5       --         0.238 au  Br            1.00      5 S               1
                        (       6.476 eV)
     6       6       --         2.466 au  Br            1.00      6 S               1
                        (      67.092 eV)
     7       7       --        14.294 au  Br            1.00      7 S               1
                        (     388.950 eV)
     8       8       --       746.479 au  Br            1.00      8 S               1
                        (   20312.736 eV)
     9       9      2.000     -55.709 au  Br            1.00      1 P:x             1
                        (   -1515.929 eV)
    10      10      2.000      -6.304 au  Br            1.00      2 P:x             1
                        (    -171.530 eV)
    11      11      1.667      -0.285 au  Br            1.00      3 P:x             1
                        (      -7.755 eV)
    12      12       --         0.137 au  Br            1.00      4 P:x             1
                        (       3.718 eV)
    13      13       --         1.215 au  Br            1.00      5 P:x             1
                        (      33.064 eV)
    14      14       --         8.835 au  Br            1.00      6 P:x             1
                        (     240.419 eV)
    15      15       --       100.877 au  Br            1.00      7 P:x             1
                        (    2745.004 eV)
    16      16      2.000     -55.709 au  Br            1.00      1 P:y             1
                        (   -1515.929 eV)
    17      17      2.000      -6.304 au  Br            1.00      2 P:y             1
                        (    -171.530 eV)
    18      18      1.667      -0.285 au  Br            1.00      3 P:y             1
                        (      -7.755 eV)
[...]
    2.Br       -3.763726    1.146725    0.057418
    3.F        -6.062984    5.111209   -0.216611
 <Apr18-2019> <13:52:11>  >>>> CORORT
 <Apr18-2019> <13:52:11>  >>>> CLSMAT
 <Apr18-2019> <13:52:11>  >>>> ORTHON
 <Apr18-2019> <13:52:11>  >>>> GENPT
 <Apr18-2019> <13:52:11>  Block Length= 128
 <Apr18-2019> <13:52:11>  >>>> PTBAS
 <Apr18-2019> <13:52:11>  >>>> CYCLE
 <Apr18-2019> <13:52:11>              |Error|         MaxErr       Wt(A-DIIS)
 <Apr18-2019> <13:52:11>      1      2.92281572      0.97914362
 <Apr18-2019> <13:52:11>      2      0.88814018      0.35975818    100.0
 <Apr18-2019> <13:52:11>      3      0.27956512      0.11985650    100.0
 <Apr18-2019> <13:52:11>      4      0.41425636      0.17479903    100.0
 <Apr18-2019> <13:52:12>      5      2.28498602      0.96137521    100.0
 <Apr18-2019> <13:52:12>      6      1.02558472      0.39314180    100.0
 <Apr18-2019> <13:52:12>      7      0.24496738      0.09401152     94.0
 <Apr18-2019> <13:52:12>      8      0.13808106      0.05088003     50.4
 <Apr18-2019> <13:52:12>      9      0.06128307      0.02182026     21.0
 <Apr18-2019> <13:52:12>     10      0.00878467      0.00155301      0.6
 <Apr18-2019> <13:52:12>     11      0.00052466      0.00012877      0.0
 <Apr18-2019> <13:52:12>     12      0.00014831      0.00004202      0.0
 <Apr18-2019> <13:52:12>     13      0.00003168      0.00000750      0.0
 <Apr18-2019> <13:52:12>     14      0.00002075      0.00000635      0.0
 <Apr18-2019> <13:52:12>     15      0.00000244      0.00000060      0.0
 <Apr18-2019> <13:52:12>  SCF converged
 <Apr18-2019> <13:52:13>     16      0.00000038      0.00000010      0.0
 <Apr18-2019> <13:52:13>  >>>> TOTEN
 <Apr18-2019> <13:52:13>  >>>> POPAN
 <Apr18-2019> <13:52:13>  >>>> DEBYE
 <Apr18-2019> <13:52:13>  >>>> ENGRAD
 <Apr18-2019> <13:52:13>  current energy                               -0.31004631 Hartree
 <Apr18-2019> <13:52:13>  energy change                      -0.31004631     0.00010000    F
 <Apr18-2019> <13:52:13>  constrained gradient max            0.15936783     0.00010000    F
 <Apr18-2019> <13:52:13>  constrained gradient rms            0.08098682     0.00006667    F
 <Apr18-2019> <13:52:13>  gradient max                        0.15936783
 <Apr18-2019> <13:52:13>  gradient rms                        0.08098682
 <Apr18-2019> <13:52:13>  cart. step max                      0.10106529     0.01000000    F
 <Apr18-2019> <13:52:13>  cart. step rms                      0.05061311     0.00666667    F
  Coordinates in Geometry Cycle 2
    Atom         X           Y           Z   (Angstrom)
    1.Br       -4.964604    3.142050   -0.032205
    2.Br       -3.773982    1.129775    0.080808
    3.F        -6.036794    5.027094   -0.185804
 <Apr18-2019> <13:52:13>  >>>> CORORT
 <Apr18-2019> <13:52:13>  >>>> CLSMAT
 <Apr18-2019> <13:52:13>  >>>> ORTHON
 <Apr18-2019> <13:52:13>  >>>> GENPT
 <Apr18-2019> <13:52:13>  Block Length= 128
 <Apr18-2019> <13:52:13>  >>>> PTBAS
 <Apr18-2019> <13:52:13>  >>>> CYCLE
 <Apr18-2019> <13:52:13>              |Error|         MaxErr       Wt(A-DIIS)
 <Apr18-2019> <13:52:13>      1      0.50096695      0.13313103
 <Apr18-2019> <13:52:13>      2      0.24978134      0.06870457    100.0
 <Apr18-2019> <13:52:13>      3      0.09161279      0.03003686    100.0
 <Apr18-2019> <13:52:13>      4      0.22936271      0.08224513    100.0
 <Apr18-2019> <13:52:14>      5      0.06075804      0.01999216     19.2
 <Apr18-2019> <13:52:14>      6      0.00667049      0.00241896      1.4
 <Apr18-2019> <13:52:14>      7      0.00084479      0.00015010      0.0
 <Apr18-2019> <13:52:14>      8      0.00025839      0.00004589      0.0
 <Apr18-2019> <13:52:14>      9      0.00012551      0.00004311      0.0
 <Apr18-2019> <13:52:14>     10      0.00000341      0.00000069      0.0
 <Apr18-2019> <13:52:14>  SCF converged
 <Apr18-2019> <13:52:14>     11      0.00000128      0.00000034      0.0
 <Apr18-2019> <13:52:14>  >>>> TOTEN
 <Apr18-2019> <13:52:14>  >>>> POPAN
 <Apr18-2019> <13:52:14>  >>>> DEBYE
 <Apr18-2019> <13:52:14>  >>>> ENGRAD
 <Apr18-2019> <13:52:14>  current energy                               -0.32791073 Hartree
 <Apr18-2019> <13:52:14>  energy change                      -0.01786442     0.00010000    F
 <Apr18-2019> <13:52:14>  constrained gradient max            0.09409305     0.00010000    F
 <Apr18-2019> <13:52:14>  constrained gradient rms            0.04854351     0.00006667    F
 <Apr18-2019> <13:52:14>  gradient max                        0.09409305
 <Apr18-2019> <13:52:14>  gradient rms                        0.04854351
 <Apr18-2019> <13:52:14>  cart. step max                      0.15000000     0.01000000    F
 <Apr18-2019> <13:52:14>  cart. step rms                      0.08604317     0.00666667    F
  Coordinates in Geometry Cycle 3
    Atom         X           Y           Z   (Angstrom)
    1.Br       -4.974032    3.240620   -0.091824
    2.Br       -3.858179    1.049750    0.230808
    3.F        -5.943169    5.008548   -0.276185
 <Apr18-2019> <13:52:15>  >>>> CORORT
 <Apr18-2019> <13:52:15>  >>>> CLSMAT
 <Apr18-2019> <13:52:15>  >>>> ORTHON
 <Apr18-2019> <13:52:15>  >>>> GENPT
 <Apr18-2019> <13:52:15>  Block Length= 128
 <Apr18-2019> <13:52:15>  >>>> PTBAS
 <Apr18-2019> <13:52:15>  >>>> CYCLE
 <Apr18-2019> <13:52:15>              |Error|         MaxErr       Wt(A-DIIS)
 <Apr18-2019> <13:52:15>      1      0.58077908      0.15022561
 <Apr18-2019> <13:52:15>      2      0.24824621      0.06128702    100.0
 <Apr18-2019> <13:52:15>      3      0.06680289      0.01503499    100.0
 <Apr18-2019> <13:52:15>      4      0.07155184      0.02406308     23.3
 <Apr18-2019> <13:52:15>      5      0.04088685      0.01266438     11.8
 <Apr18-2019> <13:52:15>      6      0.00337738      0.00055490      0.0
 <Apr18-2019> <13:52:15>      7      0.00076666      0.00020763      0.0
 <Apr18-2019> <13:52:15>      8      0.00020189      0.00003608      0.0
 <Apr18-2019> <13:52:16>      9      0.00006953      0.00002144      0.0
 <Apr18-2019> <13:52:16>     10      0.00001291      0.00000245      0.0
 <Apr18-2019> <13:52:16>     11      0.00000177      0.00000045      0.0
 <Apr18-2019> <13:52:16>  SCF converged
 <Apr18-2019> <13:52:16>     12      0.00000026      0.00000006      0.0
 <Apr18-2019> <13:52:16>  >>>> TOTEN
 <Apr18-2019> <13:52:16>  >>>> POPAN
 <Apr18-2019> <13:52:16>  >>>> DEBYE
 <Apr18-2019> <13:52:16>  >>>> ENGRAD
 <Apr18-2019> <13:52:16>  current energy                               -0.33718637 Hartree
 <Apr18-2019> <13:52:16>  energy change                      -0.00927564     0.00010000    F
 <Apr18-2019> <13:52:16>  constrained gradient max            0.03956917     0.00010000    F
 <Apr18-2019> <13:52:16>  constrained gradient rms            0.01870761     0.00006667    F
 <Apr18-2019> <13:52:16>  gradient max                        0.03956917
 <Apr18-2019> <13:52:16>  gradient rms                        0.01870761
 <Apr18-2019> <13:52:16>  cart. step max                      0.15000000     0.01000000    F
 <Apr18-2019> <13:52:16>  cart. step rms                      0.08576505     0.00666667    F
  Coordinates in Geometry Cycle 4
    Atom         X           Y           Z   (Angstrom)
    1.Br       -4.969359    3.257376   -0.108900
    2.Br       -3.933396    0.955748    0.380808
    3.F        -5.872625    5.085795   -0.409110
 <Apr18-2019> <13:52:16>  >>>> CORORT
 <Apr18-2019> <13:52:16>  >>>> CLSMAT
 <Apr18-2019> <13:52:16>  >>>> ORTHON
 <Apr18-2019> <13:52:16>  >>>> GENPT
 <Apr18-2019> <13:52:16>  Block Length= 128
 <Apr18-2019> <13:52:16>  >>>> PTBAS
 <Apr18-2019> <13:52:16>  >>>> CYCLE
 <Apr18-2019> <13:52:17>              |Error|         MaxErr       Wt(A-DIIS)
 <Apr18-2019> <13:52:17>      1      0.35757895      0.10410130
 <Apr18-2019> <13:52:17>      2      0.05082636      0.01391923    100.0
 <Apr18-2019> <13:52:17>      3      0.18084912      0.05890159    100.0
 <Apr18-2019> <13:52:17>      4      0.05406881      0.01651437     15.7
 <Apr18-2019> <13:52:17>      5      0.00670844      0.00145662      0.5
 <Apr18-2019> <13:52:17>      6      0.00249450      0.00042872      0.0
 <Apr18-2019> <13:52:17>      7      0.00036014      0.00005280      0.0
 <Apr18-2019> <13:52:17>      8      0.00009912      0.00001872      0.0
 <Apr18-2019> <13:52:17>      9      0.00001377      0.00000248      0.0
 <Apr18-2019> <13:52:17>     10      0.00000339      0.00000063      0.0
 <Apr18-2019> <13:52:17>  SCF converged
 <Apr18-2019> <13:52:17>     11      0.00000050      0.00000010      0.0
 <Apr18-2019> <13:52:18>  >>>> TOTEN
 <Apr18-2019> <13:52:18>  >>>> POPAN
 <Apr18-2019> <13:52:18>  >>>> DEBYE
 <Apr18-2019> <13:52:18>  >>>> ENGRAD
 <Apr18-2019> <13:52:18>  current energy                               -0.34022222 Hartree
 <Apr18-2019> <13:52:18>  energy change                      -0.00303585     0.00010000    F
 <Apr18-2019> <13:52:18>  constrained gradient max            0.01434914     0.00010000    F
 <Apr18-2019> <13:52:18>  constrained gradient rms            0.00785091     0.00006667    F
 <Apr18-2019> <13:52:18>  gradient max                        0.01434914
 <Apr18-2019> <13:52:18>  gradient rms                        0.00785091
 <Apr18-2019> <13:52:18>  cart. step max                      0.14356843     0.01000000    F
 <Apr18-2019> <13:52:18>  cart. step rms                      0.08430548     0.00666667    F
  Coordinates in Geometry Cycle 5
    Atom         X           Y           Z   (Angstrom)
    1.Br       -4.986128    3.276338   -0.103826
    2.Br       -4.020288    0.896106    0.519304
    3.F        -5.768966    5.126475   -0.552678
 <Apr18-2019> <13:52:18>  >>>> CORORT
 <Apr18-2019> <13:52:18>  >>>> CLSMAT
 <Apr18-2019> <13:52:18>  >>>> ORTHON
 <Apr18-2019> <13:52:18>  >>>> GENPT
 <Apr18-2019> <13:52:18>  Block Length= 128
 <Apr18-2019> <13:52:18>  >>>> PTBAS
 <Apr18-2019> <13:52:18>  >>>> CYCLE
 <Apr18-2019> <13:52:18>              |Error|         MaxErr       Wt(A-DIIS)
 <Apr18-2019> <13:52:18>      1      0.26342146      0.06655353
 <Apr18-2019> <13:52:18>      2      0.05902929      0.01459179    100.0
 <Apr18-2019> <13:52:18>      3      0.23515229      0.07176612    100.0
 <Apr18-2019> <13:52:18>      4      0.07558408      0.02153884    100.0
 <Apr18-2019> <13:52:19>      5      0.01110007      0.00350140      2.5
 <Apr18-2019> <13:52:19>      6      0.00370791      0.00074671      0.0
 <Apr18-2019> <13:52:19>      7      0.00075476      0.00015054      0.0
 <Apr18-2019> <13:52:19>      8      0.00023908      0.00004020      0.0
 <Apr18-2019> <13:52:19>      9      0.00006123      0.00001940      0.0
 <Apr18-2019> <13:52:19>     10      0.00000914      0.00000233      0.0
 <Apr18-2019> <13:52:19>     11      0.00000252      0.00000075      0.0
 <Apr18-2019> <13:52:19>  SCF converged
 <Apr18-2019> <13:52:19>     12      0.00000030      0.00000007      0.0
 <Apr18-2019> <13:52:19>  >>>> TOTEN
 <Apr18-2019> <13:52:19>  >>>> POPAN
 <Apr18-2019> <13:52:19>  >>>> DEBYE
 <Apr18-2019> <13:52:19>  >>>> ENGRAD
 <Apr18-2019> <13:52:19>  current energy                               -0.34099289 Hartree
 <Apr18-2019> <13:52:19>  energy change                      -0.00077066     0.00010000    F
 <Apr18-2019> <13:52:19>  constrained gradient max            0.00332844     0.00010000    F
 <Apr18-2019> <13:52:19>  constrained gradient rms            0.00186419     0.00006667    F
 <Apr18-2019> <13:52:19>  gradient max                        0.00332844
 <Apr18-2019> <13:52:19>  gradient rms                        0.00186419
 <Apr18-2019> <13:52:19>  cart. step max                      0.00967243     0.01000000    T
 <Apr18-2019> <13:52:19>  cart. step rms                      0.00541187     0.00666667    T
  Coordinates in Geometry Cycle 6
    Atom         X           Y           Z   (Angstrom)
    1.Br       -4.995800    3.281152   -0.096549
    2.Br       -4.017013    0.894777    0.516625
    3.F        -5.762568    5.122990   -0.557278
 <Apr18-2019> <13:52:19>  >>>> CORORT
 <Apr18-2019> <13:52:20>  >>>> CLSMAT
 <Apr18-2019> <13:52:20>  >>>> ORTHON
 <Apr18-2019> <13:52:20>  >>>> GENPT
 <Apr18-2019> <13:52:20>  Block Length= 128
 <Apr18-2019> <13:52:20>  >>>> PTBAS
 <Apr18-2019> <13:52:20>  >>>> CYCLE
 <Apr18-2019> <13:52:20>              |Error|         MaxErr       Wt(A-DIIS)
 <Apr18-2019> <13:52:20>      1      0.03365488      0.00840803
 <Apr18-2019> <13:52:20>      2      0.01680130      0.00383338    100.0
 <Apr18-2019> <13:52:20>      3      0.00484013      0.00130490    100.0
 <Apr18-2019> <13:52:20>      4      0.00859419      0.00267649    100.0
 <Apr18-2019> <13:52:20>      5      0.00209858      0.00051619      0.0
 <Apr18-2019> <13:52:20>      6      0.00028644      0.00008093      0.0
 <Apr18-2019> <13:52:20>      7      0.00007275      0.00002057      0.0
 <Apr18-2019> <13:52:20>      8      0.00001746      0.00000339      0.0
 <Apr18-2019> <13:52:21>      9      0.00000514      0.00000154      0.0
 <Apr18-2019> <13:52:21>     10      0.00000081      0.00000020      0.0
 <Apr18-2019> <13:52:21>  SCF converged
 <Apr18-2019> <13:52:21>     11      0.00000021      0.00000005      0.0
 <Apr18-2019> <13:52:21>  >>>> TOTEN
 <Apr18-2019> <13:52:21>  >>>> POPAN
 <Apr18-2019> <13:52:21>  >>>> DEBYE
 <Apr18-2019> <13:52:21>  >>>> ENGRAD
 <Apr18-2019> <13:52:21>  current energy                               -0.34104249 Hartree
 <Apr18-2019> <13:52:21>  energy change                      -0.00004960     0.00010000    T
 <Apr18-2019> <13:52:21>  constrained gradient max            0.00065453     0.00010000    F
 <Apr18-2019> <13:52:21>  constrained gradient rms            0.00037401     0.00006667    F
 <Apr18-2019> <13:52:21>  gradient max                        0.00065453
 <Apr18-2019> <13:52:21>  gradient rms                        0.00037401
 <Apr18-2019> <13:52:21>  cart. step max                      0.00810269     0.01000000    T
 <Apr18-2019> <13:52:21>  cart. step rms                      0.00459292     0.00666667    T
  Coordinates in Geometry Cycle 7
    Atom         X           Y           Z   (Angstrom)
    1.Br       -5.001382    3.280460   -0.089883
    2.Br       -4.018031    0.894341    0.518062
    3.F        -5.755967    5.124118   -0.565381
 <Apr18-2019> <13:52:21>  >>>> CORORT
 <Apr18-2019> <13:52:21>  >>>> CLSMAT
 <Apr18-2019> <13:52:21>  >>>> ORTHON
 <Apr18-2019> <13:52:21>  >>>> GENPT
 <Apr18-2019> <13:52:21>  Block Length= 128
 <Apr18-2019> <13:52:21>  >>>> PTBAS
 <Apr18-2019> <13:52:21>  >>>> CYCLE
 <Apr18-2019> <13:52:21>              |Error|         MaxErr       Wt(A-DIIS)
 <Apr18-2019> <13:52:21>      1      0.01717860      0.00641163
 <Apr18-2019> <13:52:21>      2      0.00154420      0.00026250    100.0
 <Apr18-2019> <13:52:22>      3      0.00185826      0.00043229    100.0
 <Apr18-2019> <13:52:22>      4      0.00237122      0.00073391      0.0
 <Apr18-2019> <13:52:22>      5      0.00027639      0.00006261      0.0
 <Apr18-2019> <13:52:22>      6      0.00015952      0.00003507      0.0
 <Apr18-2019> <13:52:22>      7      0.00001496      0.00000295      0.0
 <Apr18-2019> <13:52:22>      8      0.00000329      0.00000105      0.0
 <Apr18-2019> <13:52:22>      9      0.00000050      0.00000011      0.0
 <Apr18-2019> <13:52:22>  SCF converged
 <Apr18-2019> <13:52:22>     10      0.00000022      0.00000005      0.0
 <Apr18-2019> <13:52:22>  >>>> TOTEN
 <Apr18-2019> <13:52:22>  >>>> POPAN
 <Apr18-2019> <13:52:22>  >>>> DEBYE
 <Apr18-2019> <13:52:22>  >>>> ENGRAD
 <Apr18-2019> <13:52:23>  current energy                               -0.34104519 Hartree
 <Apr18-2019> <13:52:23>  energy change                      -0.00000270     0.00010000    T
 <Apr18-2019> <13:52:23>  constrained gradient max            0.00031332     0.00010000    F
 <Apr18-2019> <13:52:23>  constrained gradient rms            0.00015569     0.00006667    F
 <Apr18-2019> <13:52:23>  gradient max                        0.00031332
 <Apr18-2019> <13:52:23>  gradient rms                        0.00015569
 <Apr18-2019> <13:52:23>  cart. step max                      0.00140203     0.01000000    T
 <Apr18-2019> <13:52:23>  cart. step rms                      0.00076791     0.00666667    T
  Coordinates in Geometry Cycle 8
    Atom         X           Y           Z   (Angstrom)
    1.Br       -5.000760    3.281054   -0.090993
    2.Br       -4.017690    0.894220    0.517771
    3.F        -5.756931    5.123645   -0.563979
 <Apr18-2019> <13:52:23>  >>>> CORORT
 <Apr18-2019> <13:52:23>  >>>> CLSMAT
 <Apr18-2019> <13:52:23>  >>>> ORTHON
 <Apr18-2019> <13:52:23>  >>>> GENPT
 <Apr18-2019> <13:52:23>  Block Length= 128
 <Apr18-2019> <13:52:23>  >>>> PTBAS
 <Apr18-2019> <13:52:23>  >>>> CYCLE
 <Apr18-2019> <13:52:23>              |Error|         MaxErr       Wt(A-DIIS)
 <Apr18-2019> <13:52:23>      1      0.00359482      0.00107096
 <Apr18-2019> <13:52:23>      2      0.00151540      0.00033968    100.0
 <Apr18-2019> <13:52:23>      3      0.00045315      0.00011680    100.0
 <Apr18-2019> <13:52:23>      4      0.00076913      0.00024115      0.0
 <Apr18-2019> <13:52:23>      5      0.00020556      0.00004262      0.0
 <Apr18-2019> <13:52:23>      6      0.00002820      0.00000488      0.0
 <Apr18-2019> <13:52:23>      7      0.00000752      0.00000206      0.0
 <Apr18-2019> <13:52:24>      8      0.00000213      0.00000040      0.0
 <Apr18-2019> <13:52:24>  SCF converged
 <Apr18-2019> <13:52:24>      9      0.00000051      0.00000015      0.0
 <Apr18-2019> <13:52:24>  >>>> TOTEN
 <Apr18-2019> <13:52:24>  >>>> POPAN
 <Apr18-2019> <13:52:24>  >>>> DEBYE
 <Apr18-2019> <13:52:24>  >>>> ENGRAD
 <Apr18-2019> <13:52:24>  current energy                               -0.34104628 Hartree
 <Apr18-2019> <13:52:24>  energy change                      -0.00000109     0.00010000    T
 <Apr18-2019> <13:52:24>  constrained gradient max            0.00000526     0.00010000    T
 <Apr18-2019> <13:52:24>  constrained gradient rms            0.00000316     0.00006667    T
 <Apr18-2019> <13:52:24>  gradient max                        0.00000526
 <Apr18-2019> <13:52:24>  gradient rms                        0.00000316
 <Apr18-2019> <13:52:24>  cart. step max                      0.00003253     0.01000000    T
 <Apr18-2019> <13:52:24>  cart. step rms                      0.00001872     0.00666667    T
 <Apr18-2019> <13:52:24>  GEOMETRY CONVERGED
 <Apr18-2019> <13:52:24>  Calculating Energy Terms for Final Geometry
  Coordinates in Geometry Cycle 8
    Atom         X           Y           Z   (Angstrom)
    1.Br       -5.000760    3.281054   -0.090993
    2.Br       -4.017690    0.894220    0.517771
    3.F        -5.756931    5.123645   -0.563979
 <Apr18-2019> <13:52:24>  >>>> CORORT
 <Apr18-2019> <13:52:24>  >>>> CLSMAT
 <Apr18-2019> <13:52:24>  >>>> ORTHON
 <Apr18-2019> <13:52:24>  >>>> GENPT
 <Apr18-2019> <13:52:24>  Block Length= 128
 <Apr18-2019> <13:52:24>  >>>> PTBAS
 <Apr18-2019> <13:52:24>  >>>> CYCLE
 <Apr18-2019> <13:52:24>              |Error|         MaxErr       Wt(A-DIIS)
 <Apr18-2019> <13:52:24>      1      0.00000008      0.00000003
 <Apr18-2019> <13:52:24>      2      0.00000027      0.00000008    100.0
 <Apr18-2019> <13:52:24>  SCF converged
 <Apr18-2019> <13:52:24>      3      0.00000113      0.00000033    100.0
 <Apr18-2019> <13:52:25>  >>>> TOTEN
 <Apr18-2019> <13:52:25>  >>>> POPAN
 <Apr18-2019> <13:52:25>  >>>> DEBYE
 <Apr18-2019> <13:52:25>  >>>> AMETS
 <Apr18-2019> <13:52:25>  >>>> POPUL
 <Apr18-2019> <13:52:25>   Bond Energy          -0.34104628 a.u.
 <Apr18-2019> <13:52:25>   Bond Energy          -9.28034148 eV
 <Apr18-2019> <13:52:25>   Bond Energy        -214.01       kcal/mol
 <Apr18-2019> <13:52:25>  >>>> ENHESS
 <Apr18-2019> <13:52:25>  === NUCLEUS:     1
 <Apr18-2019> <13:52:27>  === NUCLEUS:     2
 <Apr18-2019> <13:52:30>  === NUCLEUS:     3
 <Apr18-2019> <13:52:32>  >>>> CALC_HESS_PMAT
 <Apr18-2019> <13:52:32>  >>>> CALC_HESS_WMAT
 <Apr18-2019> <13:52:33>  NORMAL TERMINATION
 <Apr18-2019> <13:52:33>  END
