

 Parallel Execution: Process Information
 ==============================================================================
 Rank   Node Name                              NodeID   MyNodeRank  NodeMaster
    0   BAZIS-cn022                               0          0          0
    1   BAZIS-cn022                               0          1         -1
    2   BAZIS-cn022                               0          2         -1
    3   BAZIS-cn022                               0          3         -1
    4   BAZIS-cn022                               0          4         -1
    5   BAZIS-cn022                               0          5         -1
    6   BAZIS-cn022                               0          6         -1
    7   BAZIS-cn022                               0          7         -1
    8   BAZIS-cn022                               0          8         -1
    9   BAZIS-cn022                               0          9         -1
   10   BAZIS-cn022                               0         10         -1
   11   BAZIS-cn022                               0         11         -1
 ==============================================================================


May use up to 30771MB of RAM as shared memory on node 0


XC
    GGA BP86
END

SCF
    iterations 250
END

EPRINT
    SFO Eig Ovl
END

ZLMFIT
    Quality normal
END

BECKEGRID
    Quality good
End

SYMMETRY nosym
CHARGE -1

ATOMS
1.Br       -4.030844    0.109330   -0.236719 f=BrH
2.H        -2.328113    0.436726    0.935773 f=BrH
3.F        -1.521539    0.591812    1.491175 f=F
END

Fragments
BrH /home/tcst25/advanced_comp_chemistry/exercise2/hydrogen/BrHF/frag1_BrH.t21
F /home/tcst25/advanced_comp_chemistry/exercise2/hydrogen/BrHF/frag2_F.t21
End
end input

 *******************************************************************************
 *                                                                             *
 *  -------------------------------------                                      *
 *   Amsterdam Density Functional  (ADF)         2017                          *
 *  -------------------------------------                                      *
 *                                               r58813 2017-04-12             *
 *                                                                             *
 *                                                                             *
 *                              =================                              *
 *                              |               |                              *
 *                              |     A D F     |                              *
 *                              |               |                              *
 *                              =================                              *
 *                                                                             *
 *                                                                             *
 *   Online information and documentation:  https://www.scm.com/support/       *
 *   E-mail:  support@scm.com   info@scm.com                                   *
 *                                                                             *
 *   Scientific publications using ADF results must be properly referenced     *
 *   See the User Manuals (or the web site) for recommended citations          *
 *   The terms and conditions of the End User License Agreement apply to       *
 *   the use of ADF, https://www.scm.com/license-terms/                        *
 *                                                                             *
 **********************  x86_64_linux_intel / intelmpi  ************************
 
 Licensed to: VU/FEW (+ SARA) / ALGEMEEN / Amsterdam / THE NETHERLANDS
 SCM User ID: u7668
  
 ADF 2017  RunTime: May09-2019 17:23:36  Nodes: 1  Procs: 12

 Temporary files are created in /local/datastore0/tcst25/189812/kid_0.O6jOQb


Communication costs MPI_COMM_WORLD:      3.883 usec per message,   0.0183 usec per 8-byte item
Communication costs for intra-node:      3.855 usec per message,   0.0175 usec per 8-byte item

 *** (NO TITLE) ***



 ===========================
 A T T A C H E D   F I L E S
 ===========================
  



 ===============================
 M O D E L   P A R A M E T E R S
 ===============================
  
 DENSITY FUNCTIONAL POTENTIAL (scf)
    LDA:                               VWN                                      
    Gradient Corrections:              Becke88 Perdew86                        == Not Default ==

 SPIN  (restricted / unrestr.)
    Molecule:                          Restricted                               
    Fragments:                         Restricted                               

 OTHER ASPECTS
    Relativistic Corrections:          ---                                      

    Nuclear Charge Density Model:      Point Charge Nuclei                      
    Core Treatment:                    Frozen Orbital(s)                        

    Hyperfine or Zeeman Interaction:   ---                                      


 Fragment File(s)
 ----------------
 BrH:
         file : /home/tcst25/advanced_comp_chemistry/exercise2/hydrogen/BrHF/frag1_BrH.t21
         jobid: ADF 2017  RunTime: May09-2019 17:12:33  Nodes: 1  Procs: 12
         title: *** (NO TITLE) ***
 F:
         file : /home/tcst25/advanced_comp_chemistry/exercise2/hydrogen/BrHF/frag2_F.t21
         jobid: ADF 2017  RunTime: May09-2019 17:12:32  Nodes: 1  Procs: 12
         title: *** (NO TITLE) ***



                                        ************************************
                                        *  R U N   T Y P E : SINGLE POINT  *
                                        ************************************
  



 ===============
 G E O M E T R Y  ***  Linear Molecule  ***
 ===============
  

 ATOMS
 =====                            X Y Z                    CHARGE
                                (Angstrom)             Nucl     +Core       At.Mass
                       --------------------------    ----------------       -------
    1  Br             -4.0308    0.1093   -0.2367     35.00     35.00       78.9183
    2  H              -2.3281    0.4367    0.9358      1.00      1.00        1.0078
    3  F              -1.5215    0.5918    1.4912      9.00      9.00       18.9984


 FRAGMENTS
 =========                                     Atoms in this Fragment     Cart. coord.s (Angstrom)
                                               -------------------------------------------------------
    1  BrH                                               1  Br          -4.0308    0.1093   -0.2367
                                                         2  H           -2.3281    0.4367    0.9358
    2  F                                                 3  F           -1.5215    0.5918    1.4912


 Interatomic Distance Matrix (Angstrom)
 --------------------------------------

   1)     0.000
   2)     2.093   0.000
   3)     3.085   0.992   0.000

 Min. Distance =    0.9915
 Max. Distance =    3.0846



 =====================================
 S Y M M E T R Y ,   E L E C T R O N S
 =====================================
  
 Symmetry: NOSYM

 Irreducible Representations, including subspecies
 -------------------------------------------------
 A


 Configuration of Valence Electrons
 ==================================
 ( determined in the SCF procedure )

 Total:   46

 Net Charge: -1 (Nuclei minus Electrons)

 Aufbau principle for MO occupations will be applied through SCF cycle no.     125
 Thereafter, the program will assign electrons to MOs that are spatially
 similar to the occupied MOs in a "reference" cycle ("KeepOrbitals").
 The reference cycle is always the PREVIOUS cycle: it will evolve with
 the SCF procedure.
1
 ***************************************************************************************************



                                      ****************************************
                                      *  B U I L D : (Fragments, Functions)  *
                                      ****************************************
  

 The individual fragments are copies of the corresponding 'Master' fragments defined on the fragment files.
 However, they may have been rotated (and translated) with respect to the Master. The local coordinate axes
 of each fragment (which define for instance the spatial orientation in the current molecule of a fragment
 P:x orbital) are not necessarily those of the molecule.
 The local frame (if different from the molecular one) is printed to enable an interpretation of the expan-
 sion of an MO in Fragment Orbitals.



                                             *************************
                                             *  Fragment Type : BrH  *
                                             *************************
  

 Fragment no.    1   (in the list of all fragments)
 -----------------
 The local coordinate frame is identical to the molecular frame.

 Check Atomic Coordinates:

                  Master (on file)          After Computed Tranformation               As specified on Input
           ----------------------------     ----------------------------     ---------------------------------
     1)    -4.03084   0.10933  -0.23672     -4.03084   0.10933  -0.23672       1  -4.03084   0.10933  -0.23672
     2)    -2.32811   0.43673   0.93577     -2.32811   0.43673   0.93577       2  -2.32811   0.43673   0.93577



                                              ***********************
                                              *  Fragment Type : F  *
                                              ***********************
  

 Fragment no.    2   (in the list of all fragments)
 -----------------
 The local coordinate frame is identical to the molecular frame.

 Check Atomic Coordinates:

                  Master (on file)          After Computed Tranformation               As specified on Input
           ----------------------------     ----------------------------     ---------------------------------
     1)    -1.52154   0.59181   1.49117     -1.52154   0.59181   1.49118       3  -1.52154   0.59181   1.49118



 =======
 S F O s  ***  (Symmetrized Fragment Orbitals)  ***
 =======
  
 SFOs are linear combinations of (valence) Fragment Orbitals (FOs), such that the SFOs transform as the
 irreducible representations of the (molecular) symmetry group. Each SFO is therefore characterized by
 an irrep of the molecule and by a few (or only one) generating FOs.
 The SFOs constitute a symmetry-adapted basis for the Fock matrix. The MO eigenvector coefficients in
 this basis provide a direct interpretation of the MOs in terms of Frontier Orbital Theory.

 The SFOs are combined with auxiliary Core Functions (CFs) to ensure orthogonalization on the (frozen)
 Core Orbitals (COs). The Core-orthogonalized SFOs (CSFOs) constitute the true Fock basis.

 The FOs, and hence also the (C)SFOs are combinations of the elementary basis functions (BAS). The basis
 functions that participate in the description of the SFOs depend on the irrep. The indices of the
 involved functions are printed below for each irrep.
 (The complete list of primitive basis functions is printed in another section)

 Total nr. of (C)SFOs (summation over all irreps) :    93

 NOTE: a (C)SFO that is defined as a combination of more than one FO is usually NOT normalized.



                                       === A ===
 Nr. of SFOs :   93
 Cartesian basis functions that participate in this irrep (total number =   105) :
      1     2     3    10    11    36    37    38     4     7
     12    15    39    42    45     5     8    13    16    40
     43    46     6     9    14    17    41    44    47    18
     24    30    48    19    25    31    49    20    26    32
     50    21    27    33    51    22    28    34    52    23
     29    35    53    54    55    56    57    58    59    60
     61    62    63    64    65    66    67    68    69    70
     71    72    73    74    75    76    77    78    79    80
     81    84    87    82    85    88    83    86    89    90
     91    92    93    94    95    96    97    98    99   100
    101   102   103   104   105

    SFO  (index         Fragment          Generating    Expansion in Fragment Orbitals
  indx  incl.CFs)   Occup   Orb.Energy   FragmentType  Coeff.   Orbital     on Fragment
 --------------------------------------------------------------------------------------
     1       1      2.000    -481.014 au  BrH           1.00      1 A               1
                        (  -13089.061 eV)
     2       2      2.000     -61.769 au  BrH           1.00      2 A               1
                        (   -1680.831 eV)
     3       3      2.000     -55.703 au  BrH           1.00      3 A               1
                        (   -1515.758 eV)
     4       4      2.000     -55.697 au  BrH           1.00      4 A               1
                        (   -1515.601 eV)
     5       5      2.000     -55.697 au  BrH           1.00      5 A               1
                        (   -1515.601 eV)
     6       6      2.000      -8.389 au  BrH           1.00      6 A               1
                        (    -228.280 eV)
     7       7      2.000      -6.300 au  BrH           1.00      7 A               1
                        (    -171.422 eV)
     8       8      2.000      -6.283 au  BrH           1.00      8 A               1
                        (    -170.978 eV)
     9       9      2.000      -6.283 au  BrH           1.00      9 A               1
                        (    -170.978 eV)
    10      10      2.000      -2.504 au  BrH           1.00     10 A               1
                        (     -68.145 eV)
    11      11      2.000      -2.500 au  BrH           1.00     11 A               1
                        (     -68.039 eV)
    12      12      2.000      -2.500 au  BrH           1.00     12 A               1
                        (     -68.039 eV)
    13      13      2.000      -2.489 au  BrH           1.00     13 A               1
                        (     -67.716 eV)
    14      14      2.000      -2.489 au  BrH           1.00     14 A               1
                        (     -67.716 eV)
    15      15      2.000      -0.693 au  BrH           1.00     15 A               1
                        (     -18.871 eV)
    16      16      2.000      -0.344 au  BrH           1.00     16 A               1
                        (      -9.362 eV)
    17      17      2.000      -0.264 au  BrH           1.00     17 A               1
                        (      -7.180 eV)
    18      18      2.000      -0.264 au  BrH           1.00     18 A               1
                        (      -7.180 eV)
    19      19       --        -0.186 au  BrH           1.00     19 A               1
                        (      -5.074 eV)
    20      20       --         0.059 au  BrH           1.00     20 A               1
                        (       1.616 eV)
    21      21       --         0.137 au  BrH           1.00     21 A               1
                        (       3.715 eV)
    22      22       --         0.140 au  BrH           1.00     22 A               1
                        (       3.819 eV)
    23      23       --         0.140 au  BrH           1.00     23 A               1
                        (       3.819 eV)
    24      24       --         0.231 au  BrH           1.00     24 A               1
                        (       6.273 eV)
    25      25       --         0.231 au  BrH           1.00     25 A               1
                        (       6.273 eV)
    26      26       --         0.285 au  BrH           1.00     26 A               1
                        (       7.760 eV)
    27      27       --         0.285 au  BrH           1.00     27 A               1
                        (       7.760 eV)
    28      28       --         0.306 au  BrH           1.00     28 A               1
                        (       8.330 eV)
    29      29       --         0.359 au  BrH           1.00     29 A               1
                        (       9.757 eV)
    30      30       --         0.511 au  BrH           1.00     30 A               1
                        (      13.907 eV)
    31      31       --         0.511 au  BrH           1.00     31 A               1
                        (      13.907 eV)
    32      32       --         0.778 au  BrH           1.00     32 A               1
                        (      21.165 eV)
    33      33       --         0.860 au  BrH           1.00     33 A               1
                        (      23.403 eV)
    34      34       --         0.860 au  BrH           1.00     34 A               1
                        (      23.404 eV)
    35      35       --         0.875 au  BrH           1.00     35 A               1
                        (      23.820 eV)
    36      36       --         0.875 au  BrH           1.00     36 A               1
                        (      23.820 eV)
    37      37       --         0.959 au  BrH           1.00     37 A               1
                        (      26.096 eV)
    38      38       --         0.959 au  BrH           1.00     38 A               1
                        (      26.097 eV)
    39      39       --         1.032 au  BrH           1.00     39 A               1
                        (      28.083 eV)
    40      40       --         1.231 au  BrH           1.00     40 A               1
                        (      33.501 eV)
    41      41       --         1.231 au  BrH           1.00     41 A               1
                        (      33.501 eV)
    42      42       --         1.371 au  BrH           1.00     42 A               1
                        (      37.312 eV)
    43      43       --         1.754 au  BrH           1.00     43 A               1
                        (      47.721 eV)
    44      44       --         2.529 au  BrH           1.00     44 A               1
                        (      68.818 eV)
    45      45       --         2.556 au  BrH           1.00     45 A               1
                        (      69.539 eV)
    46      46       --         2.556 au  BrH           1.00     46 A               1
                        (      69.539 eV)
    47      47       --         2.590 au  BrH           1.00     47 A               1
                        (      70.490 eV)
    48      48       --         2.590 au  BrH           1.00     48 A               1
                        (      70.491 eV)
    49      49       --         2.729 au  BrH           1.00     49 A               1
                        (      74.273 eV)
    50      50       --         2.729 au  BrH           1.00     50 A               1
                        (      74.273 eV)
    51      51       --         2.983 au  BrH           1.00     51 A               1
                        (      81.166 eV)
    52      52       --         3.024 au  BrH           1.00     52 A               1
                        (      82.297 eV)
    53      53       --         3.024 au  BrH           1.00     53 A               1
                        (      82.299 eV)
    54      54       --         3.703 au  BrH           1.00     54 A               1
                        (     100.766 eV)
    55      55       --         8.864 au  BrH           1.00     55 A               1
                        (     241.214 eV)
    56      56       --         8.864 au  BrH           1.00     56 A               1
                        (     241.215 eV)
    57      57       --         9.106 au  BrH           1.00     57 A               1
                        (     247.789 eV)
    58      58       --        14.632 au  BrH           1.00     58 A               1
                        (     398.164 eV)
    59      59       --        20.629 au  BrH           1.00     59 A               1
                        (     561.331 eV)
    60      60       --        20.629 au  BrH           1.00     60 A               1
                        (     561.331 eV)
    61      61       --        20.723 au  BrH           1.00     61 A               1
                        (     563.906 eV)
    62      62       --        20.723 au  BrH           1.00     62 A               1
                        (     563.907 eV)
    63      63       --        21.186 au  BrH           1.00     63 A               1
                        (     576.502 eV)
    64      64       --       100.903 au  BrH           1.00     64 A               1
                        (    2745.706 eV)
    65      65       --       100.903 au  BrH           1.00     65 A               1
                        (    2745.707 eV)
    66      66       --       101.427 au  BrH           1.00     66 A               1
                        (    2759.956 eV)
    67      67       --       747.938 au  BrH           1.00     67 A               1
                        (   20352.428 eV)
    68      68      2.000     -23.791 au  F             1.00      1 A               2
                        (    -647.398 eV)
    69      69      2.000      -0.555 au  F             1.00      2 A               2
                        (     -15.093 eV)
    70      70      2.000       0.108 au  F             1.00      3 A               2
                        (       2.944 eV)
    71      71      2.000       0.108 au  F             1.00      4 A               2
                        (       2.944 eV)
    72      72      2.000       0.108 au  F             1.00      5 A               2
                        (       2.944 eV)
    73      73       --         0.286 au  F             1.00      6 A               2
                        (       7.773 eV)
    74      74       --         0.812 au  F             1.00      7 A               2
                        (      22.092 eV)
    75      75       --         0.812 au  F             1.00      8 A               2
                        (      22.092 eV)
    76      76       --         0.812 au  F             1.00      9 A               2
                        (      22.092 eV)
    77      77       --         1.566 au  F             1.00     10 A               2
                        (      42.603 eV)
    78      78       --         1.566 au  F             1.00     11 A               2
                        (      42.603 eV)
    79      79       --         1.566 au  F             1.00     12 A               2
                        (      42.603 eV)
    80      80       --         1.566 au  F             1.00     13 A               2
                        (      42.603 eV)
    81      81       --         1.566 au  F             1.00     14 A               2
                        (      42.603 eV)
    82      82       --         2.040 au  F             1.00     15 A               2
                        (      55.515 eV)
    83      83       --         3.896 au  F             1.00     16 A               2
                        (     106.020 eV)
    84      84       --         3.896 au  F             1.00     17 A               2
                        (     106.020 eV)
    85      85       --         3.896 au  F             1.00     18 A               2
                        (     106.020 eV)
    86      86       --         3.896 au  F             1.00     19 A               2
                        (     106.020 eV)
    87      87       --         3.896 au  F             1.00     20 A               2
                        (     106.020 eV)
    88      88       --         3.896 au  F             1.00     21 A               2
                        (     106.020 eV)
    89      89       --         3.896 au  F             1.00     22 A               2
                        (     106.020 eV)
    90      90       --         5.088 au  F             1.00     23 A               2
                        (     138.458 eV)
    91      91       --         5.088 au  F             1.00     24 A               2
                        (     138.458 eV)
    92      92       --         5.088 au  F             1.00     25 A               2
                        (     138.458 eV)
    93      93       --        48.938 au  F             1.00     26 A               2
                        (    1331.672 eV)



 ================================
 (Slater-type)  F U N C T I O N S  ***  (Basis and Fit)  ***
 ================================
  

 Atom Type    1  (Br)
 ==============

 Valence Basis Sets:  20
 -----------------------
   1 S   41.300000
   1 S   32.800000
   2 S   13.900000
   2 P   19.450000
   2 P   13.100000
   3 S    7.200000
   3 S    4.950000
   3 P    7.900000
   3 P    5.050000
   3 D   10.900000
   3 D    6.050000
   3 D    3.500000
   4 S    4.500000
   4 S    2.800000
   4 S    1.800000
   4 P    3.250000
   4 P    1.950000
   4 P    1.200000
   4 D    1.800000
   4 F    1.800000

 Atom Type    2  (H)
 ==============

 Valence Basis Sets:   5
 -----------------------
   1 S    0.690000
   1 S    0.920000
   1 S    1.580000
   2 P    1.250000
   3 D    2.500000

 Atom Type    3  (F)
 ==============

 Valence Basis Sets:  10
 -----------------------
   1 S   10.880000
   1 S    7.700000
   2 S    3.240000
   2 S    1.940000
   2 S    0.740000
   2 P    4.540000
   2 P    2.300000
   2 P    1.240000
   3 D    2.000000
   4 F    3.000000


 BAS: List of all Elementary Cartesian Basis Functions
 =====================================================

 The numbering in the list below (to the right of the function characteristics) is referred
 to in print-outs of MO eigenvectors and Mulliken populations in the BAS representation
 (as contrasted to the SFO representation).

 Notes:
 1. The functions are characterized by a polynomial prefactor (powers of x,y,z and r) and
    an exponential decay factor alpha.
 2. Since the basis sets are specific for an atom TYPE, the individual functions occur on
    all atoms of that type.
 3. The word 'Core' in the left margin signals that it is a Core Function (CF) : not a
    degree of freedom in the valence set, but only used to ensure orthogonalization of
    the other valence basis functions on the frozen Core Orbitals.


 (power of) X  Y  Z  R     Alpha  on Atom
            ==========     =====     ==========

 Br                                   1
                                  ---------------------------------------------------------------------------
            0  0  0  0    41.300      1
            0  0  0  0    32.800      2
            0  0  0  1    13.900      3
            1  0  0  0    19.450      4
            0  1  0  0    19.450      5
            0  0  1  0    19.450      6
            1  0  0  0    13.100      7
            0  1  0  0    13.100      8
            0  0  1  0    13.100      9
            0  0  0  2     7.200     10
            0  0  0  2     4.950     11
            1  0  0  1     7.900     12
            0  1  0  1     7.900     13
            0  0  1  1     7.900     14
            1  0  0  1     5.050     15
            0  1  0  1     5.050     16
            0  0  1  1     5.050     17
            2  0  0  0    10.900     18
            1  1  0  0    10.900     19
            1  0  1  0    10.900     20
            0  2  0  0    10.900     21
            0  1  1  0    10.900     22
            0  0  2  0    10.900     23
            2  0  0  0     6.050     24
            1  1  0  0     6.050     25
            1  0  1  0     6.050     26
            0  2  0  0     6.050     27
            0  1  1  0     6.050     28
            0  0  2  0     6.050     29
            2  0  0  0     3.500     30
            1  1  0  0     3.500     31
            1  0  1  0     3.500     32
            0  2  0  0     3.500     33
            0  1  1  0     3.500     34
            0  0  2  0     3.500     35
            0  0  0  3     4.500     36
            0  0  0  3     2.800     37
            0  0  0  3     1.800     38
            1  0  0  2     3.250     39
            0  1  0  2     3.250     40
            0  0  1  2     3.250     41
            1  0  0  2     1.950     42
            0  1  0  2     1.950     43
            0  0  1  2     1.950     44
            1  0  0  2     1.200     45
            0  1  0  2     1.200     46
            0  0  1  2     1.200     47
            2  0  0  1     1.800     48
            1  1  0  1     1.800     49
            1  0  1  1     1.800     50
            0  2  0  1     1.800     51
            0  1  1  1     1.800     52
            0  0  2  1     1.800     53
            3  0  0  0     1.800     54
            2  1  0  0     1.800     55
            2  0  1  0     1.800     56
            1  2  0  0     1.800     57
            1  1  1  0     1.800     58
            1  0  2  0     1.800     59
            0  3  0  0     1.800     60
            0  2  1  0     1.800     61
            0  1  2  0     1.800     62
            0  0  3  0     1.800     63

 H                                    2
                                  ---------------------------------------------------------------------------
            0  0  0  0     0.690     64
            0  0  0  0     0.920     65
            0  0  0  0     1.580     66
            1  0  0  0     1.250     67
            0  1  0  0     1.250     68
            0  0  1  0     1.250     69
            2  0  0  0     2.500     70
            1  1  0  0     2.500     71
            1  0  1  0     2.500     72
            0  2  0  0     2.500     73
            0  1  1  0     2.500     74
            0  0  2  0     2.500     75

 F                                    3
                                  ---------------------------------------------------------------------------
            0  0  0  0    10.880     76
            0  0  0  0     7.700     77
            0  0  0  1     3.240     78
            0  0  0  1     1.940     79
            0  0  0  1     0.740     80
            1  0  0  0     4.540     81
            0  1  0  0     4.540     82
            0  0  1  0     4.540     83
            1  0  0  0     2.300     84
            0  1  0  0     2.300     85
            0  0  1  0     2.300     86
            1  0  0  0     1.240     87
            0  1  0  0     1.240     88
            0  0  1  0     1.240     89
            2  0  0  0     2.000     90
            1  1  0  0     2.000     91
            1  0  1  0     2.000     92
            0  2  0  0     2.000     93
            0  1  1  0     2.000     94
            0  0  2  0     2.000     95
            3  0  0  0     3.000     96
            2  1  0  0     3.000     97
            2  0  1  0     3.000     98
            1  2  0  0     3.000     99
            1  1  1  0     3.000    100
            1  0  2  0     3.000    101
            0  3  0  0     3.000    102
            0  2  1  0     3.000    103
            0  1  2  0     3.000    104
            0  0  3  0     3.000    105

 Total number of charge fitting functions (nprimf)       305
 Total number of Cartesian basis functions (naos)        105
 Total number of Cartesian core functions  (ncos)          0

1
 ***************************************************************************************************



                                              ***********************
                                              *  T E C H N I C A L  *
                                              ***********************
  



 =============================================================
 P A R A L L E L I Z A T I O N  and  V E C T O R I Z A T I O N
 =============================================================
  
 Nr of parallel processes:                               12
 Maximum vector length in NumInt loops:                 128

 IO buffersize (Mb):                                     64.000000



 =====================
 S C F   U P D A T E S
 =====================
  
 Max. nr. of cycles:                               250
 Convergence criterion:                              0.0000010000
   secondary criterion:                              0.0010000000

 Mix parameter (when DIIS does not apply):           0.2000000000
 Mixed ADIIS+DIIS will be used
    Max number of expansion vectors:                10
    Pure ADIIS when Max([F,P]) is above              0.1000000000
    Pure DIIS when Max([F,P]) is below               0.0010000000
 Automatic ElectronSmearing (in case of problematic SCF convergence) disabled



 =================
 P R E C I S I O N  ***  (General: NumInt, NeglectFunctionTails, ...)  ***
 =================
  

 NumInt:           Target precision:                 6.0000000000
 -------           Initial precision:                6.0000000000
                   Min. precision (optimization):    6.0000000000

 Neglect Functions:          Basis functions:        0.1000000000E-07
 ------------------          Fit functions:          0.1000000000E-07



 ===========================
 L I N E A R   S C A L I N G
 ===========================
  

 Cut-off radii density fit:                        0.1000000000E-09
 Overlap cut-off criterion AO matrix elements:     0.1000000000E-07
 Cut-offs for Coulomb potential and fitted density:0.1000000000E-09
 Cut-off criterion for Coulomb multipole terms:    0.1000000000E-09
 Progressive Convergence parameter:                 0.000000000    
1
 ***************************************************************************************************



                                            ***************************
                                            *  C O M P U T A T I O N  *
                                            ***************************
  

 Number of elements of the density matrix on this node (used, total):      2016      5565



 ===========================================
 Numerical Integration : Fuzzy Cells (Becke)
 ===========================================
  
 Becke grid quality: GOOD           
  
 Lebedev angular grid order:             min:  11 max:  31
 Nr. of radial points:                   min:  54 max:  90

 Total nr. of points:      45221
 Nr. of blocks:              354
 Block length:               128
 Nr. of dummy points:         91


 Test of Precision of the Numerical Integration Grid
 ===================================================

 Integral of the Total Core Density:                   0.00000000000000



 ========================
 Density Fitting (zlmFit)
 ========================
  
 ZlmFit Fit Quality: NORMAL         
  
 Max L-expansion:                        min:   6 max:   7
 Nr. of radial interpolation points:     min:  39 max:  72



 =====
 S C F  ***  ScaSCF  ***
 =====
  
 Initial density matrix is calculated as sum of fragments

 CYCLE    1
 SCF Error: norm([F,P])=      1.548388340132, max([F,P])=      1.297512896183
 orbitals (Q,E):
 ---------------
 A :14...33          ( 2.00    -2.3342)  ( 2.00    -2.3342)  ( 2.00    -0.7160)  ( 2.00    -0.5352)
                     ( 2.00    -0.1589)  ( 2.00    -0.1123)  ( 2.00    -0.1123)  ( 2.00    -0.0868)
                     ( 2.00     0.0041)  ( 2.00     0.0041)  ( 0.00     0.1940)  ( 0.00     0.2481)
                     ( 0.00     0.2943)  ( 0.00     0.2943)  ( 0.00     0.3367)  ( 0.00     0.3684)
                     ( 0.00     0.4133)  ( 0.00     0.4133)  ( 0.00     0.4319)  ( 0.00     0.4319)

 CYCLE    2
  SDIIS (wt  0.000):  0.1027  0.8973
 A-DIIS (wt  1.000):  0.9208  0.0792
  DIIS coefficients:  0.9208  0.0792
 SCF Error: norm([F,P])=      0.504264532935, max([F,P])=      0.140597831013
 orbitals (Q,E):
 ---------------
 A :14...24          ( 2.00    -2.3111)  ( 2.00    -2.3111)  ( 2.00    -0.7411)  ( 2.00    -0.5187)
                     ( 2.00    -0.1656)  ( 2.00    -0.0988)  ( 2.00    -0.0988)  ( 2.00    -0.0897)
                     ( 2.00    -0.0196)  ( 2.00    -0.0196)  ( 0.00     0.1982)

 CYCLE    3
  SDIIS (wt  0.000):  0.0312 -2.0000  2.9688
 A-DIIS (wt  1.000):  0.9099  0.0000  0.0901
  DIIS coefficients:  0.9099  0.0000  0.0901
 SCF Error: norm([F,P])=      0.391243322810, max([F,P])=      0.101893376444
 orbitals (Q,E):
 ---------------
 A :14...24          ( 2.00    -2.3108)  ( 2.00    -2.3108)  ( 2.00    -0.7413)  ( 2.00    -0.5180)
                     ( 2.00    -0.1657)  ( 2.00    -0.0982)  ( 2.00    -0.0982)  ( 2.00    -0.0893)
                     ( 2.00    -0.0198)  ( 2.00    -0.0198)  ( 0.00     0.1984)

 CYCLE    4
  SDIIS (wt  0.000): -2.0000  0.0162  2.9838
 A-DIIS (wt  1.000):  0.0000  0.0000  1.0000
  DIIS coefficients:  0.0000  0.0000  1.0000
 SCF Error: norm([F,P])=      0.394557292058, max([F,P])=      0.104518805501
 orbitals (Q,E):
 ---------------
 A :14...24          ( 2.00    -2.0741)  ( 2.00    -2.0741)  ( 2.00    -1.0007)  ( 2.00    -0.3976)
                     ( 2.00    -0.3466)  ( 2.00    -0.2695)  ( 2.00    -0.2695)  ( 2.00     0.0100)
                     ( 2.00     0.0355)  ( 2.00     0.0355)  ( 0.00     0.1615)

 CYCLE    5
  SDIIS (wt  0.000): -0.8067 -1.4321  3.0000  0.2388
 A-DIIS (wt  1.000):  0.0000  0.0000  0.7142  0.2858
  DIIS coefficients:  0.0000  0.0000  0.7142  0.2858
 SCF Error: norm([F,P])=      0.864335783426, max([F,P])=      0.239554178404
 orbitals (Q,E):
 ---------------
 A :14...24          ( 2.00    -2.1978)  ( 2.00    -2.1978)  ( 2.00    -0.8954)  ( 2.00    -0.4207)
                     ( 2.00    -0.2927)  ( 2.00    -0.1678)  ( 2.00    -0.1678)  ( 2.00    -0.0288)
                     ( 2.00    -0.0141)  ( 2.00    -0.0141)  ( 0.00     0.1762)

 CYCLE    6
  SDIIS (wt  0.701): -0.4995 -1.0223  1.8268 -0.0167  0.7117
 A-DIIS (wt  0.299):  0.0000  0.0000  0.0062  0.0000  0.9938
  DIIS coefficients: -0.3501 -0.7165  1.2822 -0.0117  0.7961
 SCF Error: norm([F,P])=      0.120628527679, max([F,P])=      0.030611676281
 orbitals (Q,E):
 ---------------
 A :14...24          ( 2.00    -2.2323)  ( 2.00    -2.2323)  ( 2.00    -0.8684)  ( 2.00    -0.4434)
                     ( 2.00    -0.2687)  ( 2.00    -0.1420)  ( 2.00    -0.1420)  ( 2.00    -0.0460)
                     ( 2.00    -0.0329)  ( 2.00    -0.0329)  ( 0.00     0.1823)

 CYCLE    7
  SDIIS (wt  0.867): -0.3294 -1.1596  1.5938  0.0178  0.2555  0.6219
 A-DIIS (wt  0.133):  0.0000  0.0000  0.0000  0.0000  0.1455  0.8545
  DIIS coefficients: -0.2855 -1.0050  1.3814  0.0154  0.2408  0.6529
 SCF Error: norm([F,P])=      0.058623982955, max([F,P])=      0.014198132626
 orbitals (Q,E):
 ---------------
 A :14...24          ( 2.00    -2.2227)  ( 2.00    -2.2227)  ( 2.00    -0.8764)  ( 2.00    -0.4385)
                     ( 2.00    -0.2755)  ( 2.00    -0.1497)  ( 2.00    -0.1497)  ( 2.00    -0.0428)
                     ( 2.00    -0.0290)  ( 2.00    -0.0289)  ( 0.00     0.1808)

 CYCLE    8
  SDIIS (wt  0.991): -0.0852 -0.3677  0.4768  0.0053  0.0654  0.2531  0.6523
 A-DIIS (wt  0.009):  0.0000  0.0000  0.0000  0.0000  0.0000  0.0000  1.0000
  DIIS coefficients: -0.0844 -0.3644  0.4725  0.0053  0.0648  0.2509  0.6554
 SCF Error: norm([F,P])=      0.007210595406, max([F,P])=      0.001886050219
 orbitals (Q,E):
 ---------------
 A :14...24          ( 2.00    -2.2223)  ( 2.00    -2.2223)  ( 2.00    -0.8750)  ( 2.00    -0.4382)
                     ( 2.00    -0.2743)  ( 2.00    -0.1484)  ( 2.00    -0.1484)  ( 2.00    -0.0425)
                     ( 2.00    -0.0287)  ( 2.00    -0.0287)  ( 0.00     0.1812)

 CYCLE    9
  SDIIS (wt  1.000):  0.0076  0.1247 -0.1333 -0.0017  0.0188  0.0341  0.2436  0.7062
  DIIS coefficients:  0.0076  0.1247 -0.1333 -0.0017  0.0188  0.0341  0.2436  0.7062
 SCF Error: norm([F,P])=      0.001475598979, max([F,P])=      0.000350914593
 orbitals (Q,E):
 ---------------
 A :14...24          ( 2.00    -2.2227)  ( 2.00    -2.2226)  ( 2.00    -0.8753)  ( 2.00    -0.4383)
                     ( 2.00    -0.2746)  ( 2.00    -0.1487)  ( 2.00    -0.1487)  ( 2.00    -0.0426)
                     ( 2.00    -0.0289)  ( 2.00    -0.0289)  ( 0.00     0.1812)

 CYCLE   10
  SDIIS (wt  1.000):  0.0026  0.0285 -0.0315 -0.0006  0.0035  0.0049  0.0655  0.1917  0.7354
  DIIS coefficients:  0.0026  0.0285 -0.0315 -0.0006  0.0035  0.0049  0.0655  0.1917  0.7354
 SCF Error: norm([F,P])=      0.000176214544, max([F,P])=      0.000044431602
 orbitals (Q,E):
 ---------------
 A :14...24          ( 2.00    -2.2227)  ( 2.00    -2.2227)  ( 2.00    -0.8753)  ( 2.00    -0.4384)
                     ( 2.00    -0.2746)  ( 2.00    -0.1486)  ( 2.00    -0.1486)  ( 2.00    -0.0427)
                     ( 2.00    -0.0289)  ( 2.00    -0.0289)  ( 0.00     0.1811)

 CYCLE   11
  SDIIS (wt  1.000): -0.0001 -0.0035  0.0036 -0.0000 -0.0001  0.0002  0.0056  0.0155  0.1144  0.8643
  DIIS coefficients: -0.0001 -0.0035  0.0036 -0.0000 -0.0001  0.0002  0.0056  0.0155  0.1144  0.8643
 SCF Error: norm([F,P])=      0.000039277958, max([F,P])=      0.000012955497
 orbitals (Q,E):
 ---------------
 A :14...24          ( 2.00    -2.2227)  ( 2.00    -2.2227)  ( 2.00    -0.8753)  ( 2.00    -0.4384)
                     ( 2.00    -0.2746)  ( 2.00    -0.1486)  ( 2.00    -0.1486)  ( 2.00    -0.0427)
                     ( 2.00    -0.0289)  ( 2.00    -0.0289)  ( 0.00     0.1812)

 CYCLE   12
  SDIIS (wt  1.000): -0.0004  0.0004 -0.0000 -0.0000 -0.0000  0.0003  0.0009  0.0081  0.0743  0.9164
  DIIS coefficients: -0.0004  0.0004 -0.0000 -0.0000 -0.0000  0.0003  0.0009  0.0081  0.0743  0.9164
 SCF Error: norm([F,P])=      0.000001363112, max([F,P])=      0.000000360270
 orbitals (Q,E):
 ---------------
 A :14...24          ( 2.00    -2.2227)  ( 2.00    -2.2227)  ( 2.00    -0.8753)  ( 2.00    -0.4384)
                     ( 2.00    -0.2746)  ( 2.00    -0.1486)  ( 2.00    -0.1486)  ( 2.00    -0.0427)
                     ( 2.00    -0.0289)  ( 2.00    -0.0289)  ( 0.00     0.1812)

 SCF CONVERGED

 CYCLE   13
1
 ***************************************************************************************************



                                                *******************
                                                *  R E S U L T S  *
                                                *******************
  
 *** Setting up for NEW gradients in Focky
 *** Using FIT density in Focky

 Orbital Energies, per Irrep and Spin:
 ======================================
                        Occup              E (au)              E (eV)       Diff (eV) with prev. cycle
                        -----      --------------------        ------       --------------------------
 A
              14        2.000     -0.22226725199701E+01       -60.482               1.12E-06
              15        2.000     -0.22226698193472E+01       -60.482               1.12E-06
              16        2.000     -0.87530835747002E+00       -23.818              -8.38E-07
              17        2.000     -0.43835808318902E+00       -11.928               1.01E-06
              18        2.000     -0.27456315875646E+00        -7.471              -4.53E-07
              19        2.000     -0.14864153798408E+00        -4.045              -8.68E-07
              20        2.000     -0.14863412748975E+00        -4.045              -8.68E-07
              21        2.000     -0.42653364254391E-01        -1.161               7.03E-07
              22        2.000     -0.28887280965290E-01        -0.786               9.71E-07
              23        2.000     -0.28881194845508E-01        -0.786               9.70E-07
              24        0.000      0.18115065860567E+00         4.929
              25        0.000      0.23446483812845E+00         6.380
              26        0.000      0.32864593997228E+00         8.943
              27        0.000      0.32868259610070E+00         8.944
              28        0.000      0.33690799711432E+00         9.168
              29        0.000      0.35368082191455E+00         9.624
              30        0.000      0.46434158462276E+00        12.635
              31        0.000      0.46435774228905E+00        12.636
              32        0.000      0.50610269603202E+00        13.772
              33        0.000      0.50610503193700E+00        13.772
  
 HOMO :       23 A                -0.28881194845508E-01
 LUMO :       24 A                 0.18115065860567E+00
  


 All Electron Calculation, thus no Orbital Energies of the Core Orbitals are calculated


 Fit test: (difference of exact and fit density, squared integrated, result summed over spins)
         Sum-of-Fragments:                             0.00078396002950
         Orthogonalized Fragments:                     0.00079192404340
         SCF:                                          0.00079919300486



 ==========================
 Electron Density at Nuclei
 ==========================
  
 The electron density is calculated at points on a small sphere around the center of a nucleus.
 The printed electron density is the average electron density on these points.
 The radius of the sphere is the printed approximate finite nuclear radius.

         Atom        Nuclear Radius (Angstrom)             Electron Density (a.u.)
         ----        -------------------------             -----------------------
     1)   Br                0.0000536685                            29312.44484
     2)   H                 0.0000181514                                0.38563
     3)   F                 0.0000361580                              447.13343



 =======================================
 M U L L I K E N   P O P U L A T I O N S
 =======================================
  
 The survey below gives for each atom:
 a) the total charge (Z minus electrons)
 b) the net spin polarization (nr of electrons spin-A minus spin-B)
 c) for each spin the atomic electron valence density (integrated) per L-value.

 Atom              Charge    Spin density          S         P         D         F
 ----              ------    ------------       ------    ------    ------    ------
 1 Br             -0.8747                       7.9893   17.8739   10.0092    0.0023
 2 H               0.4491                       0.3821    0.1596    0.0092    0.0000
 3 F              -0.5744                       3.9610    5.5932    0.0179    0.0022

 Populations of individual BAS functions
 ----------------------------------------
 1 Br           0.3611  1.5681  2.0732  0.7130  0.7131  0.7131  1.2650  1.2649  1.2649  1.4351
                0.6005  1.1361  1.1375  1.1368  0.8919  0.8902  0.8910  0.2677  0.4014  0.4015
                0.2676  0.4015  0.2676  0.7759  1.1649  1.1647  0.7772  1.1650  0.7766  0.2899
                0.4335  0.4337  0.2882  0.4334  0.2889  0.2641  1.1821  0.5051  0.5822  0.6069
                0.5956  0.9331  0.9436  0.9389  0.4004  0.4359  0.4198  0.0057  0.0009  0.0054
               -0.0025  0.0005  0.0001  0.0046  0.0033  0.0051 -0.0041  0.0002  0.0001 -0.0039
               -0.0026  0.0008 -0.0012
 2 H           -0.2073  0.2086  0.3808  0.0705  0.0370  0.0522  0.0062  0.0019  0.0027 -0.0035
                0.0009  0.0009
 3 F            0.5761  1.4004  1.0772  0.8645  0.0428  0.3569  0.4029  0.3820  0.9272  0.9990
                0.9664  0.4814  0.5555  0.5219  0.0124  0.0016  0.0097 -0.0065  0.0008  0.0000
                0.0063  0.0045  0.0069 -0.0060  0.0002  0.0003 -0.0053 -0.0037  0.0010 -0.0020

 Gross Charges per Atom (Z minus electrons)
 ==========================================
            -0.8747    0.4491   -0.5744
 Net Total: -1.00000000


 Atom-Atom Population Matrix (off-diagonal elements not doubled)
 ===============================================================

     1 :    35.8057
     2 :     0.0654    0.1903
     3 :     0.0035    0.2952    9.2756


 Frag-Frag Population Matrix (off-diagonal elements not doubled)
 ===============================================================

     1 :    36.1269
     2 :     0.2988    9.2756



 =================================================
 H I R S H F E L D   C H A R G E   A N A L Y S I S
 =================================================
  
 For each fragment: the (numerical) integral of rho(scf) * rho(fragment)/rho(sum-of-fragments)
 (nuclear charges are included, electrons are counted negative)

 The fragments and their ordering are defined in the early G E O M E T R Y output section.
 If you use single-atom fragments, this usually implies that all atoms of the same
 chemical type are grouped together. This may not be the order in which you listed them
 in the input file!

    1  BrH                      -0.4426
    2  F                        -0.5574

 Sum of these charges (accuracy NumInt/Tails) =          -0.99999965



 =============================
 V O R O N O I   C H A R G E S
 =============================
  
 For each atom: the (numerical) integral of the total electronic charge density in its Voronoi cell,
 i.e. the region of space that is closer to that atom than to any other atom.
 (cf. Wigner-Seitz cells in crystals)

 Within the Voronoi cell the subintegrals over the atomic sphere and the remaining part are evaluated
 separately to give the numbers of electrons (negative charge) in these regions.
 The net total charge in the cell (including the nuclear charge) is also given.

 Values are provided for
    a) the Initial (sum-of-fragments) density
    b) the Orthogonalized-Fragments density
    c) the SCF density
    d) the Voronoi Deformation Density (VDD): the difference SCF-Initial for the complete atomic cell
 ---------------------------------------------------------------------------------------------------
 Total NetCharge:              -1.000                     -1.000                     -1.000    0.000
 (accuracy NumInt/Tails)

 Remark: the 'NetTotal' Voronoi charges often do not match the Mulliken and/or Hirshfeld charges very
 well. This is caused by the fact that chemically different atoms are not treated in accordance with
 their relative sizes. (Voronoi cells are defined by boundary planes halfway between the atoms.)
 However, the CHANGES in charge, comparing 'Initial' to 'SCF' for instance, do give a fair indication
 of the flow of charge caused by the relaxation from sum-of-fragments to self-consistency.

 Warning: the absolute accuracy of the VDD charges obtained using the Fuzzy Cells (Becke) integration
 scheme is much poorer than the one obtained with an 'equivalent' Voronoi integration grid. 



 =================================================================
 M U L T I P O L E   D E R I V E D   C H A R G E   A N A L Y S I S
 =================================================================

 This charge analysis uses the atomic multipoles (obtained from the fitted density) up to some level X,
 and reconstructs these multipoles exactly (up to level X) by distributing charges over all atoms.
 This is achieved by using Lagrange multipliers and a weight function to keep the multipoles local.

 Dummy atoms can be included (by setting INCDUM in MDC-block to 1) to obtain a fractional charge.
 This is generally useful and necessary only for small symmetrical molecules, when there are not
 enough degrees of freedom to reconstruct the multipoles.

 Since the atomic multipoles are reconstructed up to level X,
 the molecular multipoles are represented also up to level X.
 The recommended level is to reconstruct up to quadrupole : -> MDC-q charges.

 See: M. Swart, P.Th. van Duijnen, J.G. Snijders, J.Comput.Chem., (2001), p. 79-88.

 ------------------------------------------------------------- 
 Atomic electronic multipole moments from SCF equations (a.u.)
 ------------------------------------------------------------- 

   atom        charge        dip-x     dip-y     dip-z      quad-xx   quad-xy   quad-xz   quad-yy   quad-yz   quad-zz
 --------------------------------------------------------------------------------------------------------------------
    1 Br    -0.553854     0.634003  0.121914  0.436452     1.045876  0.270211  0.967223 -0.983537  0.185909 -0.062338
    2 H     -0.064194     0.223536  0.042997  0.153925     0.012729  0.003561  0.011458 -0.012288  0.002080 -0.000441
    3 F     -0.381952    -0.119793 -0.023012 -0.082482     0.241019  0.062168  0.223011 -0.226773  0.042901 -0.014246

 --------------------------------------- 
 Multipole derived atomic charges (a.u.)
 --------------------------------------- 

 The MDC-m charges are just the Monopole terms in the multipole expansion, while for the MDC-d charges
 also the Dipoles are reconstructed. The usually preferred charges are the MDC-q charges.
 These reconstruct the Monopoles, Dipoles and Quadrupoles (both atomic AND molecular).

        Atom    Level:     MDC-m        MDC-d        MDC-q
 ---------------------------------------------------------
     1     Br          -0.553854    -0.737672    -0.866979
     2     H           -0.064194     0.023686     0.425969
     3     F           -0.381952    -0.286014    -0.558990

 ------------------------------------------------ 
 Average absolute deviations in atomic multipoles
 ------------------------------------------------ 

 Stated here are the average differences between the atomic multipoles
 and the reconstructed atomic multipoles (from the distributed charges).
 If these values are not zero, this means there are not enough degrees of freedom,
 to be able to reconstruct the atomic multipoles. (This usually happens only
 for small and/or highly symmetric molecules). If this is the case, one could add
 dummy atoms as extra point charges (and setting INCDUM in MDC-block to 1).

 Level:                                 MDC-d        MDC-q
 ---------------------------------------------------------
 Charge   (a.u.)                       0.0000       0.0000
 Dipole   (Debye)                      0.0001       0.0001
 Quad.    (a.u.)                       0.2906       0.0966

 --------------------------------------- 
 Represented molecular multipole moments
 --------------------------------------- 

 Given here are the Molecular multipole moments from the atomic charges, and from the Fit Density.
 Note that the atomic charges represent the latter, NOT the ones from the Exact density.

            Q (a.u.)             Dipole moment (Debye)                                          Quadrupole moment (a.u.)
                                 x         y         z              xx        xy        xz        yy        yz        zz
------------------------------------------------------------------------------------------------------------------------
MDC-m        -1.0000       14.2324   -1.5112   -2.3945        -34.5909    3.4994    2.5604   19.3950   -1.8693   15.1959
MDC-d        -1.0000       16.1074   -1.1507   -1.1034        -43.3481    2.9919   -0.5707   23.1528   -1.1979   20.1954
MDC-q        -1.0000       16.1074   -1.1507   -1.1034        -44.8169    2.4229   -2.6085   24.5341   -1.5898   20.2828
 
Fit.Dens.    -1.0000       16.1076   -1.1506   -1.1036        -44.1074    2.5301   -2.2236   23.8661   -1.5160   20.2413



 =============
 Dipole Moment  ***  (Debye)  ***
 =============
  
 Vector   :        16.12117961     -1.14800770     -1.09413546
 Magnitude:        16.19899645

 This molecular dipole moment is calculated with analytic integration
 ************************************************************************************
 Since the molecule is NOT NEUTRAL, the dipole moment depends on the choice of origin
 ************************************************************************************



 =========================================
 Quadrupole Moment (Buckingham convention)  ***  (a.u.)  ***
 =========================================
  
      quad-xx        quad-xy        quad-xz        quad-yy        quad-yz        quad-zz
    -44.17488115     2.69268499    -1.65066502    23.89731687    -1.39646292    20.27756428

 This molecular quadrupole moment is calculated with analytic integration
1



                                             *************************
                                             *  SFO MO coefficients  *
                                             *************************
  


                                       === A ===
 MOs expanded in CFs+SFOs
 ========================

 The SFOs have been characterized in an earlier part of output.
 To deduce the bonding / antibonding nature of SFO combinations in an MO, consider the products
 of the coefficients AND THE OVERLAP between the SFOs (may be NEGATIVE). The SFO overlap matrix
 is printed later, in the SFO Populations section.

 (The CF coefficients are not printed)

 MOs :      1        2        3        4        5        6        7        8        9       10
 occup:   2.00     2.00     2.00     2.00     2.00     2.00     2.00     2.00     2.00     2.00
 CF+SFO
     1   1.0000   0.0000  -0.0000   0.0000  -0.0000  -0.0000   0.0000   0.0000   0.0000   0.0000
     2  -0.0000   1.0000  -0.0005   0.0000  -0.0000  -0.0000  -0.0002  -0.0000  -0.0000  -0.0000
     3   0.0000   0.0005   1.0000  -0.0002   0.0004   0.0000   0.0000  -0.0000  -0.0000   0.0000
     4   0.0000   0.0000  -0.0001  -0.9961  -0.0881  -0.0000   0.0000  -0.0000   0.0000  -0.0000
     5   0.0000   0.0000  -0.0004  -0.0881   0.9961  -0.0000   0.0000   0.0000  -0.0000  -0.0000
     6   0.0000  -0.0001   0.0000  -0.0000   0.0000  -0.0000  -1.0003  -0.0024  -0.0000  -0.0000
     7   0.0000  -0.0000  -0.0000   0.0000   0.0000  -0.0000   0.0023  -1.0000  -0.0005  -0.0003
     8  -0.0000   0.0000  -0.0000   0.0000   0.0000  -0.0000  -0.0000  -0.0005   0.3805   0.9248
     9   0.0000  -0.0000   0.0000   0.0000  -0.0000   0.0000   0.0000  -0.0004   0.9248  -0.3805
    10   0.0000   0.0000  -0.0000   0.0000  -0.0000   0.0000  -0.0017  -0.0010  -0.0000  -0.0000
    11  -0.0000   0.0000  -0.0000   0.0000   0.0000  -0.0000   0.0000  -0.0000   0.0010  -0.0001
    12   0.0000   0.0000   0.0000   0.0000  -0.0000  -0.0000  -0.0000   0.0000  -0.0001  -0.0010
    13   0.0000   0.0000  -0.0000  -0.0000  -0.0000  -0.0000  -0.0000  -0.0000  -0.0000  -0.0000
    14  -0.0000  -0.0000   0.0000   0.0000  -0.0000  -0.0000   0.0000  -0.0000   0.0000  -0.0000
    15  -0.0000  -0.0000  -0.0000  -0.0000   0.0000   0.0002   0.0020  -0.0000   0.0000  -0.0000
    16  -0.0000  -0.0000  -0.0000  -0.0000  -0.0000   0.0011   0.0053  -0.0003  -0.0000  -0.0000
    17   0.0000   0.0000   0.0000   0.0000   0.0000  -0.0000  -0.0000  -0.0000   0.0001   0.0000
    18  -0.0000  -0.0000   0.0000   0.0000  -0.0000   0.0000   0.0000   0.0000   0.0000  -0.0001
    19  -0.0000  -0.0000  -0.0000  -0.0000  -0.0000   0.0014   0.0052   0.0003   0.0000   0.0000
    20   0.0000   0.0000   0.0000   0.0000   0.0000  -0.0001  -0.0073   0.0002  -0.0000   0.0000
    21   0.0000   0.0000   0.0000   0.0000   0.0000  -0.0002  -0.0015  -0.0001  -0.0000  -0.0000
    22   0.0000   0.0000  -0.0000  -0.0000   0.0000  -0.0000  -0.0000  -0.0000   0.0000   0.0000
    23  -0.0000  -0.0000  -0.0000  -0.0000  -0.0000  -0.0000   0.0000  -0.0000  -0.0000   0.0000
    24   0.0000   0.0000   0.0000  -0.0000   0.0000  -0.0000  -0.0000   0.0000   0.0000  -0.0000
    25  -0.0000  -0.0000  -0.0000   0.0000   0.0000   0.0000   0.0000  -0.0000  -0.0000  -0.0000
    26  -0.0000  -0.0000   0.0000  -0.0000   0.0000  -0.0000   0.0000   0.0000  -0.0000   0.0000
    27  -0.0000  -0.0000   0.0000  -0.0000  -0.0000   0.0000   0.0000  -0.0000  -0.0000   0.0000
    28  -0.0000  -0.0000   0.0000  -0.0000   0.0000   0.0000   0.0016   0.0000   0.0000  -0.0000
    29   0.0000  -0.0000  -0.0000   0.0000  -0.0000   0.0007  -0.0004  -0.0000  -0.0000  -0.0000
    30   0.0000   0.0000   0.0000  -0.0000  -0.0000  -0.0000  -0.0000   0.0000  -0.0001  -0.0001
    31   0.0000   0.0000  -0.0000  -0.0000   0.0000   0.0000  -0.0000   0.0000  -0.0001   0.0001
    32   0.0000   0.0000   0.0000   0.0000   0.0000   0.0006  -0.0004   0.0001   0.0000   0.0000
    33   0.0000   0.0000  -0.0000   0.0000  -0.0000  -0.0000  -0.0000  -0.0000   0.0000   0.0000
    34  -0.0000  -0.0000   0.0000   0.0000   0.0000   0.0000  -0.0000   0.0000  -0.0000   0.0000
    35   0.0000  -0.0000   0.0000   0.0000   0.0000  -0.0000  -0.0000  -0.0000   0.0000  -0.0000
    36  -0.0000  -0.0000   0.0000  -0.0000  -0.0000  -0.0000  -0.0000   0.0000  -0.0000  -0.0000
    37   0.0000   0.0000  -0.0000  -0.0000   0.0000  -0.0000   0.0000  -0.0000   0.0001  -0.0001
    38   0.0000   0.0000   0.0000  -0.0000  -0.0000   0.0000  -0.0000  -0.0000   0.0001   0.0001
    39  -0.0000  -0.0000   0.0000   0.0000   0.0000   0.0002   0.0002  -0.0004  -0.0000  -0.0000
    40   0.0000  -0.0000   0.0000  -0.0000  -0.0000   0.0000  -0.0000   0.0000  -0.0001  -0.0002
    41  -0.0000   0.0000  -0.0000  -0.0000   0.0000   0.0000  -0.0000   0.0000  -0.0002   0.0001
    42  -0.0000  -0.0000   0.0000   0.0000   0.0000   0.0003   0.0004   0.0004   0.0000   0.0000
    43   0.0000  -0.0000   0.0000   0.0000   0.0000   0.0000  -0.0009   0.0002   0.0000   0.0000
    44   0.0000  -0.0000   0.0000  -0.0000   0.0000  -0.0000  -0.0007  -0.0000  -0.0000  -0.0000
    45   0.0000  -0.0000   0.0000  -0.0000   0.0000   0.0000  -0.0000  -0.0000  -0.0000  -0.0000
    46  -0.0000   0.0000  -0.0000  -0.0000   0.0000  -0.0000   0.0000   0.0000   0.0000  -0.0000
    47   0.0000   0.0000   0.0000  -0.0000  -0.0000   0.0000   0.0000  -0.0000   0.0000   0.0000
    48  -0.0000   0.0000  -0.0000  -0.0000   0.0000   0.0000   0.0000   0.0000   0.0000  -0.0000
    49  -0.0000   0.0000   0.0000  -0.0000  -0.0000  -0.0000  -0.0000  -0.0000   0.0000   0.0000
    50   0.0000  -0.0000  -0.0000   0.0000  -0.0000   0.0000  -0.0000   0.0000   0.0000   0.0000
    51  -0.0000  -0.0000   0.0000  -0.0000   0.0000  -0.0001   0.0006   0.0000  -0.0000  -0.0000
    52  -0.0000  -0.0000   0.0000   0.0000   0.0000  -0.0000   0.0000  -0.0000   0.0000   0.0000
    53   0.0000   0.0000   0.0000   0.0000  -0.0000   0.0000  -0.0000  -0.0000   0.0000  -0.0000
    54  -0.0000   0.0000  -0.0000   0.0000  -0.0000  -0.0001   0.0003  -0.0000   0.0000  -0.0000
    55   0.0000   0.0000   0.0000   0.0000   0.0000  -0.0000  -0.0000  -0.0000   0.0002  -0.0000
    56   0.0000   0.0000   0.0000   0.0000  -0.0000  -0.0000  -0.0000   0.0000  -0.0000  -0.0002
    57  -0.0000   0.0000  -0.0000   0.0000  -0.0000  -0.0000   0.0001   0.0000   0.0000   0.0000
    58  -0.0000   0.0001  -0.0000   0.0000  -0.0000   0.0000  -0.0002   0.0000   0.0000   0.0000
    59  -0.0000  -0.0000  -0.0000   0.0000  -0.0000  -0.0000  -0.0000  -0.0000  -0.0000   0.0000
    60   0.0000   0.0000   0.0000   0.0000  -0.0000   0.0000   0.0000   0.0000  -0.0000   0.0000
    61   0.0000   0.0000   0.0000  -0.0000  -0.0000   0.0000   0.0000  -0.0000   0.0000   0.0001
    62  -0.0000   0.0000   0.0000   0.0000  -0.0000   0.0000  -0.0000   0.0000  -0.0001   0.0000
    63   0.0000   0.0000  -0.0000   0.0000  -0.0000  -0.0000   0.0002   0.0001   0.0000   0.0000
    64   0.0000  -0.0000   0.0000   0.0001  -0.0000  -0.0000  -0.0000   0.0000  -0.0001   0.0000
    65   0.0000  -0.0000   0.0000  -0.0000  -0.0001  -0.0000  -0.0000  -0.0000   0.0000   0.0001
    66   0.0000  -0.0000  -0.0001   0.0000  -0.0000  -0.0000  -0.0000   0.0001   0.0000   0.0000
    67  -0.0001   0.0000  -0.0000   0.0000  -0.0000  -0.0000  -0.0000   0.0000  -0.0000   0.0000
    68  -0.0000  -0.0000  -0.0000  -0.0000  -0.0000  -0.9998   0.0003   0.0000   0.0000   0.0000
    69   0.0000   0.0000   0.0000   0.0000   0.0000  -0.0016  -0.0046  -0.0001  -0.0000   0.0000
    70   0.0000   0.0000   0.0000  -0.0000  -0.0000  -0.0004  -0.0003   0.0000  -0.0000  -0.0000
    71  -0.0000  -0.0000  -0.0000  -0.0000   0.0000   0.0002   0.0002  -0.0000  -0.0001   0.0000
    72   0.0000   0.0000   0.0000  -0.0000   0.0000  -0.0003  -0.0002   0.0000   0.0000   0.0001
    73   0.0000   0.0001   0.0000   0.0000   0.0000  -0.0006  -0.0100   0.0002  -0.0000   0.0000
    74   0.0000   0.0000   0.0000   0.0000  -0.0000  -0.0002  -0.0006   0.0000   0.0001  -0.0000
    75   0.0000   0.0000   0.0000   0.0000   0.0000  -0.0004  -0.0010   0.0001   0.0000   0.0001
    76  -0.0000  -0.0000  -0.0000   0.0000   0.0000   0.0004   0.0012  -0.0001   0.0001   0.0000
    77   0.0000   0.0000  -0.0000   0.0000  -0.0000   0.0002  -0.0003   0.0000   0.0000  -0.0000
    78  -0.0000  -0.0000   0.0000   0.0000  -0.0000  -0.0001   0.0002  -0.0000   0.0000  -0.0000
    79   0.0000   0.0000  -0.0000  -0.0000  -0.0000   0.0001  -0.0001   0.0000  -0.0000  -0.0000
    80  -0.0000  -0.0000   0.0000  -0.0000  -0.0000  -0.0001   0.0003  -0.0000  -0.0000  -0.0000
    81  -0.0000  -0.0000   0.0000   0.0000  -0.0000  -0.0000   0.0000  -0.0000   0.0000  -0.0000
    82   0.0000   0.0000   0.0000  -0.0000   0.0000  -0.0005  -0.0011  -0.0000  -0.0000   0.0000
    83  -0.0000   0.0000  -0.0000   0.0000  -0.0000  -0.0000   0.0000  -0.0000   0.0000  -0.0000
    84   0.0000  -0.0000   0.0000   0.0000   0.0000   0.0000  -0.0000   0.0000   0.0000   0.0000
    85   0.0000  -0.0000   0.0000   0.0000   0.0000   0.0000  -0.0000   0.0000   0.0000   0.0000
    86   0.0000  -0.0000   0.0000  -0.0000  -0.0000   0.0001  -0.0002   0.0000  -0.0000   0.0000
    87   0.0000  -0.0000   0.0000   0.0000  -0.0000   0.0000  -0.0000   0.0000   0.0000  -0.0000
    88   0.0000  -0.0000   0.0000   0.0000   0.0000   0.0000  -0.0001   0.0000   0.0000   0.0000
    89   0.0000  -0.0000   0.0000   0.0000  -0.0000   0.0000  -0.0000   0.0000  -0.0000  -0.0000
    90  -0.0000  -0.0000   0.0000   0.0000  -0.0000  -0.0005   0.0004  -0.0000  -0.0000   0.0000
    91  -0.0000  -0.0000   0.0000   0.0000   0.0000  -0.0004   0.0003  -0.0000  -0.0000  -0.0000
    92   0.0000   0.0000  -0.0000   0.0000   0.0000   0.0001  -0.0001   0.0000  -0.0000   0.0000
    93  -0.0000  -0.0000  -0.0000   0.0000  -0.0000   0.0003   0.0000   0.0000   0.0000  -0.0000

 MOs :     11       12       13       14       15       16       17       18       19       20
 occup:   2.00     2.00     2.00     2.00     2.00     2.00     2.00     2.00     2.00     2.00
 CF+SFO
     1  -0.0000   0.0000  -0.0000   0.0000   0.0000   0.0000  -0.0000  -0.0001   0.0000   0.0000
     2  -0.0001  -0.0000  -0.0000  -0.0000   0.0000   0.0001  -0.0001  -0.0005   0.0000   0.0000
     3   0.0000   0.0000   0.0000   0.0000  -0.0000  -0.0000   0.0000   0.0001  -0.0000  -0.0000
     4  -0.0000   0.0000  -0.0000  -0.0000   0.0000  -0.0000   0.0000   0.0000  -0.0000   0.0000
     5  -0.0000   0.0000   0.0000  -0.0000  -0.0000  -0.0000   0.0000   0.0000   0.0000   0.0000
     6  -0.0017  -0.0000  -0.0000  -0.0000   0.0000   0.0005  -0.0000  -0.0026   0.0000   0.0000
     7  -0.0010  -0.0000  -0.0000  -0.0000  -0.0000   0.0003  -0.0002  -0.0015   0.0000   0.0000
     8  -0.0000  -0.0003   0.0010  -0.0000  -0.0000  -0.0000   0.0000   0.0000   0.0001   0.0003
     9   0.0000  -0.0010  -0.0003   0.0000  -0.0000  -0.0000  -0.0000   0.0000   0.0003  -0.0001
    10   1.0000   0.0004   0.0009   0.0003   0.0000  -0.0005  -0.0017   0.0017  -0.0000  -0.0000
    11  -0.0003   0.9986  -0.0527  -0.0004   0.0004  -0.0000   0.0000   0.0000  -0.0005   0.0000
    12  -0.0009   0.0527   0.9986  -0.0002  -0.0002  -0.0000  -0.0000   0.0000   0.0000   0.0005
    13   0.0003  -0.0005  -0.0002  -1.0000   0.0050   0.0000  -0.0000   0.0000  -0.0000   0.0000
    14  -0.0000  -0.0003   0.0002   0.0050   1.0000   0.0000   0.0000  -0.0000  -0.0000   0.0000
    15  -0.0018  -0.0000  -0.0000  -0.0000   0.0000   0.0194  -0.9933   0.1000  -0.0000  -0.0000
    16   0.0005   0.0000   0.0000  -0.0000  -0.0000   0.0705   0.0052  -0.2754  -0.0000  -0.0000
    17   0.0000   0.0000  -0.0000  -0.0000   0.0000  -0.0000   0.0000   0.0000   0.0375   0.0017
    18   0.0000   0.0000   0.0000  -0.0000  -0.0000   0.0000  -0.0000  -0.0000   0.0017  -0.0375
    19   0.0002  -0.0000   0.0000  -0.0000  -0.0000   0.0721   0.0043  -0.1323  -0.0000  -0.0000
    20  -0.0001   0.0000  -0.0000   0.0000   0.0000   0.0247   0.0059  -0.0743  -0.0000   0.0000
    21   0.0003   0.0000   0.0000   0.0000  -0.0000  -0.0012  -0.0086  -0.0061   0.0000   0.0000
    22  -0.0000   0.0000   0.0001  -0.0000   0.0000   0.0000  -0.0000  -0.0000  -0.0012  -0.0137
    23  -0.0000   0.0001  -0.0000   0.0000   0.0000  -0.0000   0.0000   0.0000   0.0137  -0.0012
    24  -0.0000   0.0003   0.0000  -0.0000   0.0000  -0.0000   0.0000   0.0000   0.0213  -0.0049
    25  -0.0000  -0.0000   0.0003  -0.0000  -0.0000   0.0000   0.0000  -0.0000  -0.0049  -0.0213
    26   0.0000  -0.0000  -0.0000  -0.0005   0.0003  -0.0000   0.0000   0.0000   0.0000  -0.0000
    27  -0.0000  -0.0000   0.0000   0.0003   0.0005  -0.0000   0.0000   0.0000   0.0000   0.0000
    28  -0.0003  -0.0000  -0.0000  -0.0000  -0.0000  -0.0097   0.0211   0.0168   0.0000  -0.0000
    29  -0.0005  -0.0000  -0.0000  -0.0000   0.0000   0.0239   0.0069  -0.0154   0.0000   0.0000
    30   0.0000   0.0000  -0.0000  -0.0000   0.0000   0.0000   0.0000  -0.0000  -0.0216  -0.0096
    31  -0.0000   0.0000   0.0000  -0.0000  -0.0000   0.0000  -0.0000  -0.0000  -0.0097   0.0216
    32   0.0002   0.0000   0.0000   0.0000  -0.0000   0.0058   0.0007   0.0108  -0.0000  -0.0000
    33  -0.0000   0.0000   0.0000   0.0001  -0.0000  -0.0000  -0.0000   0.0000   0.0000  -0.0000
    34   0.0000   0.0000  -0.0000  -0.0000  -0.0001   0.0000  -0.0000   0.0000   0.0000   0.0000
    35  -0.0000  -0.0000   0.0000   0.0000  -0.0000  -0.0000  -0.0000  -0.0000  -0.0000   0.0000
    36   0.0000  -0.0000   0.0000  -0.0000   0.0000  -0.0000   0.0000  -0.0000  -0.0000   0.0000
    37   0.0000  -0.0001  -0.0000   0.0000   0.0000   0.0000  -0.0000  -0.0000  -0.0057   0.0032
    38  -0.0000  -0.0000   0.0001   0.0000  -0.0000  -0.0000   0.0000   0.0000  -0.0032  -0.0057
    39   0.0001   0.0000   0.0000  -0.0000  -0.0000  -0.0027   0.0007   0.0126  -0.0000  -0.0000
    40   0.0000   0.0000  -0.0001   0.0000   0.0000  -0.0000   0.0000   0.0000   0.0000   0.0000
    41  -0.0000   0.0001   0.0000  -0.0000   0.0000  -0.0000  -0.0000  -0.0000   0.0000  -0.0000
    42  -0.0000  -0.0000   0.0000  -0.0000   0.0000  -0.0168   0.0008   0.0325  -0.0000  -0.0000
    43  -0.0002  -0.0000  -0.0000  -0.0000   0.0000   0.0309  -0.0017  -0.0459  -0.0000   0.0000
    44  -0.0008  -0.0000  -0.0000  -0.0000  -0.0000  -0.0009   0.0034   0.0006   0.0000   0.0000
    45  -0.0000   0.0000  -0.0000  -0.0000   0.0000  -0.0000   0.0000   0.0000  -0.0000  -0.0000
    46   0.0000  -0.0000  -0.0000  -0.0000  -0.0000   0.0000  -0.0000  -0.0000   0.0000  -0.0000
    47  -0.0000  -0.0003   0.0003   0.0000  -0.0000  -0.0000  -0.0000  -0.0000   0.0017   0.0014
    48   0.0000  -0.0003  -0.0003   0.0000  -0.0000  -0.0000   0.0000   0.0000   0.0014  -0.0017
    49  -0.0000   0.0000   0.0000   0.0000  -0.0000   0.0000  -0.0000  -0.0000   0.0000  -0.0000
    50   0.0000   0.0000  -0.0000  -0.0000  -0.0000  -0.0000   0.0000   0.0000  -0.0000   0.0000
    51  -0.0002  -0.0000  -0.0000  -0.0000  -0.0000  -0.0022   0.0002   0.0018   0.0000   0.0000
    52   0.0000   0.0003  -0.0003  -0.0000   0.0000  -0.0000  -0.0000   0.0000   0.0009   0.0008
    53  -0.0000   0.0003   0.0003  -0.0000   0.0000   0.0000   0.0000   0.0000   0.0008  -0.0009
    54   0.0004   0.0000   0.0000   0.0000   0.0000   0.0046  -0.0013  -0.0062   0.0000   0.0000
    55  -0.0000   0.0001  -0.0000   0.0000   0.0000   0.0000  -0.0000   0.0000  -0.0000   0.0000
    56  -0.0000   0.0000   0.0001  -0.0000  -0.0000   0.0000  -0.0000  -0.0000   0.0000   0.0000
    57   0.0000  -0.0000   0.0000   0.0000   0.0000  -0.0005  -0.0001   0.0005   0.0000  -0.0000
    58   0.0001  -0.0000   0.0000   0.0000   0.0000   0.0001   0.0001  -0.0001  -0.0000  -0.0000
    59   0.0000   0.0000  -0.0000  -0.0001  -0.0004  -0.0000  -0.0000   0.0000  -0.0000  -0.0000
    60  -0.0000   0.0000   0.0000   0.0004  -0.0001  -0.0000   0.0000  -0.0000   0.0000  -0.0000
    61   0.0000   0.0000  -0.0004   0.0000   0.0000  -0.0000   0.0000  -0.0000  -0.0000  -0.0000
    62   0.0000  -0.0004  -0.0000   0.0000  -0.0000  -0.0000  -0.0000   0.0000   0.0000  -0.0000
    63  -0.0003  -0.0000  -0.0000  -0.0000   0.0000  -0.0002   0.0001   0.0002   0.0000  -0.0000
    64  -0.0000   0.0000   0.0000   0.0000   0.0000   0.0000  -0.0000   0.0000  -0.0000   0.0000
    65  -0.0000  -0.0000   0.0000  -0.0000   0.0000   0.0000  -0.0000  -0.0000   0.0000   0.0000
    66  -0.0000  -0.0000  -0.0000   0.0000   0.0000  -0.0000  -0.0000   0.0000   0.0000  -0.0000
    67  -0.0000   0.0000  -0.0000  -0.0000  -0.0000   0.0000  -0.0000  -0.0000   0.0000   0.0000
    68   0.0000  -0.0000   0.0000  -0.0000  -0.0000   0.0070  -0.0010  -0.0124  -0.0000  -0.0000
    69   0.0000   0.0000   0.0000   0.0000   0.0000   0.9279   0.0529   0.2804   0.0000   0.0000
    70  -0.0000  -0.0000   0.0000   0.0000   0.0000   0.0782  -0.0417  -0.6106   0.4611   0.4536
    71   0.0000  -0.0001  -0.0000   0.0000  -0.0000  -0.0414   0.0221   0.3230   0.8640  -0.2476
    72  -0.0000  -0.0000  -0.0001   0.0000   0.0000   0.0549  -0.0293  -0.4290  -0.0058  -0.8319
    73  -0.0001   0.0000  -0.0000   0.0000   0.0000  -0.0285  -0.0075  -0.0008   0.0000   0.0000
    74  -0.0000   0.0001   0.0000  -0.0000   0.0000  -0.0066   0.0015   0.0247   0.0566  -0.0277
    75  -0.0000   0.0000  -0.0001   0.0000   0.0000  -0.0114   0.0026   0.0423   0.0078   0.0526
    76   0.0000   0.0000  -0.0000  -0.0000  -0.0000   0.0129  -0.0029  -0.0479   0.0360   0.0321
    77   0.0000   0.0000   0.0000   0.0000   0.0000  -0.0122   0.0024   0.0246  -0.0042   0.0054
    78  -0.0000   0.0000   0.0000   0.0000  -0.0000   0.0096  -0.0019  -0.0193  -0.0074   0.0053
    79   0.0000  -0.0000   0.0000   0.0000  -0.0000  -0.0043   0.0008   0.0086   0.0131   0.0067
    80  -0.0000  -0.0000   0.0000  -0.0000   0.0000   0.0113  -0.0022  -0.0228   0.0070   0.0020
    81  -0.0000   0.0000   0.0000  -0.0000  -0.0000   0.0015  -0.0003  -0.0031  -0.0028   0.0140
    82  -0.0000   0.0000   0.0000   0.0000   0.0000  -0.0129  -0.0010   0.0083   0.0000   0.0000
    83  -0.0000   0.0000   0.0000   0.0000   0.0000   0.0010  -0.0002  -0.0019  -0.0015   0.0034
    84  -0.0000   0.0000  -0.0000  -0.0000  -0.0000  -0.0014   0.0002   0.0026  -0.0032  -0.0007
    85  -0.0000   0.0000  -0.0000   0.0000  -0.0000  -0.0000   0.0000   0.0000  -0.0032  -0.0005
    86   0.0000  -0.0000   0.0000   0.0000   0.0000  -0.0047   0.0007   0.0089   0.0016  -0.0000
    87  -0.0000   0.0000   0.0000  -0.0000  -0.0000  -0.0014   0.0002   0.0026  -0.0004   0.0023
    88   0.0000   0.0000  -0.0000  -0.0000   0.0000  -0.0019   0.0003   0.0036  -0.0022  -0.0010
    89  -0.0000   0.0000   0.0000   0.0000  -0.0000  -0.0010   0.0001   0.0018   0.0001   0.0034
    90  -0.0000   0.0000   0.0000  -0.0000  -0.0000   0.0001   0.0000  -0.0007  -0.0001   0.0015
    91  -0.0000   0.0000  -0.0000  -0.0000  -0.0000   0.0001   0.0000  -0.0005  -0.0003  -0.0020
    92   0.0000   0.0000  -0.0000   0.0000  -0.0000  -0.0000  -0.0000   0.0001  -0.0025   0.0002
    93   0.0000  -0.0000   0.0000  -0.0000  -0.0000   0.0006  -0.0000  -0.0006   0.0000  -0.0000

 MOs :     21       22       23       24       25       26       27       28       29       30
 occup:   2.00     2.00     2.00     0.00     0.00     0.00     0.00     0.00     0.00     0.00
 CF+SFO
     1   0.0000   0.0000   0.0000  -0.0013  -0.0031   0.0000   0.0000   0.0007  -0.0012  -0.0000
     2   0.0003   0.0000   0.0000  -0.0092  -0.0211   0.0000   0.0000   0.0047  -0.0080  -0.0000
     3  -0.0000  -0.0000   0.0000   0.0009   0.0019  -0.0000  -0.0000  -0.0003   0.0007   0.0000
     4  -0.0000   0.0000  -0.0000   0.0000   0.0000   0.0000   0.0000  -0.0000   0.0000  -0.0000
     5  -0.0000   0.0000   0.0000   0.0000   0.0000   0.0000  -0.0000  -0.0000   0.0000  -0.0000
     6   0.0015   0.0000   0.0000  -0.0426  -0.0973   0.0000   0.0000   0.0211  -0.0369  -0.0000
     7  -0.0001   0.0000  -0.0000  -0.0149  -0.0325   0.0000   0.0000   0.0055  -0.0126  -0.0000
     8  -0.0000  -0.0000   0.0001   0.0000   0.0000   0.0000  -0.0001   0.0000   0.0000  -0.0000
     9   0.0000  -0.0001  -0.0000   0.0000   0.0000  -0.0001  -0.0000  -0.0000   0.0000   0.0002
    10  -0.0001  -0.0000   0.0000   0.0076   0.0148  -0.0000  -0.0000  -0.0014   0.0066   0.0000
    11  -0.0000   0.0000  -0.0000   0.0000   0.0000   0.0001   0.0000  -0.0000   0.0000  -0.0004
    12  -0.0000   0.0000   0.0000   0.0000   0.0000   0.0000  -0.0001  -0.0000   0.0000  -0.0002
    13  -0.0000  -0.0000   0.0000  -0.0000  -0.0000  -0.0000  -0.0000   0.0000  -0.0000   0.0000
    14   0.0000   0.0000  -0.0000  -0.0000  -0.0000  -0.0000  -0.0000   0.0000  -0.0000   0.0000
    15   0.0104  -0.0000   0.0000   0.3136   0.6883  -0.0001  -0.0001  -0.0868   0.2951   0.0000
    16   0.8513  -0.0000   0.0002   0.6424   1.8838   0.0002   0.0002   0.0817   0.9093   0.0000
    17   0.0001   0.9604  -0.2699   0.0000  -0.0001   0.0611   0.0261  -0.0001  -0.0000  -0.0006
    18  -0.0002   0.2699   0.9604   0.0000   0.0001   0.0261  -0.0611   0.0000   0.0001  -0.0003
    19  -0.4634  -0.0000  -0.0001   0.2880   2.0284   0.0005   0.0005   0.2724   1.2007   0.0001
    20  -0.0198  -0.0000  -0.0000  -0.0130  -2.0927   0.0016   0.0012   1.2068  -0.4242  -0.0000
    21  -0.0468   0.0000  -0.0000  -0.2263   0.0151   0.0007   0.0003   0.5055  -0.9348  -0.0000
    22  -0.0000   0.0088   0.0614   0.0000   0.0000  -0.2634   0.9418  -0.0006  -0.0002   0.0263
    23   0.0000   0.0615  -0.0088  -0.0001   0.0001  -0.9419  -0.2634   0.0015   0.0001   0.0712
    24  -0.0000  -0.0125   0.0000   0.0000  -0.0000   0.1176   0.0158  -0.0002  -0.0000   0.9441
    25   0.0000  -0.0000  -0.0125   0.0000   0.0000   0.0158  -0.1177   0.0001  -0.0000   0.2050
    26   0.0000   0.0000  -0.0000  -0.0000  -0.0000   0.0000  -0.0000   0.0000  -0.0000   0.0000
    27   0.0000  -0.0000  -0.0000  -0.0000   0.0000  -0.0000  -0.0000  -0.0000   0.0000  -0.0000
    28   0.0105   0.0000   0.0000  -0.0018   0.1788   0.0001   0.0001   0.1155   0.0710   0.0000
    29  -0.0456  -0.0000  -0.0000   0.1939  -0.0384  -0.0000  -0.0000  -0.0067  -0.2075   0.0000
    30   0.0000   0.0084  -0.0064  -0.0000   0.0000  -0.0433  -0.0427   0.0001   0.0000   0.0396
    31  -0.0000   0.0064   0.0084   0.0000   0.0000  -0.0427   0.0433   0.0000  -0.0000   0.0458
    32  -0.0032  -0.0000   0.0000   0.1891   0.1575   0.0001   0.0001   0.0240   0.0928   0.0000
    33  -0.0000   0.0000   0.0000  -0.0000  -0.0000   0.0000  -0.0000   0.0000  -0.0000   0.0000
    34   0.0000  -0.0000  -0.0000   0.0000   0.0000  -0.0000  -0.0000  -0.0000   0.0000  -0.0000
    35   0.0000  -0.0000  -0.0000  -0.0000  -0.0000  -0.0000  -0.0000   0.0000  -0.0000  -0.0000
    36   0.0000  -0.0000  -0.0000  -0.0000  -0.0000   0.0000  -0.0000  -0.0000   0.0000  -0.0000
    37   0.0000  -0.0035  -0.0010   0.0000   0.0000  -0.0170   0.0026   0.0000   0.0000   0.0148
    38  -0.0000  -0.0010   0.0035  -0.0000  -0.0000  -0.0026  -0.0171   0.0000  -0.0000   0.0011
    39  -0.0071  -0.0000  -0.0000   0.0807   0.0981   0.0000   0.0000   0.0168   0.0779   0.0000
    40   0.0000   0.0012  -0.0094   0.0000   0.0000   0.0000   0.0206  -0.0000   0.0000  -0.0003
    41  -0.0000   0.0094   0.0012   0.0000  -0.0000   0.0206  -0.0000  -0.0000  -0.0000   0.0032
    42   0.0175  -0.0000   0.0000   0.1246   0.2443   0.0001   0.0001   0.0280   0.1164   0.0000
    43  -0.0150   0.0000  -0.0000  -0.0766  -0.2317  -0.0000  -0.0000  -0.0079  -0.1214  -0.0000
    44  -0.0003  -0.0000  -0.0000  -0.0083  -0.0044  -0.0000  -0.0000  -0.0064  -0.0047  -0.0000
    45   0.0000  -0.0000  -0.0000   0.0000  -0.0000   0.0000   0.0000   0.0000  -0.0000  -0.0000
    46   0.0000  -0.0000   0.0000  -0.0000   0.0000   0.0000   0.0000  -0.0000   0.0000  -0.0000
    47   0.0000  -0.0002   0.0003   0.0000  -0.0000   0.0025   0.0042  -0.0000  -0.0000  -0.0030
    48  -0.0000  -0.0003  -0.0002  -0.0000  -0.0000   0.0042  -0.0025  -0.0000  -0.0000  -0.0060
    49   0.0000   0.0000   0.0000  -0.0000  -0.0000  -0.0000   0.0000  -0.0000  -0.0000   0.0000
[...]
   85   -3.60552182299280E-16  2.23297029164330E-16  6.73413476330594E-16  9.31886145097903E-16
   86   -3.17882359500356E-16  8.44529117862217E-16 -9.84554331364532E-16 -3.27037171003619E-16
   87    9.80493443657158E-17  1.75165142942768E-16  1.22921648283904E-15  1.79655191804270E-16
   88    5.97176439022648E-16  2.07532389439723E-16  9.39155820463760E-16  7.05272606611869E-16
   89   -6.74395575619265E-16  3.88666997078266E-16  1.95020071682442E-16  1.41937541258486E-15
   90   -4.33014254064713E-16 -4.80816558443009E-16 -1.12232492844971E-15  2.98919250575023E-16
   91   -6.35697168123168E-16  1.83397879673607E-16 -2.40875920817728E-16  1.72095230844123E-16
   92    1.85099635039089E-16  9.91511357067466E-17 -1.62193082833242E-15  7.60212361328310E-16
   93   -7.04731412115578E-17  1.12236608895699E-15 -5.78150808477895E-17 -1.73851818358051E-16

 column          85                    86                    87                    88
 row
   85    9.99999999999999E-01
   86   -1.03836872340121E-15  1.00000000000000E+00
   87    6.43872659406124E-16  3.16243827203452E-16  1.00000000000000E+00
   88   -3.46289197883498E-16  3.23347416076041E-17 -1.93003001684899E-16  1.00000000000000E+00
   89   -5.23011542398899E-16  4.05736722668690E-16  8.78162135984835E-16 -1.30447090666217E-16
   90    3.01059787205157E-17  1.62222267750486E-16  6.19924197035432E-16  1.08479086038385E-16
   91    6.18007095950818E-17  5.35981273198840E-18  3.39139868921564E-16 -5.62234794701191E-16
   92    5.82004617722771E-16 -7.41602226913966E-17  1.08700108698059E-16  2.90668699682513E-16
   93    5.62722103343658E-17  3.53449908230274E-17 -1.45012040569936E-17 -5.88721779659629E-17

 column          89                    90                    91                    92
 row
   89    1.00000000000000E+00
   90   -1.72972111114856E-15  1.00000000000000E+00
   91    9.68081102257432E-17  6.11518612643794E-16  9.99999999999999E-01
   92    2.79907993120594E-18  6.09307697832783E-16 -9.79271466281846E-16  1.00000000000000E+00
   93   -8.07188517415458E-17  1.38127356774653E-16  2.11419423634673E-16  7.04731412115578E-18

 column          93
 row
   93    9.99999999999999E-01


 SFO contributions (%) per orbital
 (multiplication by the orbital occupation yields the SFO Gross Populations)

 Orb.:       14     15     16     17     18     19     20     21     22     23     24     25     26     27
 occup:     2.00   2.00   2.00   2.00   2.00   2.00   2.00   2.00   2.00   2.00   0.00   0.00   0.00   0.00
 CF+SFO     ----   ----   ----   ----   ----   ----   ----   ----   ----   ----   ----   ----   ----   ----
 ------
     13:  100.00   0.00  -0.00   0.00   0.00   0.00  -0.00   0.00   0.00   0.00   0.00   0.00   0.00   0.00
     14:    0.00 100.00  -0.00   0.00   0.00  -0.00  -0.00   0.00   0.00   0.00  -0.00  -0.00   0.00   0.00
     15:    0.00   0.00   0.10  98.98   0.61  -0.00  -0.00   0.01  -0.00   0.00   0.13  -0.54  -0.00  -0.00
     16:   -0.00   0.00   2.44   0.00  11.44   0.00  -0.00  68.57  -0.00   0.00  -8.06  17.57   0.00   0.00
     17:    0.00   0.00   0.00   0.00   0.00   0.24   0.00   0.00  92.08   7.27   0.00   0.00   0.36   0.07
     18:    0.00   0.00   0.00   0.00   0.00   0.00   0.24   0.00   7.27  92.08  -0.00   0.00   0.07   0.36
     19:   -0.00  -0.00   3.46   0.00   3.02   0.00  -0.00  23.87  -0.00   0.00 -13.09  32.41   0.00   0.00
     20:   -0.00  -0.00  -0.13  -0.01   2.33   0.00  -0.00   0.26   0.00   0.00  -0.94  21.64   0.00   0.00
     22:    0.00   0.00  -0.00   0.00   0.00   0.00   0.17   0.00   0.01   0.33   0.00   0.00   6.99  89.37
     23:    0.00   0.00  -0.00   0.00   0.00   0.17   0.00   0.00   0.33   0.01   0.00   0.00  89.37   6.99
     24:    0.00   0.00   0.00  -0.00  -0.00   0.39   0.02   0.00   0.03   0.00   0.00   0.00   1.31   0.02
     25:    0.00   0.00   0.00   0.00  -0.00   0.02   0.39   0.00   0.00   0.03  -0.00  -0.00   0.02   1.32
     28:    0.00   0.00  -0.03   0.06   0.23   0.00  -0.00   0.06   0.00   0.00   0.03  -5.06   0.00   0.00
     29:    0.00   0.00   0.91   0.02  -0.05   0.00   0.00   0.38  -0.00   0.00   4.04   1.06   0.00   0.00
     32:    0.00   0.00   0.21   0.00   0.02   0.00   0.00   0.02   0.00  -0.00   4.43   0.34  -0.00  -0.00
     42:   -0.00   0.00  -0.33   0.00   0.36   0.00  -0.00   0.02   0.00   0.00   1.50   1.40  -0.00  -0.00
     43:    0.00  -0.00   0.41  -0.00   0.30   0.00  -0.00   0.05   0.00   0.00   0.07   3.91   0.00   0.00
     69:    0.00   0.00  91.29   0.14   4.69  -0.00   0.00  -0.02   0.00  -0.00   0.73   0.10   0.00   0.00
     70:    0.00   0.00   0.91   0.38  43.17  21.65  20.95   2.23   0.03   0.07  -0.77   0.12  -0.00  -0.01
     71:   -0.00  -0.00   0.25   0.11  12.08  76.02   6.24   0.62   0.18   0.00  -0.22   0.03  -0.03  -0.00
     72:    0.00  -0.00   0.45   0.19  21.32   0.00  70.48   1.10   0.01   0.15  -0.38   0.06  -0.00  -0.02
     73:    0.00   0.00   0.02   0.15   0.00   0.00   0.00   1.93   0.00   0.00 110.87  42.99  -0.00   0.00
     74:   -0.00  -0.00  -0.00  -0.01  -0.03   0.23   0.05   0.09   0.02   0.00   0.01  -1.99   1.19   0.01
     75:    0.00  -0.00  -0.01  -0.02  -0.09   0.00   0.20   0.26   0.00   0.01   0.03  -5.82   0.04   0.82
     76:    0.00   0.00  -0.01  -0.03  -0.11   0.09   0.07   0.33   0.00   0.01   0.04  -7.48   0.15   0.56
     82:   -0.00  -0.00  -0.02  -0.01  -0.06  -0.00   0.00  -0.01  -0.00  -0.00  -0.29  -1.28   0.00  -0.00


 Summation over all MOs, multiplied by occupation: Total SFO Gross Populations in this Irrep
 ===========================================================================================

     2.00    2.00    2.00    2.00    2.00    2.00    2.00    2.00    2.00    2.00    2.00    2.00
     2.00    2.00    1.99    1.65    1.99    1.99    0.61    0.05    0.00    0.01    0.01    0.01
     0.01    0.00    0.00    0.01    0.03    0.02    0.02    0.00    0.00    0.00    0.00    0.00
     0.00    0.00    0.00    0.00    0.00    0.00    0.02    0.00    0.00    0.00    0.00    0.00
     0.00    0.00    0.00    0.00    0.00   -0.00    0.00    0.00   -0.00    0.00    0.00    0.00
     0.00    0.00    0.00    0.00    0.00    0.00   -0.00    2.00    1.92    1.79    1.91    1.87
     0.04    0.01    0.01    0.01    0.01    0.00    0.00    0.01    0.00   -0.00    0.00    0.00
     0.00    0.00    0.00    0.00    0.00    0.00    0.00    0.00   -0.00



 List of all MOs, ordered by energy, with the most significant SFO gross populations
 ===================================================================================

 Each percentage contribution in the table below corresponds to the indicated SFO.
 In general, a SFO may be a linear combination of several Fragment Orbitals on the same,
 or on symmetry-related Fragments. Only the first 'member' of such a combination is
 specified here. A full definition of all SFOs is given in an earlier part of the output.
 The numbering of the SFOs in this table does NOT include the Core Orbitals, and starts
 from one for each symmetry representation, as in the SFO definition list earlier.

       E(eV)  Occ       MO           %     SFO (first member)   E(eV)  Occ   Fragment
 -------------------------------------------------------------------------------------

     -11.928  2.00    17 A         98.98%    15 A             -18.871  2.00     1 BrH
                                    0.38%     3 A               2.944  2.00     2 F
      -7.471  2.00    18 A         43.17%     3 A               2.944  2.00     2 F
                                   21.32%     5 A               2.944  2.00     2 F
                                   12.08%     4 A               2.944  2.00     2 F
                                   11.44%    16 A              -9.362  2.00     1 BrH
                                    4.69%     2 A             -15.093  2.00     2 F
                                    3.02%    19 A              -5.074  0.00     1 BrH
                                    2.33%    20 A               1.616  0.00     1 BrH
      -4.045  2.00    19 A         76.02%     4 A               2.944  2.00     2 F
                                   21.65%     3 A               2.944  2.00     2 F
      -4.045  2.00    20 A         70.48%     5 A               2.944  2.00     2 F
                                   20.95%     3 A               2.944  2.00     2 F
                                    6.24%     4 A               2.944  2.00     2 F
      -1.161  2.00    21 A         68.57%    16 A              -9.362  2.00     1 BrH
                                   23.87%    19 A              -5.074  0.00     1 BrH
                                    2.23%     3 A               2.944  2.00     2 F
                                    1.93%     6 A               7.773  0.00     2 F
                                    1.10%     5 A               2.944  2.00     2 F
      -0.786  2.00    22 A         92.08%    17 A              -7.180  2.00     1 BrH
                                    7.27%    18 A              -7.180  2.00     1 BrH
      -0.786  2.00    23 A         92.08%    18 A              -7.180  2.00     1 BrH
                                    7.27%    17 A              -7.180  2.00     1 BrH
       4.929  0.00    24 A        110.87%     6 A               7.773  0.00     2 F
                                  -13.09%    19 A              -5.074  0.00     1 BrH
                                   -8.06%    16 A              -9.362  2.00     1 BrH
                                    4.43%    32 A              21.165  0.00     1 BrH
                                    4.04%    29 A               9.757  0.00     1 BrH
                                    1.50%    42 A              37.312  0.00     1 BrH
       6.380  0.00    25 A         42.99%     6 A               7.773  0.00     2 F
                                   32.41%    19 A              -5.074  0.00     1 BrH
                                   21.64%    20 A               1.616  0.00     1 BrH
                                   17.57%    16 A              -9.362  2.00     1 BrH
                                   -7.48%     9 A              22.092  0.00     2 F
                                   -5.82%     8 A              22.092  0.00     2 F
                                   -5.06%    28 A               8.330  0.00     1 BrH
                                    3.91%    43 A              47.721  0.00     1 BrH
                                   -1.99%     7 A              22.092  0.00     2 F
                                    1.40%    42 A              37.312  0.00     1 BrH
                                   -1.28%    15 A              55.515  0.00     2 F
                                    1.06%    29 A               9.757  0.00     1 BrH
       8.943  0.00    26 A         89.37%    23 A               3.819  0.00     1 BrH
                                    6.99%    22 A               3.819  0.00     1 BrH
                                    1.31%    24 A               6.273  0.00     1 BrH
                                    1.19%     7 A              22.092  0.00     2 F
       8.944  0.00    27 A         89.37%    22 A               3.819  0.00     1 BrH
                                    6.99%    23 A               3.819  0.00     1 BrH
                                    1.32%    25 A               6.273  0.00     1 BrH
       9.168  0.00    28 A         62.84%    20 A               1.616  0.00     1 BrH
                                   22.15%    21 A               3.715  0.00     1 BrH
                                    8.65%    19 A              -5.074  0.00     1 BrH
                                    4.65%     3 A               2.944  2.00     2 F
                                   -4.36%     6 A               7.773  0.00     2 F
                                    3.74%    28 A               8.330  0.00     1 BrH
                                    2.30%     5 A               2.944  2.00     2 F
                                    1.30%     4 A               2.944  2.00     2 F
                                    1.19%    16 A              -9.362  2.00     1 BrH
       9.624  0.00    29 A         68.19%    21 A               3.715  0.00     1 BrH
                                   36.74%    19 A              -5.074  0.00     1 BrH
                                   -9.51%    20 A               1.616  0.00     1 BrH
                                    8.49%    29 A               9.757  0.00     1 BrH
                                    6.66%    16 A              -9.362  2.00     1 BrH
                                   -4.90%     6 A               7.773  0.00     2 F
                                   -3.08%     9 A              22.092  0.00     2 F
                                   -2.42%    15 A              55.515  0.00     2 F
                                   -2.40%     8 A              22.092  0.00     2 F
                                    1.57%    43 A              47.721  0.00     1 BrH
                                    1.50%     3 A               2.944  2.00     2 F



 =======================================================================
 Electrostatic potential at the Nuclei due to electrons and other nuclei
 =======================================================================
  
         Atom                  Potential
         ----                  ---------
     1)   Br                176.21701496
     2)   H                   1.14439104
     3)   F                  26.81086842
 
 
 ========================
 No memory problems found
 ========================
 
 Maximum number of active allocate calls:         590
 
 *******************************************************************************

                             A D F   E X I T
 NORMAL TERMINATION



 =================
 Timing Statistics
 =================
  
 Total Used :                     CPU=        5.08      System=        0.18     Elapsed=        5.54

 Calls  Section                     ( Mean, Percentage )
 ---------------------------------------------------------------------------------------------------
     3  ><      ................      0.00    0.00             0.00    0.55             0.00    0.03
     1  INIT    ................      0.48    9.47             0.03   16.02             0.51    9.27
     1  GEOMET  ................      0.03    0.65             0.00    2.21             0.26    4.68
     1  FRAGM   ................      0.01    0.12             0.01    5.52             0.02    0.39
     1  INPUTA  ................      0.00    0.00             0.00    0.00             0.00    0.01
     1  ATDEN   ................      0.00    0.10             0.00    0.00             0.00    0.09
     1  MAINSY  ................      0.01    0.16             0.00    1.11             0.01    0.22
     1  SYMFIT  ................      0.00    0.02             0.00    0.55             0.00    0.04
     1  CORORT  ................      0.00    0.00             0.00    0.55             0.00    0.01
     1  SYMORB  ................      0.00    0.06             0.00    0.00             0.00    0.06
     1  CLSMAT  ................      0.01    0.12             0.00    0.55             0.01    0.12
     1  ORTHON  ................      0.01    0.16             0.00    0.55             0.01    0.17
     1  GENPT   ................      0.11    2.22             0.00    1.11             0.12    2.09
     1  PTBAS   ................      0.03    0.55             0.00    0.55             0.03    0.51
    13  FOCKY   ................      0.10   26.32             0.00   11.60             0.10   24.62
    13  FOCKTR  ................      0.00    0.39             0.00    0.00             0.00    0.44
    13  SDIIS   ................      0.00    0.96             0.00    1.11             0.00    0.89
     1  COREPS  ................      0.09    1.73             0.00    0.55             0.09    1.62
     1  TOTEN   ................      0.27    5.26             0.00    2.21             0.27    4.92
     1  POPAN   ................      0.00    0.04             0.00    1.10             0.01    0.15
     1  DEBYE   ................      0.00    0.08             0.00    0.00             0.00    0.08
     1  INPUTE  ................      0.00    0.02             0.00    0.00             0.00    0.02
     1  SYMORE  ................      0.00    0.00             0.00    0.00             0.00    0.02
     1  METS    ................      0.00    0.02             0.00    0.00             0.00    0.01
     1  CETS    ................      0.01    0.20             0.00    0.55             0.02    0.35
     1  POPUL   ................      2.58   50.80             0.09   52.49             2.70   48.68
     1  EXIT PROCEDURE .........      0.03    0.55             0.00    1.10             0.03    0.54


 Currently Open Files (EXIT00)
 ====================

 Unit    Access Format  Status   Type       Ident (file)
 -------------------------------------------------------
   3      SEQ    FORM   TRANSP  NORMAL      LOGFILE
                                          ( logfile )


 Buffered I/O statistics
 =======================
 Memory available:                     67108864
 Number of records fitting in memory:     16131
 Input :   1.4% of                        45662  *4k bytes
 Output:  12.9% of                         3582  *4k bytes
 Records from serial files evicted:           0
                    others evicted:           0
 Hash table lookups:     129116 with          0 conflicts (  0.00%)

 ***************************************************************************************************
 (LOGFILE)
 <May09-2019> <17:23:36>  ADF 2017  RunTime: May09-2019 17:23:36  Nodes: 1  Procs: 12
 <May09-2019> <17:23:36>  *** (NO TITLE) ***
 <May09-2019> <17:23:36>  RunType   : SINGLE POINT
 <May09-2019> <17:23:36>  Net Charge: -1 (Nuclei minus Electrons)
 <May09-2019> <17:23:36>  Symmetry  : NOSYM
 <May09-2019> <17:23:36>  >>>> FRAGM
  Coordinates
    Atom         X           Y           Z   (Angstrom)
    1.Br       -4.030844    0.109330   -0.236719
    2.H        -2.328113    0.436726    0.935773
    3.F        -1.521539    0.591812    1.491175
 <May09-2019> <17:23:36>  >>>> CORORT
 <May09-2019> <17:23:36>  >>>> CLSMAT
 <May09-2019> <17:23:36>  >>>> ORTHON
 <May09-2019> <17:23:36>  >>>> GENPT
 <May09-2019> <17:23:37>  Block Length= 128
 <May09-2019> <17:23:37>  >>>> PTBAS
 <May09-2019> <17:23:37>  >>>> CYCLE
 <May09-2019> <17:23:37>              |Error|         MaxErr       Wt(A-DIIS)
 <May09-2019> <17:23:37>      1      1.54838834      1.29751290
 <May09-2019> <17:23:37>      2      0.50426453      0.14059783    100.0
 <May09-2019> <17:23:37>      3      0.39124332      0.10189338    100.0
 <May09-2019> <17:23:37>      4      0.39455729      0.10451881    100.0
 <May09-2019> <17:23:37>      5      0.86433578      0.23955418    100.0
 <May09-2019> <17:23:37>      6      0.12062853      0.03061168     29.9
 <May09-2019> <17:23:37>      7      0.05862398      0.01419813     13.3
 <May09-2019> <17:23:38>      8      0.00721060      0.00188605      0.9
 <May09-2019> <17:23:38>      9      0.00147560      0.00035091      0.0
 <May09-2019> <17:23:38>     10      0.00017621      0.00004443      0.0
 <May09-2019> <17:23:38>     11      0.00003928      0.00001296      0.0
 <May09-2019> <17:23:38>     12      0.00000136      0.00000036      0.0
 <May09-2019> <17:23:38>  SCF converged
 <May09-2019> <17:23:38>     13      0.00000021      0.00000007      0.0
 <May09-2019> <17:23:38>  >>>> TOTEN
 <May09-2019> <17:23:38>  >>>> POPAN
 <May09-2019> <17:23:38>  >>>> DEBYE
 <May09-2019> <17:23:38>  >>>> AMETS
 <May09-2019> <17:23:41>   Bond Energy          -0.19515291 a.u.
 <May09-2019> <17:23:41>   Bond Energy          -5.31038087 eV
 <May09-2019> <17:23:41>   Bond Energy        -122.46       kcal/mol
 <May09-2019> <17:23:41>  >>>> POPUL
 <May09-2019> <17:23:41>  NORMAL TERMINATION
 <May09-2019> <17:23:41>  END
