
Create H   file=TZ2P-H
XC
  GGA BP86
End
End Input

 *******************************************************************************
 *                                                                             *
 *  -------------------------------------                                      *
 *   Amsterdam Density Functional  (ADF)         development version           *
 *  -------------------------------------                                      *
 *                                               r61132 2017-09-08             *
 *                                                                             *
 *                                                                             *
 *                              =================                              *
 *                              |               |                              *
 *                              |     A D F     |                              *
 *                              |               |                              *
 *                              =================                              *
 *                                                                             *
 *                                                                             *
 *   Online information and documentation:  https://www.scm.com/support/       *
 *   E-mail:  support@scm.com   info@scm.com                                   *
 *                                                                             *
 *   Scientific publications using ADF results must be properly referenced     *
 *   See the User Manuals (or the web site) for recommended citations          *
 *   The terms and conditions of the End User License Agreement apply to       *
 *   the use of ADF, https://www.scm.com/license-terms/                        *
 *                                                                             *
 **********************  x86_64_linux_intel / intelmpi  ************************
 
 Licensed to: VU/FEW (+ SARA) / ALGEMEEN / Amsterdam / THE NETHERLANDS
 SCM User ID: u7668
  
 ADF development version  RunTime: Apr18-2019 22:22:42  Nodes: 1  Procs: 1

 Temporary files are created in /local/datastore0/tcst25/186820/kid_0.O5PeoN

 Hydrogen (TZ2P)



 ===========================
 A T T A C H E D   F I L E S
 ===========================
  
 CREATE - Data File:    TZ2P-H
                        Hydrogen (TZ2P)



 ===============================
 M O D E L   P A R A M E T E R S
 ===============================
  
 DENSITY FUNCTIONAL POTENTIAL (scf)
    LDA:                               VWN                                      
    Gradient Corrections:              Becke88 Perdew86                        == Not Default ==

 SPIN  (restricted / unrestr.)
    Molecule:                          Restricted                               

 OTHER ASPECTS
    Relativistic Corrections:          ---                                      

    Nuclear Charge Density Model:      Point Charge Nuclei                      
    Core Treatment:                    Frozen Orbital(s)                        

    Hyperfine or Zeeman Interaction:   ---                                      



 =====================================
 S Y M M E T R Y ,   E L E C T R O N S
 =====================================
  
 Symmetry: ATOM

 Irreducible Representations, including subspecies
 -------------------------------------------------
 S
 P:x  P:y  P:z
 D:z2  D:x2-y2  D:xy  D:xz  D:yz
 F:z3  F:z  F:xyz  F:z2x  F:z2y  F:x  F:y


 Configuration of Valence Electrons
 ==================================

          Occupation Numbers
          -------------------------------------------------
 S        1
 P        0
 D        0
 F        0
          -------------------------------------------------

 Total:   1

 Net Charge: 0 (Nuclei minus Electrons)

 Preset values for MO occupations will be applied through SCF cycle no. 1000000
 Thereafter, the program will assign electrons to MOs that are spatially
 similar to the occupied MOs in a "reference" cycle ("KeepOrbitals").
 The reference cycle is always the PREVIOUS cycle: it will evolve with
 the SCF procedure.



 ================================
 (Slater-type)  F U N C T I O N S  ***  (Basis and Fit)  ***
 ================================
  

 Atom Type    1  (H)
 ==============

 Valence Basis Sets:   5
 -----------------------
   1 S    0.690000
   1 S    0.920000
   1 S    1.580000
   2 P    1.250000
   3 D    2.500000


 BAS: List of all Elementary Cartesian Basis Functions
 =====================================================

 The numbering in the list below (to the right of the function characteristics) is referred
 to in print-outs of MO eigenvectors and Mulliken populations in the BAS representation
 (as contrasted to the SFO representation).

 Notes:
 1. The functions are characterized by a polynomial prefactor (powers of x,y,z and r) and
    an exponential decay factor alpha.
 2. Since the basis sets are specific for an atom TYPE, the individual functions occur on
    all atoms of that type.
 3. The word 'Core' in the left margin signals that it is a Core Function (CF) : not a
    degree of freedom in the valence set, but only used to ensure orthogonalization of
    the other valence basis functions on the frozen Core Orbitals.


 (power of) X  Y  Z  R     Alpha  on Atom
            ==========     =====     ==========

 H                                    1
                                  ---------------------------------------------------------------------------
            0  0  0  0     0.690      1
            0  0  0  0     0.920      2
            0  0  0  0     1.580      3
            1  0  0  0     1.250      4
            0  1  0  0     1.250      5
            0  0  1  0     1.250      6
            2  0  0  0     2.500      7
            1  1  0  0     2.500      8
            1  0  1  0     2.500      9
            0  2  0  0     2.500     10
            0  1  1  0     2.500     11
            0  0  2  0     2.500     12

 Total number of charge fitting functions (nprimf)        50
 Total number of Cartesian basis functions (naos)         12
 Total number of Cartesian core functions  (ncos)          0



 BAS: List of all Elementary Cartesian Basis Functions
 =====================================================

 The numbering in the list below (to the right of the function characteristics) is referred
 to in print-outs of MO eigenvectors and Mulliken populations in the BAS representation
 (as contrasted to the SFO representation).

 Notes:
 1. The functions are characterized by a polynomial prefactor (powers of x,y,z and r) and
    an exponential decay factor alpha.
 2. Since the basis sets are specific for an atom TYPE, the individual functions occur on
    all atoms of that type.
 3. The word 'Core' in the left margin signals that it is a Core Function (CF) : not a
    degree of freedom in the valence set, but only used to ensure orthogonalization of
    the other valence basis functions on the frozen Core Orbitals.


 (power of) X  Y  Z  R     Alpha  on Atom
            ==========     =====     ==========

 H                                    1
                                  ---------------------------------------------------------------------------
            0  0  0  0     0.690      1
            0  0  0  0     0.920      2
            0  0  0  0     1.580      3
            1  0  0  0     1.250      4
            0  1  0  0     1.250      5
            0  0  1  0     1.250      6
            2  0  0  0     2.500      7
            1  1  0  0     2.500      8
            1  0  1  0     2.500      9
            0  2  0  0     2.500     10
            0  1  1  0     2.500     11
            0  0  2  0     2.500     12
1
 ***************************************************************************************************



                                              ***********************
                                              *  T E C H N I C A L  *
                                              ***********************
  



 =============================================================
 P A R A L L E L I Z A T I O N  and  V E C T O R I Z A T I O N
 =============================================================
  
 Nr of parallel processes:                                1
 Maximum vector length in NumInt loops:                 128

 IO buffersize (Mb):                                     64.000000



 =====================
 S C F   U P D A T E S
 =====================
  
 Max. nr. of cycles:                               300
 Convergence criterion:                              0.0000000100
   secondary criterion:                              0.0000000100

 Mix parameter (when DIIS does not apply):           0.2000000000
 Special mix parameter for the first cycle:          1.0000000000
 Mixed ADIIS+DIIS will be used
    Max number of expansion vectors:                10
    Pure ADIIS when Max([F,P]) is above              0.1000000000
    Pure DIIS when Max([F,P]) is below               0.0010000000
 Automatic ElectronSmearing (in case of problematic SCF convergence) disabled



 =================
 P R E C I S I O N  ***  (General: NumInt, NeglectFunctionTails, ...)  ***
 =================
  

 NumInt:           Target precision:                12.0000000000
 -------           Initial precision:               10.0000000000
                   Min. precision (optimization):   10.0000000000

 Neglect Functions:          Basis functions:        0.1000000000E-13
 ------------------          Fit functions:          0.1000000000E-13



 ===========================
 L I N E A R   S C A L I N G
 ===========================
  

 Cut-off radii density fit:                        0.1000000000E-97
 Overlap cut-off criterion AO matrix elements:     0.1000000000E-97
 Cut-offs for Coulomb potential and fitted density:0.1000000000E-97
 Cut-off criterion for Coulomb multipole terms:    0.1000000000E-97
 Progressive Convergence parameter:                 0.000000000    
1
 ***************************************************************************************************



                                            ***************************
                                            *  C O M P U T A T I O N  *
                                            ***************************
  

 Number of elements of the density matrix on this node (used, total):        78        78



 ===========================================
 Numerical Integration : Fuzzy Cells (Becke)
 ===========================================
  
 Becke grid quality: VERYGOOD       
  
 Lebedev angular grid order:             min:  13 max:  41
 Nr. of radial points:                   min:  64 max:  64

 Total nr. of points:         64
 Nr. of blocks:                1
 Block length:                64
 Nr. of dummy points:          0


 Test of Precision of the Numerical Integration Grid
 ===================================================

 Integral of the Total Core Density:                   0.00000000000000



 ========================
 Density Fitting (zlmFit)
 ========================
  
 ZlmFit Fit Quality: VERYGOOD       
  
 Max L-expansion:                        min:   0 max:   0
 Nr. of radial interpolation points:     min: 130 max: 130



 =====
 S C F  ***  ScaSCF  ***
 =====
  

 CYCLE    1
 SCF Error: norm([F,P])=      0.000000000000, max([F,P])=      0.000000000000
 orbitals (Q,E):
 ---------------
 S :1...3            ( 1.00    -0.5000)  ( 0.00    -0.0900)  ( 0.00     1.2939)
 P :1...1            ( 0.00     0.1562)
 D :1...1            ( 0.00     2.2917)

 CYCLE    2
 SCF Error: norm([F,P])=      0.030526162244, max([F,P])=      0.029682528591
 orbitals (Q,E):
 ---------------
 S :1...2            ( 1.00    -0.2270)  ( 0.00     0.1038)
 P :1...1            ( 0.00     0.4131)
 D :1...1            ( 0.00     2.5768)

 CYCLE    3
  SDIIS (wt  0.000):  0.1733  0.8267
 A-DIIS (wt  1.000):  0.0000  1.0000
  DIIS coefficients:  0.0000  1.0000
 SCF Error: norm([F,P])=      0.007183061946, max([F,P])=      0.006712148192
 orbitals (Q,E):
 ---------------
 S :1...2            ( 1.00    -0.2462)  ( 0.00     0.0917)
 P :1...1            ( 0.00     0.3973)
 D :1...1            ( 0.00     2.5583)

 CYCLE    4
  SDIIS (wt  0.999):  0.1398  0.8602
 A-DIIS (wt  0.001):  0.0000  1.0000
  DIIS coefficients:  0.1396  0.8604
 SCF Error: norm([F,P])=      0.001175086780, max([F,P])=      0.001143060931
 orbitals (Q,E):
 ---------------
 S :1...2            ( 1.00    -0.2434)  ( 0.00     0.0933)
 P :1...1            ( 0.00     0.3996)
 D :1...1            ( 0.00     2.5611)

 CYCLE    5
  SDIIS (wt  1.000):  0.0219  0.9781
  DIIS coefficients:  0.0219  0.9781
 SCF Error: norm([F,P])=      0.000027525369, max([F,P])=      0.000023543474
 orbitals (Q,E):
 ---------------
 S :1...2            ( 1.00    -0.2435)  ( 0.00     0.0932)
 P :1...1            ( 0.00     0.3996)
 D :1...1            ( 0.00     2.5610)

 CYCLE    6
  SDIIS (wt  1.000): -0.0582  1.0582
  DIIS coefficients: -0.0582  1.0582
 SCF Error: norm([F,P])=      0.000001514450, max([F,P])=      0.000001285214
 orbitals (Q,E):
 ---------------
 S :1...2            ( 1.00    -0.2435)  ( 0.00     0.0932)
 P :1...1            ( 0.00     0.3996)
 D :1...1            ( 0.00     2.5610)

 CYCLE    7
  SDIIS (wt  1.000): -0.0031  1.0031
  DIIS coefficients: -0.0031  1.0031
 SCF Error: norm([F,P])=      0.000000004705, max([F,P])=      0.000000004158
 orbitals (Q,E):
 ---------------
 S :1...2            ( 1.00    -0.2435)  ( 0.00     0.0932)
 P :1...1            ( 0.00     0.3996)
 D :1...1            ( 0.00     2.5610)

 SCF CONVERGED

 CYCLE    8
1
 ***************************************************************************************************



                                                *******************
                                                *  R E S U L T S  *
                                                *******************
  
 *** Setting up for NEW gradients in Focky
 *** Using FIT density in Focky

 Orbital Energies, per Irrep and Spin:
 ======================================
                        Occup              E (au)              E (eV)       Diff (eV) with prev. cycle
                        -----      --------------------        ------       --------------------------
 S
               1        1.000     -0.24350452296405E+00        -6.626               4.48E-09
               2        0.000      0.93233330888585E-01         2.537
               3        0.000      0.15154066862623E+01        41.236
 P
               1        0.000      0.39955072057198E+00        10.872
 D
               1        0.000      0.25610214787646E+01        69.689


 Partially Occupied:
               1 S                -0.24350452296405E+00
  
 LUMO :        2 S                 0.93233330888585E-01
  


 Orbital Energies, all Irreps
 ========================================

 Irrep        no.  (spin)   Occup              E (au)                E (eV)
 ---------------------------------------------------------------------------
 S             1             1.00       -0.24350452296405E+00        -6.6261
 S             2             0.00        0.93233330888585E-01         2.5370
 P             1             0.00        0.39955072057198E+00        10.8723
 S             3             0.00        0.15154066862623E+01        41.2363
 D             1             0.00        0.25610214787646E+01        69.6889


 All Electron Calculation, thus no Orbital Energies of the Core Orbitals are calculated



 =======================================
 M U L L I K E N   P O P U L A T I O N S
 =======================================
  
 The survey below gives for each atom:
 a) the total charge (Z minus electrons)
 b) the net spin polarization (nr of electrons spin-A minus spin-B)
 c) for each spin the atomic electron valence density (integrated) per L-value.

 Atom              Charge    Spin density          S         P         D         F
 ----              ------    ------------       ------    ------    ------    ------
 1 H               0.0000                       1.0000    0.0000    0.0000    0.0000

 Populations of individual BAS functions
 ----------------------------------------
 1 H            0.1853  0.7115  0.1032  0.0000  0.0000  0.0000  0.0000  0.0000  0.0000  0.0000
                0.0000  0.0000

 Gross Charges per Atom (Z minus electrons)
 ==========================================
             0.0000
 Net Total:  0.00000000



 =======================================================================
 Electrostatic potential at the Nuclei due to electrons and other nuclei
 =======================================================================
  
         Atom                  Potential
         ----                  ---------
     1)   H                   0.94550094
 
 
 ========================
 No memory problems found
 ========================
 
 Maximum number of active allocate calls:         363
 
 *******************************************************************************

                             A D F   E X I T
 NORMAL TERMINATION



 =================
 Timing Statistics
 =================
  
 Total Used :                     CPU=        0.30      System=        0.03     Elapsed=        0.33

 Calls  Section                     ( Mean, Percentage )
 ---------------------------------------------------------------------------------------------------
     3  ><      ................      0.00    0.00             0.00    3.57             0.00    0.24
     1  INIT    ................      0.01    3.04             0.01   53.57             0.03    7.85
     1  GEOMET  ................      0.00    1.35             0.00   14.29             0.01    2.51
     1  INPUTA  ................      0.00    0.68             0.00    0.00             0.00    0.44
     1  MAINSY  ................      0.00    1.35             0.00    3.57             0.01    1.71
     1  SYMFIT  ................      0.00    0.00             0.00    3.57             0.00    0.24
     1  CORORT  ................      0.00    0.00             0.00    0.00             0.00    0.08
     1  SYMORB  ................      0.00    0.34             0.00    0.00             0.00    0.16
     1  CLSMAT  ................      0.00    1.35             0.00    0.00             0.00    1.21
     1  ORTHON  ................      0.00    0.34             0.00    0.00             0.00    0.39
     1  GENPT   ................      0.01    3.38             0.00    0.00             0.01    2.97
     1  PTBAS   ................      0.00    1.01             0.00    0.00             0.00    1.03
     8  FOCKY   ................      0.03   69.60             0.00   14.29             0.03   64.28
     8  FOCKTR  ................      0.00    1.69             0.00    0.00             0.00    1.67
     8  SDIIS   ................      0.00    3.72             0.00    3.57             0.00    3.79
     1  COREPS  ................      0.02    5.41             0.00    0.00             0.02    4.83
     1  POPAN   ................      0.00    1.01             0.00    0.00             0.00    1.15
     1  DEBYE   ................      0.00    0.34             0.00    0.00             0.00    0.15
     1  EXIT PROCEDURE .........      0.02    5.41             0.00    3.57             0.02    5.30


 Currently Open Files (EXIT00)
 ====================

 Unit    Access Format  Status   Type       Ident (file)
 -------------------------------------------------------
   3      SEQ    FORM   TRANSP  NORMAL      LOGFILE
                                          ( logfile )


 Buffered I/O statistics
 =======================
 Memory available:                     67108864
 Number of records fitting in memory:     16131
 Input :   0.2% of                        17478  *4k bytes
 Output:  15.2% of                         1046  *4k bytes
 Records from serial files evicted:           0
                    others evicted:           0
 Hash table lookups:      44676 with          0 conflicts (  0.00%)

 ***************************************************************************************************
 (LOGFILE)
 <Apr18-2019> <22:22:42>  ADF development version  RunTime: Apr18-2019 22:22:42  Nodes: 1  Procs: 1
 <Apr18-2019> <22:22:42>  Hydrogen (TZ2P)
 <Apr18-2019> <22:22:42>  RunType   : CREATE
 <Apr18-2019> <22:22:42>  Net Charge: 0 (Nuclei minus Electrons)
 <Apr18-2019> <22:22:42>  Symmetry  : ATOM
  Coordinates
    Atom         X           Y           Z   (Angstrom)
    1.H         0.000000    0.000000    0.000000
 <Apr18-2019> <22:22:42>  >>>> CORORT
 <Apr18-2019> <22:22:42>  >>>> CLSMAT
 <Apr18-2019> <22:22:42>  >>>> ORTHON
 <Apr18-2019> <22:22:42>  >>>> GENPT
 <Apr18-2019> <22:22:42>  Block Length=  64
 <Apr18-2019> <22:22:42>  >>>> PTBAS
 <Apr18-2019> <22:22:42>  >>>> CYCLE
 <Apr18-2019> <22:22:42>              |Error|         MaxErr       Wt(A-DIIS)
 <Apr18-2019> <22:22:42>      1      0.00000000      0.00000000
 <Apr18-2019> <22:22:42>      2      0.03052616      0.02968253
 <Apr18-2019> <22:22:42>      3      0.00718306      0.00671215    100.0
 <Apr18-2019> <22:22:42>      4      0.00117509      0.00114306      0.1
 <Apr18-2019> <22:22:42>      5      0.00002753      0.00002354      0.0
 <Apr18-2019> <22:22:42>      6      0.00000151      0.00000129      0.0
 <Apr18-2019> <22:22:42>      7      0.00000000      0.00000000      0.0
 <Apr18-2019> <22:22:42>  SCF converged
 <Apr18-2019> <22:22:42>      8      0.00000000      0.00000000      0.0
 <Apr18-2019> <22:22:42>  >>>> POPAN
 <Apr18-2019> <22:22:42>  >>>> DEBYE
 <Apr18-2019> <22:22:42>  NORMAL TERMINATION
 <Apr18-2019> <22:22:42>  END

Create B   file=TZ2P-B
XC
  GGA BP86
End
End Input

 *******************************************************************************
 *                                                                             *
 *  -------------------------------------                                      *
 *   Amsterdam Density Functional  (ADF)         development version           *
 *  -------------------------------------                                      *
 *                                               r61132 2017-09-08             *
 *                                                                             *
 *                                                                             *
 *                              =================                              *
 *                              |               |                              *
 *                              |     A D F     |                              *
 *                              |               |                              *
 *                              =================                              *
 *                                                                             *
 *                                                                             *
 *   Online information and documentation:  https://www.scm.com/support/       *
 *   E-mail:  support@scm.com   info@scm.com                                   *
 *                                                                             *
 *   Scientific publications using ADF results must be properly referenced     *
 *   See the User Manuals (or the web site) for recommended citations          *
 *   The terms and conditions of the End User License Agreement apply to       *
 *   the use of ADF, https://www.scm.com/license-terms/                        *
 *                                                                             *
 **********************  x86_64_linux_intel / intelmpi  ************************
 
 Licensed to: VU/FEW (+ SARA) / ALGEMEEN / Amsterdam / THE NETHERLANDS
 SCM User ID: u7668
  
 ADF development version  RunTime: Apr18-2019 22:22:43  Nodes: 1  Procs: 1

 Temporary files are created in /local/datastore0/tcst25/186820/kid_0.ecgHLf

 Boron (TZ2P)



 ===========================
 A T T A C H E D   F I L E S
 ===========================
  
 CREATE - Data File:    TZ2P-B
                        Boron (TZ2P)



 ===============================
 M O D E L   P A R A M E T E R S
 ===============================
  
 DENSITY FUNCTIONAL POTENTIAL (scf)
    LDA:                               VWN                                      
    Gradient Corrections:              Becke88 Perdew86                        == Not Default ==

 SPIN  (restricted / unrestr.)
    Molecule:                          Restricted                               

 OTHER ASPECTS
    Relativistic Corrections:          ---                                      

    Nuclear Charge Density Model:      Point Charge Nuclei                      
    Core Treatment:                    Frozen Orbital(s)                        

    Hyperfine or Zeeman Interaction:   ---                                      



 =====================================
 S Y M M E T R Y ,   E L E C T R O N S
 =====================================
  
 Symmetry: ATOM

 Irreducible Representations, including subspecies
 -------------------------------------------------
 S
 P:x  P:y  P:z
 D:z2  D:x2-y2  D:xy  D:xz  D:yz
 F:z3  F:z  F:xyz  F:z2x  F:z2y  F:x  F:y


 Configuration of Valence Electrons
 ==================================

          Occupation Numbers
          -------------------------------------------------
 S        2*2
 P        1
 D        0
 F        0
          -------------------------------------------------

 Total:   5

 Net Charge: 0 (Nuclei minus Electrons)

 Preset values for MO occupations will be applied through SCF cycle no. 1000000
 Thereafter, the program will assign electrons to MOs that are spatially
 similar to the occupied MOs in a "reference" cycle ("KeepOrbitals").
 The reference cycle is always the PREVIOUS cycle: it will evolve with
 the SCF procedure.



 ================================
 (Slater-type)  F U N C T I O N S  ***  (Basis and Fit)  ***
 ================================
  

 Atom Type    1  (B)
 ==============

 Valence Basis Sets:  10
 -----------------------
   1 S    6.500000
   1 S    4.080000
   2 S    2.800000
   2 S    1.700000
   2 S    1.040000
   2 P    2.600000
   2 P    1.260000
   2 P    0.680000
   3 D    2.000000
   4 F    3.000000


 BAS: List of all Elementary Cartesian Basis Functions
 =====================================================

 The numbering in the list below (to the right of the function characteristics) is referred
 to in print-outs of MO eigenvectors and Mulliken populations in the BAS representation
 (as contrasted to the SFO representation).

 Notes:
 1. The functions are characterized by a polynomial prefactor (powers of x,y,z and r) and
    an exponential decay factor alpha.
 2. Since the basis sets are specific for an atom TYPE, the individual functions occur on
    all atoms of that type.
 3. The word 'Core' in the left margin signals that it is a Core Function (CF) : not a
    degree of freedom in the valence set, but only used to ensure orthogonalization of
    the other valence basis functions on the frozen Core Orbitals.


 (power of) X  Y  Z  R     Alpha  on Atom
            ==========     =====     ==========

 B                                    1
                                  ---------------------------------------------------------------------------
            0  0  0  0     6.500      1
            0  0  0  0     4.080      2
            0  0  0  1     2.800      3
            0  0  0  1     1.700      4
            0  0  0  1     1.040      5
            1  0  0  0     2.600      6
            0  1  0  0     2.600      7
            0  0  1  0     2.600      8
            1  0  0  0     1.260      9
            0  1  0  0     1.260     10
            0  0  1  0     1.260     11
            1  0  0  0     0.680     12
            0  1  0  0     0.680     13
            0  0  1  0     0.680     14
            2  0  0  0     2.000     15
            1  1  0  0     2.000     16
            1  0  1  0     2.000     17
            0  2  0  0     2.000     18
            0  1  1  0     2.000     19
            0  0  2  0     2.000     20
            3  0  0  0     3.000     21
            2  1  0  0     3.000     22
            2  0  1  0     3.000     23
            1  2  0  0     3.000     24
            1  1  1  0     3.000     25
            1  0  2  0     3.000     26
            0  3  0  0     3.000     27
            0  2  1  0     3.000     28
            0  1  2  0     3.000     29
            0  0  3  0     3.000     30

 Total number of charge fitting functions (nprimf)        84
 Total number of Cartesian basis functions (naos)         30
 Total number of Cartesian core functions  (ncos)          0



 BAS: List of all Elementary Cartesian Basis Functions
 =====================================================

 The numbering in the list below (to the right of the function characteristics) is referred
 to in print-outs of MO eigenvectors and Mulliken populations in the BAS representation
 (as contrasted to the SFO representation).

 Notes:
 1. The functions are characterized by a polynomial prefactor (powers of x,y,z and r) and
    an exponential decay factor alpha.
 2. Since the basis sets are specific for an atom TYPE, the individual functions occur on
    all atoms of that type.
 3. The word 'Core' in the left margin signals that it is a Core Function (CF) : not a
    degree of freedom in the valence set, but only used to ensure orthogonalization of
    the other valence basis functions on the frozen Core Orbitals.


 (power of) X  Y  Z  R     Alpha  on Atom
            ==========     =====     ==========

 B                                    1
                                  ---------------------------------------------------------------------------
            0  0  0  0     6.500      1
            0  0  0  0     4.080      2
            0  0  0  1     2.800      3
            0  0  0  1     1.700      4
            0  0  0  1     1.040      5
            1  0  0  0     2.600      6
            0  1  0  0     2.600      7
            0  0  1  0     2.600      8
            1  0  0  0     1.260      9
            0  1  0  0     1.260     10
            0  0  1  0     1.260     11
            1  0  0  0     0.680     12
            0  1  0  0     0.680     13
            0  0  1  0     0.680     14
            2  0  0  0     2.000     15
            1  1  0  0     2.000     16
            1  0  1  0     2.000     17
            0  2  0  0     2.000     18
            0  1  1  0     2.000     19
            0  0  2  0     2.000     20
            3  0  0  0     3.000     21
            2  1  0  0     3.000     22
            2  0  1  0     3.000     23
            1  2  0  0     3.000     24
            1  1  1  0     3.000     25
            1  0  2  0     3.000     26
            0  3  0  0     3.000     27
            0  2  1  0     3.000     28
            0  1  2  0     3.000     29
            0  0  3  0     3.000     30
1
 ***************************************************************************************************



                                              ***********************
                                              *  T E C H N I C A L  *
                                              ***********************
  



 =============================================================
 P A R A L L E L I Z A T I O N  and  V E C T O R I Z A T I O N
 =============================================================
  
 Nr of parallel processes:                                1
 Maximum vector length in NumInt loops:                 128

 IO buffersize (Mb):                                     64.000000



 =====================
 S C F   U P D A T E S
 =====================
  
 Max. nr. of cycles:                               300
 Convergence criterion:                              0.0000000100
   secondary criterion:                              0.0000000100

 Mix parameter (when DIIS does not apply):           0.2000000000
 Special mix parameter for the first cycle:          1.0000000000
 Mixed ADIIS+DIIS will be used
    Max number of expansion vectors:                10
    Pure ADIIS when Max([F,P]) is above              0.1000000000
    Pure DIIS when Max([F,P]) is below               0.0010000000
 Automatic ElectronSmearing (in case of problematic SCF convergence) disabled



 =================
 P R E C I S I O N  ***  (General: NumInt, NeglectFunctionTails, ...)  ***
 =================
  

 NumInt:           Target precision:                12.0000000000
 -------           Initial precision:               10.0000000000
                   Min. precision (optimization):   10.0000000000

 Neglect Functions:          Basis functions:        0.1000000000E-13
 ------------------          Fit functions:          0.1000000000E-13



 ===========================
 L I N E A R   S C A L I N G
 ===========================
  

 Cut-off radii density fit:                        0.1000000000E-97
 Overlap cut-off criterion AO matrix elements:     0.1000000000E-97
 Cut-offs for Coulomb potential and fitted density:0.1000000000E-97
 Cut-off criterion for Coulomb multipole terms:    0.1000000000E-97
 Progressive Convergence parameter:                 0.000000000    
1
 ***************************************************************************************************



                                            ***************************
                                            *  C O M P U T A T I O N  *
                                            ***************************
  

 Number of elements of the density matrix on this node (used, total):       465       465



 ===========================================
 Numerical Integration : Fuzzy Cells (Becke)
 ===========================================
  
 Becke grid quality: VERYGOOD       
  
 Lebedev angular grid order:             min:  13 max:  41
 Nr. of radial points:                   min:  76 max:  76

 Total nr. of points:         76
 Nr. of blocks:                1
 Block length:                76
 Nr. of dummy points:          0


 Test of Precision of the Numerical Integration Grid
 ===================================================

 Integral of the Total Core Density:                   0.00000000000000



 ========================
 Density Fitting (zlmFit)
 ========================
  
 ZlmFit Fit Quality: VERYGOOD       
  
 Max L-expansion:                        min:   0 max:   0
 Nr. of radial interpolation points:     min: 160 max: 160



 =====
 S C F  ***  ScaSCF  ***
 =====
  

 CYCLE    1
 SCF Error: norm([F,P])=      0.000000000000, max([F,P])=      0.000000000000
 orbitals (Q,E):
 ---------------
 S :1...5            ( 2.00   -12.4973)  ( 2.00    -3.1204)  ( 0.00    -1.3604)  ( 0.00    -0.2943)
                     ( 0.00    21.5464)
 P :1...3            ( 1.00    -3.1235)  ( 0.00    -1.3596)  ( 0.00    -0.7394)
 D :1...1            ( 0.00    -1.3333)
 F :1...1            ( 0.00     0.7500)

 CYCLE    2
  SDIIS (wt  0.000):  1.0000  0.0000
 A-DIIS (wt  1.000):  0.0000  1.0000
  DIIS coefficients:  0.0000  1.0000
 SCF Error: norm([F,P])=      3.206930624403, max([F,P])=      2.044237717286
 orbitals (Q,E):
 ---------------
 S :1...3            ( 2.00    -5.1374)  ( 2.00    -0.0371)  ( 0.00     0.4555)
 P :1...2            ( 1.00     0.0686)  ( 0.00     0.3929)
 D :1...1            ( 0.00     1.4209)
 F :1...1            ( 0.00     3.7855)

 CYCLE    3
  SDIIS (wt  0.000):  0.1983  0.8017
 A-DIIS (wt  1.000):  0.0000  1.0000
  DIIS coefficients:  0.0000  1.0000
 SCF Error: norm([F,P])=      1.040807263909, max([F,P])=      0.886703810621
 orbitals (Q,E):
 ---------------
 S :1...3            ( 2.00    -7.3692)  ( 2.00    -0.6224)  ( 0.00     0.0443)
 P :1...2            ( 1.00    -0.4031)  ( 0.00     0.0084)
 D :1...1            ( 0.00     0.7598)
 F :1...1            ( 0.00     3.0368)

 CYCLE    4
  SDIIS (wt  0.000): -0.0590  0.2096  0.8494
 A-DIIS (wt  1.000):  0.0000  0.0000  1.0000
  DIIS coefficients:  0.0000  0.0000  1.0000
 SCF Error: norm([F,P])=      0.442042017553, max([F,P])=      0.386566792489
 orbitals (Q,E):
 ---------------
 S :1...3            ( 2.00    -6.3214)  ( 2.00    -0.2478)  ( 0.00     0.2723)
 P :1...2            ( 1.00    -0.0468)  ( 0.00     0.1916)
 D :1...1            ( 0.00     1.1452)
 F :1...1            ( 0.00     3.4686)

 CYCLE    5
  SDIIS (wt  0.000): -0.0164 -0.0293  0.3638  0.6819
 A-DIIS (wt  1.000):  0.0000  0.0000  0.0966  0.9034
  DIIS coefficients:  0.0000  0.0000  0.0966  0.9034
 SCF Error: norm([F,P])=      0.215593907540, max([F,P])=      0.197107993768
 orbitals (Q,E):
 ---------------
 S :1...3            ( 2.00    -6.7835)  ( 2.00    -0.4032)  ( 0.00     0.1648)
 P :1...2            ( 1.00    -0.1843)  ( 0.00     0.0973)
 D :1...1            ( 0.00     0.9774)
 F :1...1            ( 0.00     3.2785)

 CYCLE    6
  SDIIS (wt  0.212):  0.0014 -0.0175 -0.0520  0.2997  0.7685
 A-DIIS (wt  0.788):  0.0000  0.0000  0.0000  0.0000  1.0000
  DIIS coefficients:  0.0003 -0.0037 -0.0110  0.0634  0.9510
 SCF Error: norm([F,P])=      0.087896467660, max([F,P])=      0.079060506992
 orbitals (Q,E):
 ---------------
 S :1...3            ( 2.00    -6.5865)  ( 2.00    -0.3297)  ( 0.00     0.2120)
 P :1...2            ( 1.00    -0.1166)  ( 0.00     0.1383)
 D :1...1            ( 0.00     1.0553)
 F :1...1            ( 0.00     3.3662)

 CYCLE    7
  SDIIS (wt  0.645): -0.0002  0.0016 -0.0012 -0.0706  0.2336  0.8367
 A-DIIS (wt  0.355):  0.0000  0.0000  0.0000  0.0000  0.0000  1.0000
  DIIS coefficients: -0.0001  0.0010 -0.0008 -0.0456  0.1508  0.8946
 SCF Error: norm([F,P])=      0.039810040971, max([F,P])=      0.036102929289
 orbitals (Q,E):
 ---------------
 S :1...3            ( 2.00    -6.6597)  ( 2.00    -0.3558)  ( 0.00     0.1943)
 P :1...2            ( 1.00    -0.1403)  ( 0.00     0.1227)
 D :1...1            ( 0.00     1.0274)
 F :1...1            ( 0.00     3.3347)

 CYCLE    8
  SDIIS (wt  0.936):  0.0000 -0.0000  0.0001  0.0045 -0.0468  0.0722  0.9699
 A-DIIS (wt  0.064):  0.0000  0.0000  0.0000  0.0000  0.0000  0.0000  1.0000
  DIIS coefficients:  0.0000 -0.0000  0.0001  0.0042 -0.0438  0.0676  0.9718
 SCF Error: norm([F,P])=      0.008085664981, max([F,P])=      0.007315306127
 orbitals (Q,E):
 ---------------
 S :1...3            ( 2.00    -6.6469)  ( 2.00    -0.3512)  ( 0.00     0.1973)
 P :1...2            ( 1.00    -0.1360)  ( 0.00     0.1254)
 D :1...1            ( 0.00     1.0323)
 F :1...1            ( 0.00     3.3402)

 CYCLE    9
  SDIIS (wt  1.000): -0.0000 -0.0000  0.0000 -0.0000  0.0014 -0.0057 -0.0076  1.0119
  DIIS coefficients: -0.0000 -0.0000  0.0000 -0.0000  0.0014 -0.0057 -0.0076  1.0119
 SCF Error: norm([F,P])=      0.000296891091, max([F,P])=      0.000268546514
 orbitals (Q,E):
 ---------------
 S :1...3            ( 2.00    -6.6473)  ( 2.00    -0.3513)  ( 0.00     0.1972)
 P :1...2            ( 1.00    -0.1362)  ( 0.00     0.1253)
 D :1...1            ( 0.00     1.0321)
 F :1...1            ( 0.00     3.3400)

 CYCLE   10
  SDIIS (wt  1.000): -0.0000 -0.0000  0.0000  0.0000 -0.0003 -0.0005  0.0184  0.9824
  DIIS coefficients: -0.0000 -0.0000  0.0000  0.0000 -0.0003 -0.0005  0.0184  0.9824
 SCF Error: norm([F,P])=      0.000000323230, max([F,P])=      0.000000256951
 orbitals (Q,E):
 ---------------
 S :1...3            ( 2.00    -6.6473)  ( 2.00    -0.3513)  ( 0.00     0.1972)
 P :1...2            ( 1.00    -0.1362)  ( 0.00     0.1253)
 D :1...1            ( 0.00     1.0321)
 F :1...1            ( 0.00     3.3400)

 CYCLE   11
  SDIIS (wt  1.000): -0.0000  0.0000  0.0002  0.0044  0.9954
  DIIS coefficients: -0.0000  0.0000  0.0002  0.0044  0.9954
 SCF Error: norm([F,P])=      0.000000003188, max([F,P])=      0.000000002647
 orbitals (Q,E):
 ---------------
 S :1...3            ( 2.00    -6.6473)  ( 2.00    -0.3513)  ( 0.00     0.1972)
 P :1...2            ( 1.00    -0.1362)  ( 0.00     0.1253)
 D :1...1            ( 0.00     1.0321)
 F :1...1            ( 0.00     3.3400)

 SCF CONVERGED

 CYCLE   12
1
 ***************************************************************************************************



                                                *******************
                                                *  R E S U L T S  *
                                                *******************
  
 *** Setting up for NEW gradients in Focky
 *** Using FIT density in Focky

 Orbital Energies, per Irrep and Spin:
 ======================================
                        Occup              E (au)              E (eV)       Diff (eV) with prev. cycle
                        -----      --------------------        ------       --------------------------
 S
               1        2.000     -0.66473159094863E+01      -180.883              -6.83E-09
               2        2.000     -0.35134921977183E+00        -9.561              -4.00E-09
               3        0.000      0.19724151702901E+00         5.367
               4        0.000      0.25814438752340E+01        70.245
               5        0.000      0.26826620261348E+02       729.989
 P
               1        1.000     -0.13617927732071E+00        -3.706              -3.70E-09
               2        0.000      0.12531170360136E+00         3.410
               3        0.000      0.16747264371451E+01        45.572
 D
               1        0.000      0.10321145268327E+01        28.085
 F
               1        0.000      0.33400309304585E+01        90.887


 Partially Occupied:
               1 P                -0.13617927732071E+00
  
 HOMO :        2 S                -0.35134921977183E+00
 LUMO :        2 P                 0.12531170360136E+00
  


 Orbital Energies, all Irreps
 ========================================

 Irrep        no.  (spin)   Occup              E (au)                E (eV)
 ---------------------------------------------------------------------------
 S             1             2.00       -0.66473159094863E+01      -180.8827
 S             2             2.00       -0.35134921977183E+00        -9.5607
 P             1             1.00       -0.13617927732071E+00        -3.7056
 P             2             0.00        0.12531170360136E+00         3.4099
 S             3             0.00        0.19724151702901E+00         5.3672
 D             1             0.00        0.10321145268327E+01        28.0853
 P             3             0.00        0.16747264371451E+01        45.5716
 S             4             0.00        0.25814438752340E+01        70.2447
 F             1             0.00        0.33400309304585E+01        90.8869
 S             5             0.00        0.26826620261348E+02       729.9895


 All Electron Calculation, thus no Orbital Energies of the Core Orbitals are calculated



 =======================================
 M U L L I K E N   P O P U L A T I O N S
 =======================================
  
 The survey below gives for each atom:
 a) the total charge (Z minus electrons)
 b) the net spin polarization (nr of electrons spin-A minus spin-B)
 c) for each spin the atomic electron valence density (integrated) per L-value.

 Atom              Charge    Spin density          S         P         D         F
 ----              ------    ------------       ------    ------    ------    ------
 1 B              -0.0000                       4.0000    1.0000    0.0000    0.0000

 Populations of individual BAS functions
 ----------------------------------------
 1 B            0.4730  1.5255 -0.1291  1.2093  0.9214  0.0290  0.0290  0.0290  0.1965  0.1965
                0.1965  0.1078  0.1078  0.1078  0.0000  0.0000  0.0000  0.0000  0.0000  0.0000
                0.0000  0.0000  0.0000  0.0000  0.0000  0.0000  0.0000  0.0000  0.0000  0.0000

 Gross Charges per Atom (Z minus electrons)
 ==========================================
            -0.0000
 Net Total: -0.00000000



 =======================================================================
 Electrostatic potential at the Nuclei due to electrons and other nuclei
 =======================================================================
  
         Atom                  Potential
         ----                  ---------
     1)   B                  11.37741465
 
 
 ========================
 No memory problems found
 ========================
 
 Maximum number of active allocate calls:         447
 
 *******************************************************************************

                             A D F   E X I T
 NORMAL TERMINATION



 =================
 Timing Statistics
 =================
  
 Total Used :                     CPU=        0.46      System=        0.03     Elapsed=        0.50

 Calls  Section                     ( Mean, Percentage )
 ---------------------------------------------------------------------------------------------------
     3  ><      ................      0.00    0.00             0.00    0.00             0.00    0.16
     1  INIT    ................      0.01    1.30             0.02   50.00             0.03    5.15
     1  GEOMET  ................      0.00    0.87             0.00   14.71             0.01    1.68
     1  INPUTA  ................      0.00    0.43             0.00    0.00             0.00    0.31
     1  MAINSY  ................      0.00    0.87             0.00    5.88             0.01    1.20
     1  SYMFIT  ................      0.00    0.22             0.00    0.00             0.00    0.16
     1  CORORT  ................      0.00    0.00             0.00    0.00             0.00    0.05
     1  SYMORB  ................      0.00    0.22             0.00    0.00             0.00    0.14
     1  CLSMAT  ................      0.00    1.08             0.00    0.00             0.01    1.05
     1  ORTHON  ................      0.00    0.22             0.00    0.00             0.00    0.30
     1  GENPT   ................      0.01    3.04             0.00    2.94             0.01    2.98
     1  PTBAS   ................      0.00    0.65             0.00    2.94             0.00    0.70
    12  FOCKY   ................      0.03   74.84             0.00   20.59             0.03   71.26
    12  FOCKTR  ................      0.00    1.95             0.00    0.00             0.00    1.97
    12  SDIIS   ................      0.00    4.56             0.00    0.00             0.00    3.78
     1  COREPS  ................      0.02    4.56             0.00    0.00             0.02    4.23
     1  POPAN   ................      0.01    1.30             0.00    0.00             0.01    1.05
     1  DEBYE   ................      0.00    0.00             0.00    0.00             0.00    0.11
     1  EXIT PROCEDURE .........      0.02    3.90             0.00    2.94             0.02    3.73


 Currently Open Files (EXIT00)
 ====================

 Unit    Access Format  Status   Type       Ident (file)
 -------------------------------------------------------
   3      SEQ    FORM   TRANSP  NORMAL      LOGFILE
                                          ( logfile )


 Buffered I/O statistics
 =======================
 Memory available:                     67108864
 Number of records fitting in memory:     16131
 Input :   0.1% of                        26729  *4k bytes
 Output:  13.8% of                         1360  *4k bytes
 Records from serial files evicted:           0
                    others evicted:           0
 Hash table lookups:      69030 with          0 conflicts (  0.00%)

 ***************************************************************************************************
 (LOGFILE)
 <Apr18-2019> <22:22:42>  ADF development version  RunTime: Apr18-2019 22:22:42  Nodes: 1  Procs: 1
 <Apr18-2019> <22:22:42>  Hydrogen (TZ2P)
 <Apr18-2019> <22:22:42>  RunType   : CREATE
 <Apr18-2019> <22:22:42>  Net Charge: 0 (Nuclei minus Electrons)
 <Apr18-2019> <22:22:42>  Symmetry  : ATOM
  Coordinates
    Atom         X           Y           Z   (Angstrom)
    1.H         0.000000    0.000000    0.000000
 <Apr18-2019> <22:22:42>  >>>> CORORT
 <Apr18-2019> <22:22:42>  >>>> CLSMAT
 <Apr18-2019> <22:22:42>  >>>> ORTHON
 <Apr18-2019> <22:22:42>  >>>> GENPT
 <Apr18-2019> <22:22:42>  Block Length=  64
 <Apr18-2019> <22:22:42>  >>>> PTBAS
 <Apr18-2019> <22:22:42>  >>>> CYCLE
 <Apr18-2019> <22:22:42>              |Error|         MaxErr       Wt(A-DIIS)
 <Apr18-2019> <22:22:42>      1      0.00000000      0.00000000
 <Apr18-2019> <22:22:42>      2      0.03052616      0.02968253
 <Apr18-2019> <22:22:42>      3      0.00718306      0.00671215    100.0
 <Apr18-2019> <22:22:42>      4      0.00117509      0.00114306      0.1
 <Apr18-2019> <22:22:42>      5      0.00002753      0.00002354      0.0
 <Apr18-2019> <22:22:42>      6      0.00000151      0.00000129      0.0
 <Apr18-2019> <22:22:42>      7      0.00000000      0.00000000      0.0
 <Apr18-2019> <22:22:42>  SCF converged
 <Apr18-2019> <22:22:42>      8      0.00000000      0.00000000      0.0
 <Apr18-2019> <22:22:42>  >>>> POPAN
 <Apr18-2019> <22:22:42>  >>>> DEBYE
 <Apr18-2019> <22:22:42>  NORMAL TERMINATION
 <Apr18-2019> <22:22:42>  END
 <Apr18-2019> <22:22:43>  ADF development version  RunTime: Apr18-2019 22:22:43  Nodes: 1  Procs: 1
 <Apr18-2019> <22:22:43>  Boron (TZ2P)
 <Apr18-2019> <22:22:43>  RunType   : CREATE
 <Apr18-2019> <22:22:43>  Net Charge: 0 (Nuclei minus Electrons)
 <Apr18-2019> <22:22:43>  Symmetry  : ATOM
  Coordinates
    Atom         X           Y           Z   (Angstrom)
    1.B         0.000000    0.000000    0.000000
 <Apr18-2019> <22:22:43>  >>>> CORORT
 <Apr18-2019> <22:22:43>  >>>> CLSMAT
 <Apr18-2019> <22:22:43>  >>>> ORTHON
 <Apr18-2019> <22:22:43>  >>>> GENPT
 <Apr18-2019> <22:22:43>  Block Length=  76
 <Apr18-2019> <22:22:43>  >>>> PTBAS
 <Apr18-2019> <22:22:43>  >>>> CYCLE
 <Apr18-2019> <22:22:43>              |Error|         MaxErr       Wt(A-DIIS)
 <Apr18-2019> <22:22:43>      1      0.00000000      0.00000000
 <Apr18-2019> <22:22:43>      2      3.20693062      2.04423772    100.0
 <Apr18-2019> <22:22:43>      3      1.04080726      0.88670381    100.0
 <Apr18-2019> <22:22:43>      4      0.44204202      0.38656679    100.0
 <Apr18-2019> <22:22:43>      5      0.21559391      0.19710799    100.0
 <Apr18-2019> <22:22:43>      6      0.08789647      0.07906051     78.8
 <Apr18-2019> <22:22:43>      7      0.03981004      0.03610293     35.5
 <Apr18-2019> <22:22:43>      8      0.00808566      0.00731531      6.4
 <Apr18-2019> <22:22:43>      9      0.00029689      0.00026855      0.0
 <Apr18-2019> <22:22:43>     10      0.00000032      0.00000026      0.0
 <Apr18-2019> <22:22:43>     11      0.00000000      0.00000000      0.0
 <Apr18-2019> <22:22:43>  SCF converged
 <Apr18-2019> <22:22:43>     12      0.00000000      0.00000000      0.0
 <Apr18-2019> <22:22:43>  >>>> POPAN
 <Apr18-2019> <22:22:43>  >>>> DEBYE
 <Apr18-2019> <22:22:43>  NORMAL TERMINATION
 <Apr18-2019> <22:22:43>  END


 Parallel Execution: Process Information
 ==============================================================================
 Rank   Node Name                              NodeID   MyNodeRank  NodeMaster
    0   BAZIS-cn076                               0          0          0
    1   BAZIS-cn076                               0          1         -1
    2   BAZIS-cn076                               0          2         -1
    3   BAZIS-cn076                               0          3         -1
    4   BAZIS-cn076                               0          4         -1
    5   BAZIS-cn076                               0          5         -1
    6   BAZIS-cn076                               0          6         -1
    7   BAZIS-cn076                               0          7         -1
    8   BAZIS-cn076                               0          8         -1
    9   BAZIS-cn076                               0          9         -1
   10   BAZIS-cn076                               0         10         -1
   11   BAZIS-cn076                               0         11         -1
 ==============================================================================


May use up to 30736MB of RAM as shared memory on node 0


XC
  GGA BP86
END

ANALYTICALFREQ
END

SCF
  iterations 250
END

Geometry
  Iterations 300
  Optim Cartesian
  Convergence E=1e-4 grad=1e-4
End

SYMMETRY nosym
CHARGE 0

ZLMFIT
  Quality normal
END

BECKEGRID
  Quality good
End

ATOMS
B      -0.55795709      -0.82606712       0.00112417
H      -1.19622081       0.16116189      -0.11445905
H      -0.05430517      -1.08268979       1.03835136
H      -0.31484693      -1.48386251      -0.94943528
END

Fragments
H t21.H
B t21.B
End
end input

 *******************************************************************************
 *                                                                             *
 *  -------------------------------------                                      *
 *   Amsterdam Density Functional  (ADF)         development version           *
 *  -------------------------------------                                      *
 *                                               r61132 2017-09-08             *
 *                                                                             *
 *                                                                             *
 *                              =================                              *
 *                              |               |                              *
 *                              |     A D F     |                              *
 *                              |               |                              *
 *                              =================                              *
 *                                                                             *
 *                                                                             *
 *   Online information and documentation:  https://www.scm.com/support/       *
 *   E-mail:  support@scm.com   info@scm.com                                   *
 *                                                                             *
 *   Scientific publications using ADF results must be properly referenced     *
 *   See the User Manuals (or the web site) for recommended citations          *
 *   The terms and conditions of the End User License Agreement apply to       *
 *   the use of ADF, https://www.scm.com/license-terms/                        *
 *                                                                             *
 **********************  x86_64_linux_intel / intelmpi  ************************
 
 Licensed to: VU/FEW (+ SARA) / ALGEMEEN / Amsterdam / THE NETHERLANDS
 SCM User ID: u7668
  
 ADF development version  RunTime: Apr18-2019 22:22:43  Nodes: 1  Procs: 12

 Temporary files are created in /local/datastore0/tcst25/186820/kid_0.XypEyL


Communication costs MPI_COMM_WORLD:      2.589 usec per message,   0.0133 usec per 8-byte item
Communication costs for intra-node:      2.573 usec per message,   0.0133 usec per 8-byte item

 *** (NO TITLE) ***



 ===========================
 A T T A C H E D   F I L E S
 ===========================
  



 ===============================
 M O D E L   P A R A M E T E R S
 ===============================
  
 DENSITY FUNCTIONAL POTENTIAL (scf)
    LDA:                               VWN                                      
    Gradient Corrections:              Becke88 Perdew86                        == Not Default ==

 SPIN  (restricted / unrestr.)
    Molecule:                          Restricted                               
    Fragments:                         Restricted                               

 OTHER ASPECTS
    Relativistic Corrections:          ---                                      

    Nuclear Charge Density Model:      Point Charge Nuclei                      
    Core Treatment:                    Frozen Orbital(s)                        

    Hyperfine or Zeeman Interaction:   ---                                      


 Fragment File(s)
 ----------------
 B:
         file : t21.B
         jobid: ADF development version  RunTime: Apr18-2019 22:22:43  Nodes: 1  Procs: 1
         title: Boron (TZ2P)
 H:
         file : t21.H
         jobid: ADF development version  RunTime: Apr18-2019 22:22:42  Nodes: 1  Procs: 1
         title: Hydrogen (TZ2P)



                                   *********************************************
                                   *  R U N   T Y P E : GEOMETRY OPTIMIZATION  *
                                   *********************************************
  



 ===============
 G E O M E T R Y  ***  3D  Molecule  ***
 ===============
  

 ATOMS
 =====                            X Y Z                    CHARGE
                                (Angstrom)             Nucl     +Core       At.Mass
                       --------------------------    ----------------       -------
    1  B              -0.5580   -0.8261    0.0011      5.00      5.00       11.0093
    2  H              -1.1962    0.1612   -0.1145      1.00      1.00        1.0078
    3  H              -0.0543   -1.0827    1.0384      1.00      1.00        1.0078
    4  H              -0.3148   -1.4839   -0.9494      1.00      1.00        1.0078


 FRAGMENTS
 =========                                     Atoms in this Fragment     Cart. coord.s (Angstrom)
                                               -------------------------------------------------------
    1  B                                                 1  B           -0.5580   -0.8261    0.0011
    2  H                                                 2  H           -1.1962    0.1612   -0.1145
    3  H                                                 3  H           -0.0543   -1.0827    1.0384
    4  H                                                 4  H           -0.3148   -1.4839   -0.9494


 Interatomic Distance Matrix (Angstrom)
 --------------------------------------

   1)     0.000
   2)     1.181   0.000
   3)     1.181   2.045   0.000
   4)     1.181   2.045   2.045   0.000

 Min. Distance =    1.1813
 Max. Distance =    2.0445



 =====================================
 S Y M M E T R Y ,   E L E C T R O N S
 =====================================
  
 Symmetry: NOSYM

 Irreducible Representations, including subspecies
 -------------------------------------------------
 A


 Configuration of Valence Electrons
 ==================================
 ( determined in the SCF procedure )

 Total:   8

 Net Charge: 0 (Nuclei minus Electrons)

 Aufbau principle for MO occupations will be applied through SCF cycle no.     125
 Thereafter, the program will assign electrons to MOs that are spatially
 similar to the occupied MOs in a "reference" cycle ("KeepOrbitals").
 The reference cycle is always the PREVIOUS cycle: it will evolve with
 the SCF procedure.
1
 ***************************************************************************************************



                                      ****************************************
                                      *  B U I L D : (Fragments, Functions)  *
                                      ****************************************
  



 =======
 S F O s  ***  (Symmetrized Fragment Orbitals)  ***
 =======
  
 SFOs are linear combinations of (valence) Fragment Orbitals (FOs), such that the SFOs transform as the
 irreducible representations of the (molecular) symmetry group. Each SFO is therefore characterized by
 an irrep of the molecule and by a few (or only one) generating FOs.
 The SFOs constitute a symmetry-adapted basis for the Fock matrix. The MO eigenvector coefficients in
 this basis provide a direct interpretation of the MOs in terms of Frontier Orbital Theory.

 The SFOs are combined with auxiliary Core Functions (CFs) to ensure orthogonalization on the (frozen)
 Core Orbitals (COs). The Core-orthogonalized SFOs (CSFOs) constitute the true Fock basis.

 The FOs, and hence also the (C)SFOs are combinations of the elementary basis functions (BAS). The basis
 functions that participate in the description of the SFOs depend on the irrep. The indices of the
 involved functions are printed below for each irrep.
 (The complete list of primitive basis functions is printed in another section)

 Total nr. of (C)SFOs (summation over all irreps) :    59

 NOTE: a (C)SFO that is defined as a combination of more than one FO is usually NOT normalized.



                                       === A ===
 Nr. of SFOs :   59
 Cartesian basis functions that participate in this irrep (total number =    66) :
      1     2     3     4     5     6     9    12     7    10
     13     8    11    14    15    16    17    18    19    20
     21    22    23    24    25    26    27    28    29    30
     31    32    33    34    35    36    37    38    39    40
     41    42    43    44    45    46    47    48    49    50
     51    52    53    54    55    56    57    58    59    60
     61    62    63    64    65    66

    SFO  (index         Fragment          Generating    Expansion in Fragment Orbitals
  indx  incl.CFs)   Occup   Orb.Energy   FragmentType  Coeff.   Orbital     on Fragment
 --------------------------------------------------------------------------------------
     1       1      2.000      -6.647 au  B             1.00      1 S               1
                        (    -180.883 eV)
     2       2      2.000      -0.351 au  B             1.00      2 S               1
                        (      -9.561 eV)
     3       3       --         0.197 au  B             1.00      3 S               1
                        (       5.367 eV)
     4       4       --         2.581 au  B             1.00      4 S               1
                        (      70.245 eV)
     5       5       --        26.827 au  B             1.00      5 S               1
                        (     729.989 eV)
     6       6      0.333      -0.136 au  B             1.00      1 P:x             1
                        (      -3.706 eV)
     7       7       --         0.125 au  B             1.00      2 P:x             1
                        (       3.410 eV)
     8       8       --         1.675 au  B             1.00      3 P:x             1
                        (      45.572 eV)
     9       9      0.333      -0.136 au  B             1.00      1 P:y             1
                        (      -3.706 eV)
    10      10       --         0.125 au  B             1.00      2 P:y             1
                        (       3.410 eV)
    11      11       --         1.675 au  B             1.00      3 P:y             1
                        (      45.572 eV)
    12      12      0.333      -0.136 au  B             1.00      1 P:z             1
                        (      -3.706 eV)
    13      13       --         0.125 au  B             1.00      2 P:z             1
                        (       3.410 eV)
    14      14       --         1.675 au  B             1.00      3 P:z             1
                        (      45.572 eV)
    15      15       --         1.032 au  B             1.00      1 D:z2            1
                        (      28.085 eV)
    16      16       --         1.032 au  B             1.00      1 D:x2-y2         1
                        (      28.085 eV)
    17      17       --         1.032 au  B             1.00      1 D:xy            1
                        (      28.085 eV)
    18      18       --         1.032 au  B             1.00      1 D:xz            1
                        (      28.085 eV)
    19      19       --         1.032 au  B             1.00      1 D:yz            1
                        (      28.085 eV)
    20      20       --         3.340 au  B             1.00      1 F:z3            1
                        (      90.887 eV)
    21      21       --         3.340 au  B             1.00      1 F:z             1
                        (      90.887 eV)
    22      22       --         3.340 au  B             1.00      1 F:xyz           1
                        (      90.887 eV)
    23      23       --         3.340 au  B             1.00      1 F:z2x           1
                        (      90.887 eV)
    24      24       --         3.340 au  B             1.00      1 F:z2y           1
                        (      90.887 eV)
    25      25       --         3.340 au  B             1.00      1 F:x             1
                        (      90.887 eV)
    26      26       --         3.340 au  B             1.00      1 F:y             1
                        (      90.887 eV)
    27      27      1.000      -0.244 au  H             1.00      1 S               2
                        (      -6.626 eV)
    28      28       --         0.093 au  H             1.00      2 S               2
                        (       2.537 eV)
    29      29       --         1.515 au  H             1.00      3 S               2
                        (      41.236 eV)
    30      30       --         0.400 au  H             1.00      1 P:x             2
                        (      10.872 eV)
    31      31       --         0.400 au  H             1.00      1 P:y             2
                        (      10.872 eV)
    32      32       --         0.400 au  H             1.00      1 P:z             2
                        (      10.872 eV)
    33      33       --         2.561 au  H             1.00      1 D:z2            2
                        (      69.689 eV)
    34      34       --         2.561 au  H             1.00      1 D:x2-y2         2
                        (      69.689 eV)
    35      35       --         2.561 au  H             1.00      1 D:xy            2
                        (      69.689 eV)
    36      36       --         2.561 au  H             1.00      1 D:xz            2
                        (      69.689 eV)
    37      37       --         2.561 au  H             1.00      1 D:yz            2
                        (      69.689 eV)
    38      38      1.000      -0.244 au  H             1.00      1 S               3
                        (      -6.626 eV)
    39      39       --         0.093 au  H             1.00      2 S               3
                        (       2.537 eV)
    40      40       --         1.515 au  H             1.00      3 S               3
                        (      41.236 eV)
    41      41       --         0.400 au  H             1.00      1 P:x             3
                        (      10.872 eV)
    42      42       --         0.400 au  H             1.00      1 P:y             3
                        (      10.872 eV)
    43      43       --         0.400 au  H             1.00      1 P:z             3
                        (      10.872 eV)
    44      44       --         2.561 au  H             1.00      1 D:z2            3
                        (      69.689 eV)
    45      45       --         2.561 au  H             1.00      1 D:x2-y2         3
                        (      69.689 eV)
    46      46       --         2.561 au  H             1.00      1 D:xy            3
                        (      69.689 eV)
    47      47       --         2.561 au  H             1.00      1 D:xz            3
                        (      69.689 eV)
    48      48       --         2.561 au  H             1.00      1 D:yz            3
                        (      69.689 eV)
    49      49      1.000      -0.244 au  H             1.00      1 S               4
                        (      -6.626 eV)
    50      50       --         0.093 au  H             1.00      2 S               4
                        (       2.537 eV)
    51      51       --         1.515 au  H             1.00      3 S               4
                        (      41.236 eV)
    52      52       --         0.400 au  H             1.00      1 P:x             4
                        (      10.872 eV)
    53      53       --         0.400 au  H             1.00      1 P:y             4
                        (      10.872 eV)
    54      54       --         0.400 au  H             1.00      1 P:z             4
                        (      10.872 eV)
    55      55       --         2.561 au  H             1.00      1 D:z2            4
                        (      69.689 eV)
    56      56       --         2.561 au  H             1.00      1 D:x2-y2         4
                        (      69.689 eV)
    57      57       --         2.561 au  H             1.00      1 D:xy            4
                        (      69.689 eV)
    58      58       --         2.561 au  H             1.00      1 D:xz            4
                        (      69.689 eV)
    59      59       --         2.561 au  H             1.00      1 D:yz            4
                        (      69.689 eV)



 ================================
 (Slater-type)  F U N C T I O N S  ***  (Basis and Fit)  ***
 ================================
  

 Atom Type    1  (B)
 ==============

 Valence Basis Sets:  10
 -----------------------
   1 S    6.500000
   1 S    4.080000
   2 S    2.800000
   2 S    1.700000
   2 S    1.040000
   2 P    2.600000
   2 P    1.260000
   2 P    0.680000
   3 D    2.000000
   4 F    3.000000

 Atom Type    2  (H)
 ==============

 Valence Basis Sets:   5
 -----------------------
   1 S    0.690000
   1 S    0.920000
   1 S    1.580000
   2 P    1.250000
   3 D    2.500000


 BAS: List of all Elementary Cartesian Basis Functions
 =====================================================

 The numbering in the list below (to the right of the function characteristics) is referred
 to in print-outs of MO eigenvectors and Mulliken populations in the BAS representation
 (as contrasted to the SFO representation).

 Notes:
 1. The functions are characterized by a polynomial prefactor (powers of x,y,z and r) and
    an exponential decay factor alpha.
 2. Since the basis sets are specific for an atom TYPE, the individual functions occur on
    all atoms of that type.
 3. The word 'Core' in the left margin signals that it is a Core Function (CF) : not a
    degree of freedom in the valence set, but only used to ensure orthogonalization of
    the other valence basis functions on the frozen Core Orbitals.


 (power of) X  Y  Z  R     Alpha  on Atom
            ==========     =====     ==========

 B                                    1
                                  ---------------------------------------------------------------------------
            0  0  0  0     6.500      1
            0  0  0  0     4.080      2
            0  0  0  1     2.800      3
            0  0  0  1     1.700      4
            0  0  0  1     1.040      5
            1  0  0  0     2.600      6
            0  1  0  0     2.600      7
            0  0  1  0     2.600      8
            1  0  0  0     1.260      9
            0  1  0  0     1.260     10
            0  0  1  0     1.260     11
            1  0  0  0     0.680     12
            0  1  0  0     0.680     13
            0  0  1  0     0.680     14
            2  0  0  0     2.000     15
            1  1  0  0     2.000     16
            1  0  1  0     2.000     17
            0  2  0  0     2.000     18
            0  1  1  0     2.000     19
            0  0  2  0     2.000     20
            3  0  0  0     3.000     21
            2  1  0  0     3.000     22
            2  0  1  0     3.000     23
            1  2  0  0     3.000     24
            1  1  1  0     3.000     25
            1  0  2  0     3.000     26
            0  3  0  0     3.000     27
            0  2  1  0     3.000     28
            0  1  2  0     3.000     29
            0  0  3  0     3.000     30

 H                                    2    3    4
                                  ---------------------------------------------------------------------------
            0  0  0  0     0.690     31   43   55
            0  0  0  0     0.920     32   44   56
            0  0  0  0     1.580     33   45   57
            1  0  0  0     1.250     34   46   58
            0  1  0  0     1.250     35   47   59
            0  0  1  0     1.250     36   48   60
            2  0  0  0     2.500     37   49   61
            1  1  0  0     2.500     38   50   62
            1  0  1  0     2.500     39   51   63
            0  2  0  0     2.500     40   52   64
            0  1  1  0     2.500     41   53   65
            0  0  2  0     2.500     42   54   66

 Total number of charge fitting functions (nprimf)       234
 Total number of Cartesian basis functions (naos)         66
 Total number of Cartesian core functions  (ncos)          0



 Coordinates (Cartesian)
 =======================

     Atom                    bohr                                 angstrom                 Geometric Variables
                   X           Y           Z              X           Y           Z       (0:frozen, *:LT par.)
 --------------------------------------------------------------------------------------------------------------
     1 B      -1.054386   -1.561041    0.002124      -0.557957   -0.826067    0.001124      1       2       3
     2 H      -2.260530    0.304552   -0.216296      -1.196221    0.161162   -0.114459      4       5       6
     3 H      -0.102622   -2.045987    1.962200      -0.054305   -1.082690    1.038351      7       8       9
     4 H      -0.594974   -2.804094   -1.794173      -0.314847   -1.483863   -0.949435     10      11      12
 --------------------------------------------------------------------------------------------------------------
1
 ***************************************************************************************************



                                              ***********************
                                              *  T E C H N I C A L  *
                                              ***********************
  



 =============================================================
 P A R A L L E L I Z A T I O N  and  V E C T O R I Z A T I O N
 =============================================================
  
 Nr of parallel processes:                               12
 Maximum vector length in NumInt loops:                 128

 IO buffersize (Mb):                                     64.000000



 ===============================
 G E O M E T R Y   U P D A T E S
 ===============================
  
 Optimization coordinates:                       Cartesian
 Optimization code branch:                       NEW
 Hessian update method:                          BFGS (Broyden-Fletcher-Goldfarb-Shanno)

 Iterative Geometry Improvements:
    Max. nr. of iterations:                        300
    Convergence criteria:
         Change in energy (hartree):                 0.0001000000
         Gradients (au/Angstrom):                    0.0001000000
         Cart/bondlength changes (Angstrom):         0.0100000000
    Max. step to take:
         Trust Radius:                               0.2000000000

 GDIIS (Geometry Direct Inversion in Iteration Space):
    First geometry cycle:                            0
    Max. number expansion vectors:                   5



 =====================
 S C F   U P D A T E S
 =====================
  
 Max. nr. of cycles:                               250
 Convergence criterion:                              0.0000010000
   secondary criterion:                              0.0010000000

 Mix parameter (when DIIS does not apply):           0.2000000000
 Mixed ADIIS+DIIS will be used
    Max number of expansion vectors:                10
    Pure ADIIS when Max([F,P]) is above              0.1000000000
    Pure DIIS when Max([F,P]) is below               0.0010000000



 =================
 P R E C I S I O N  ***  (General: NumInt, NeglectFunctionTails, ...)  ***
 =================
  

 NumInt:           Target precision:                 6.0000000000
 -------           Initial precision:                6.0000000000
                   Min. precision (optimization):    6.0000000000

 Neglect Functions:          Basis functions:        0.1000000000E-07
 ------------------          Fit functions:          0.1000000000E-07



 ===========================
 L I N E A R   S C A L I N G
 ===========================
  

 Cut-off radii density fit:                        0.1000000000E-09
 Overlap cut-off criterion AO matrix elements:     0.1000000000E-07
 Cut-offs for Coulomb potential and fitted density:0.1000000000E-09
 Cut-off criterion for Coulomb multipole terms:    0.1000000000E-09
 Progressive Convergence parameter:                 0.000000000    
1
 ***************************************************************************************************



                                            ***************************
                                            *  C O M P U T A T I O N  *
                                            ***************************
  

 Number of elements of the density matrix on this node (used, total):       465      2211



 ===========================================
 Numerical Integration : Fuzzy Cells (Becke)
 ===========================================
  
 Becke grid quality: GOOD           
  
 Lebedev angular grid order:             min:  11 max:  31
 Nr. of radial points:                   min:  54 max:  65

 Total nr. of points:      49213
 Nr. of blocks:              385
 Block length:               128
 Nr. of dummy points:         67


 Test of Precision of the Numerical Integration Grid
 ===================================================

 Integral of the Total Core Density:                   0.00000000000000



 ========================
 Density Fitting (zlmFit)
 ========================
  
 ZlmFit Fit Quality: NORMAL         
  
 Max L-expansion:                        min:   6 max:   7
 Nr. of radial interpolation points:     min:  39 max:  48



 =====
 S C F  ***  ScaSCF  ***
 =====
  
 Initial density matrix is calculated as sum of fragments

 CYCLE    1
 SCF Error: norm([F,P])=      1.474330388977, max([F,P])=      0.575896476990
 orbitals (Q,E):
 ---------------
 A :1...14           ( 2.00    -6.7265)  ( 2.00    -0.6103)  ( 2.00    -0.4599)  ( 2.00    -0.4599)
                     ( 0.00    -0.2167)  ( 0.00    -0.0203)  ( 0.00     0.0237)  ( 0.00     0.0237)
                     ( 0.00     0.0400)  ( 0.00     0.0400)  ( 0.00     0.0879)  ( 0.00     0.1121)
                     ( 0.00     0.2911)  ( 0.00     0.2911)

 CYCLE    2
  SDIIS (wt  0.000):  0.0768  0.9232
 A-DIIS (wt  1.000):  0.0000  1.0000
  DIIS coefficients:  0.0000  1.0000
 SCF Error: norm([F,P])=      0.261870979687, max([F,P])=      0.047810269980
 orbitals (Q,E):
 ---------------
 A :1...5            ( 2.00    -6.3941)  ( 2.00    -0.4092)  ( 2.00    -0.2620)  ( 2.00    -0.2620)
                     ( 0.00    -0.0651)

 CYCLE    3
  SDIIS (wt  0.000):  0.0104  0.4274  0.5622
 A-DIIS (wt  1.000):  0.0000  0.3008  0.6992
  DIIS coefficients:  0.0000  0.3008  0.6992
 SCF Error: norm([F,P])=      0.195368545018, max([F,P])=      0.039612848022
 orbitals (Q,E):
 ---------------
 A :1...5            ( 2.00    -6.5860)  ( 2.00    -0.4834)  ( 2.00    -0.3290)  ( 2.00    -0.3290)
                     ( 0.00    -0.1278)

 CYCLE    4
  SDIIS (wt  0.854):  0.0884  0.3133  0.5983
 A-DIIS (wt  0.146):  0.0000  0.0000  1.0000
  DIIS coefficients:  0.0755  0.2675  0.6571
 SCF Error: norm([F,P])=      0.071599174267, max([F,P])=      0.015476274827
 orbitals (Q,E):
 ---------------
 A :1...5            ( 2.00    -6.5325)  ( 2.00    -0.4683)  ( 2.00    -0.3167)  ( 2.00    -0.3167)
                     ( 0.00    -0.1124)

 CYCLE    5
  SDIIS (wt  0.989):  0.0037  0.0252  0.1601  0.8110
 A-DIIS (wt  0.011):  0.0000  0.0000  0.0000  1.0000
  DIIS coefficients:  0.0036  0.0249  0.1584  0.8130
[...]
 Records from serial files evicted:           0
                    others evicted:           0
 Hash table lookups:     928004 with          0 conflicts (  0.00%)

 ***************************************************************************************************
 (LOGFILE)
 <Apr18-2019> <22:22:42>  ADF development version  RunTime: Apr18-2019 22:22:42  Nodes: 1  Procs: 1
 <Apr18-2019> <22:22:42>  Hydrogen (TZ2P)
 <Apr18-2019> <22:22:42>  RunType   : CREATE
 <Apr18-2019> <22:22:42>  Net Charge: 0 (Nuclei minus Electrons)
 <Apr18-2019> <22:22:42>  Symmetry  : ATOM
  Coordinates
    Atom         X           Y           Z   (Angstrom)
    1.H         0.000000    0.000000    0.000000
 <Apr18-2019> <22:22:42>  >>>> CORORT
 <Apr18-2019> <22:22:42>  >>>> CLSMAT
 <Apr18-2019> <22:22:42>  >>>> ORTHON
 <Apr18-2019> <22:22:42>  >>>> GENPT
 <Apr18-2019> <22:22:42>  Block Length=  64
 <Apr18-2019> <22:22:42>  >>>> PTBAS
 <Apr18-2019> <22:22:42>  >>>> CYCLE
 <Apr18-2019> <22:22:42>              |Error|         MaxErr       Wt(A-DIIS)
 <Apr18-2019> <22:22:42>      1      0.00000000      0.00000000
 <Apr18-2019> <22:22:42>      2      0.03052616      0.02968253
 <Apr18-2019> <22:22:42>      3      0.00718306      0.00671215    100.0
 <Apr18-2019> <22:22:42>      4      0.00117509      0.00114306      0.1
 <Apr18-2019> <22:22:42>      5      0.00002753      0.00002354      0.0
 <Apr18-2019> <22:22:42>      6      0.00000151      0.00000129      0.0
 <Apr18-2019> <22:22:42>      7      0.00000000      0.00000000      0.0
 <Apr18-2019> <22:22:42>  SCF converged
 <Apr18-2019> <22:22:42>      8      0.00000000      0.00000000      0.0
 <Apr18-2019> <22:22:42>  >>>> POPAN
 <Apr18-2019> <22:22:42>  >>>> DEBYE
 <Apr18-2019> <22:22:42>  NORMAL TERMINATION
 <Apr18-2019> <22:22:42>  END
 <Apr18-2019> <22:22:43>  ADF development version  RunTime: Apr18-2019 22:22:43  Nodes: 1  Procs: 1
 <Apr18-2019> <22:22:43>  Boron (TZ2P)
 <Apr18-2019> <22:22:43>  RunType   : CREATE
 <Apr18-2019> <22:22:43>  Net Charge: 0 (Nuclei minus Electrons)
 <Apr18-2019> <22:22:43>  Symmetry  : ATOM
  Coordinates
    Atom         X           Y           Z   (Angstrom)
    1.B         0.000000    0.000000    0.000000
 <Apr18-2019> <22:22:43>  >>>> CORORT
 <Apr18-2019> <22:22:43>  >>>> CLSMAT
 <Apr18-2019> <22:22:43>  >>>> ORTHON
 <Apr18-2019> <22:22:43>  >>>> GENPT
 <Apr18-2019> <22:22:43>  Block Length=  76
 <Apr18-2019> <22:22:43>  >>>> PTBAS
 <Apr18-2019> <22:22:43>  >>>> CYCLE
 <Apr18-2019> <22:22:43>              |Error|         MaxErr       Wt(A-DIIS)
 <Apr18-2019> <22:22:43>      1      0.00000000      0.00000000
 <Apr18-2019> <22:22:43>      2      3.20693062      2.04423772    100.0
 <Apr18-2019> <22:22:43>      3      1.04080726      0.88670381    100.0
 <Apr18-2019> <22:22:43>      4      0.44204202      0.38656679    100.0
 <Apr18-2019> <22:22:43>      5      0.21559391      0.19710799    100.0
 <Apr18-2019> <22:22:43>      6      0.08789647      0.07906051     78.8
 <Apr18-2019> <22:22:43>      7      0.03981004      0.03610293     35.5
 <Apr18-2019> <22:22:43>      8      0.00808566      0.00731531      6.4
 <Apr18-2019> <22:22:43>      9      0.00029689      0.00026855      0.0
 <Apr18-2019> <22:22:43>     10      0.00000032      0.00000026      0.0
 <Apr18-2019> <22:22:43>     11      0.00000000      0.00000000      0.0
 <Apr18-2019> <22:22:43>  SCF converged
 <Apr18-2019> <22:22:43>     12      0.00000000      0.00000000      0.0
 <Apr18-2019> <22:22:43>  >>>> POPAN
 <Apr18-2019> <22:22:43>  >>>> DEBYE
 <Apr18-2019> <22:22:43>  NORMAL TERMINATION
 <Apr18-2019> <22:22:43>  END
 <Apr18-2019> <22:22:43>  ADF development version  RunTime: Apr18-2019 22:22:43  Nodes: 1  Procs: 12
 <Apr18-2019> <22:22:44>  *** (NO TITLE) ***
 <Apr18-2019> <22:22:44>  RunType   : GEOMETRY OPTIMIZATION
 <Apr18-2019> <22:22:44>  Net Charge: 0 (Nuclei minus Electrons)
 <Apr18-2019> <22:22:44>  Symmetry  : NOSYM
 <Apr18-2019> <22:22:44>  >>>> FRAGM
  Coordinates in Geometry Cycle 1
    Atom         X           Y           Z   (Angstrom)
    1.B        -0.557957   -0.826067    0.001124
    2.H        -1.196221    0.161162   -0.114459
    3.H        -0.054305   -1.082690    1.038351
    4.H        -0.314847   -1.483863   -0.949435
 <Apr18-2019> <22:22:44>  >>>> CORORT
 <Apr18-2019> <22:22:44>  >>>> CLSMAT
 <Apr18-2019> <22:22:44>  >>>> ORTHON
 <Apr18-2019> <22:22:44>  >>>> GENPT
 <Apr18-2019> <22:22:44>  Block Length= 128
 <Apr18-2019> <22:22:44>  >>>> PTBAS
 <Apr18-2019> <22:22:44>  >>>> CYCLE
 <Apr18-2019> <22:22:44>              |Error|         MaxErr       Wt(A-DIIS)
 <Apr18-2019> <22:22:44>      1      1.47433039      0.57589648
 <Apr18-2019> <22:22:44>      2      0.26187098      0.04781027    100.0
 <Apr18-2019> <22:22:44>      3      0.19536855      0.03961285    100.0
 <Apr18-2019> <22:22:44>      4      0.07159917      0.01547627     14.6
 <Apr18-2019> <22:22:44>      5      0.00926237      0.00206056      1.1
 <Apr18-2019> <22:22:44>      6      0.00055781      0.00015156      0.0
 <Apr18-2019> <22:22:44>      7      0.00006154      0.00001177      0.0
 <Apr18-2019> <22:22:45>      8      0.00000454      0.00000135      0.0
 <Apr18-2019> <22:22:45>      9      0.00000015      0.00000003      0.0
 <Apr18-2019> <22:22:45>  SCF converged
 <Apr18-2019> <22:22:45>     10      0.00000000      0.00000000      0.0
 <Apr18-2019> <22:22:45>  >>>> TOTEN
 <Apr18-2019> <22:22:45>  >>>> POPAN
 <Apr18-2019> <22:22:45>  >>>> DEBYE
 <Apr18-2019> <22:22:45>  >>>> ENGRAD
 <Apr18-2019> <22:22:45>  current energy                               -0.57749092 Hartree
 <Apr18-2019> <22:22:45>  energy change                      -0.57749092     0.00010000    F
 <Apr18-2019> <22:22:45>  constrained gradient max            0.01419850     0.00010000    F
 <Apr18-2019> <22:22:45>  constrained gradient rms            0.00929192     0.00006667    F
 <Apr18-2019> <22:22:45>  gradient max                        0.01419850
 <Apr18-2019> <22:22:45>  gradient rms                        0.00929192
 <Apr18-2019> <22:22:45>  cart. step max                      0.06536795     0.01000000    F
 <Apr18-2019> <22:22:45>  cart. step rms                      0.02783106     0.00666667    F
  Coordinates in Geometry Cycle 2
    Atom         X           Y           Z   (Angstrom)
    1.B        -0.492589   -0.782205   -0.016291
    2.H        -1.226300    0.158376   -0.109962
    3.H        -0.070354   -1.100780    1.056959
    4.H        -0.334086   -1.506848   -0.955125
 <Apr18-2019> <22:22:45>  >>>> CORORT
 <Apr18-2019> <22:22:45>  >>>> CLSMAT
 <Apr18-2019> <22:22:45>  >>>> ORTHON
 <Apr18-2019> <22:22:45>  >>>> GENPT
 <Apr18-2019> <22:22:45>  Block Length= 128
 <Apr18-2019> <22:22:45>  >>>> PTBAS
 <Apr18-2019> <22:22:45>  >>>> CYCLE
 <Apr18-2019> <22:22:45>              |Error|         MaxErr       Wt(A-DIIS)
 <Apr18-2019> <22:22:45>      1      0.04772994      0.01730719
 <Apr18-2019> <22:22:45>      2      0.00618366      0.00128043    100.0
 <Apr18-2019> <22:22:45>      3      0.00602699      0.00121664    100.0
 <Apr18-2019> <22:22:45>      4      0.00068498      0.00022136      0.0
 <Apr18-2019> <22:22:45>      5      0.00005484      0.00001329      0.0
 <Apr18-2019> <22:22:46>      6      0.00002076      0.00000584      0.0
 <Apr18-2019> <22:22:46>      7      0.00000087      0.00000023      0.0
 <Apr18-2019> <22:22:46>  SCF converged
 <Apr18-2019> <22:22:46>      8      0.00000006      0.00000001      0.0
 <Apr18-2019> <22:22:46>  >>>> TOTEN
 <Apr18-2019> <22:22:46>  >>>> POPAN
 <Apr18-2019> <22:22:46>  >>>> DEBYE
 <Apr18-2019> <22:22:46>  >>>> ENGRAD
 <Apr18-2019> <22:22:46>  current energy                               -0.57744992 Hartree
 <Apr18-2019> <22:22:46>  energy change                       0.00004100     0.00010000    T
 <Apr18-2019> <22:22:46>  constrained gradient max            0.02059900     0.00010000    F
 <Apr18-2019> <22:22:46>  constrained gradient rms            0.00849061     0.00006667    F
 <Apr18-2019> <22:22:46>  gradient max                        0.02059900
 <Apr18-2019> <22:22:46>  gradient rms                        0.00849061
 <Apr18-2019> <22:22:46>  cart. step max                      0.01691479     0.01000000    F
 <Apr18-2019> <22:22:46>  cart. step rms                      0.00695777     0.00666667    F
  Coordinates in Geometry Cycle 3
    Atom         X           Y           Z   (Angstrom)
    1.B        -0.509504   -0.793558   -0.011784
    2.H        -1.220390    0.161830   -0.111428
    3.H        -0.064893   -1.096893    1.055086
    4.H        -0.328543   -1.502837   -0.956293
 <Apr18-2019> <22:22:46>  >>>> CORORT
 <Apr18-2019> <22:22:46>  >>>> CLSMAT
 <Apr18-2019> <22:22:46>  >>>> ORTHON
 <Apr18-2019> <22:22:46>  >>>> GENPT
 <Apr18-2019> <22:22:46>  Block Length= 128
 <Apr18-2019> <22:22:46>  >>>> PTBAS
 <Apr18-2019> <22:22:46>  >>>> CYCLE
 <Apr18-2019> <22:22:46>              |Error|         MaxErr       Wt(A-DIIS)
 <Apr18-2019> <22:22:46>      1      0.00920831      0.00254462
 <Apr18-2019> <22:22:46>      2      0.00106444      0.00023093    100.0
 <Apr18-2019> <22:22:46>      3      0.00069806      0.00019595    100.0
 <Apr18-2019> <22:22:46>      4      0.00059813      0.00011802      0.0
 <Apr18-2019> <22:22:46>      5      0.00003165      0.00001162      0.0
 <Apr18-2019> <22:22:47>      6      0.00000249      0.00000060      0.0
 <Apr18-2019> <22:22:47>  SCF converged
 <Apr18-2019> <22:22:47>      7      0.00000025      0.00000007      0.0
 <Apr18-2019> <22:22:47>  >>>> TOTEN
 <Apr18-2019> <22:22:47>  >>>> POPAN
 <Apr18-2019> <22:22:47>  >>>> DEBYE
 <Apr18-2019> <22:22:47>  >>>> ENGRAD
 <Apr18-2019> <22:22:47>  current energy                               -0.57800053 Hartree
 <Apr18-2019> <22:22:47>  energy change                      -0.00055062     0.00010000    F
 <Apr18-2019> <22:22:47>  constrained gradient max            0.01142299     0.00010000    F
 <Apr18-2019> <22:22:47>  constrained gradient rms            0.00482862     0.00006667    F
 <Apr18-2019> <22:22:47>  gradient max                        0.01142299
 <Apr18-2019> <22:22:47>  gradient rms                        0.00482862
 <Apr18-2019> <22:22:47>  cart. step max                      0.02199013     0.01000000    F
 <Apr18-2019> <22:22:47>  cart. step rms                      0.00904729     0.00666667    F
  Coordinates in Geometry Cycle 4
    Atom         X           Y           Z   (Angstrom)
    1.B        -0.530830   -0.807867   -0.006104
    2.H        -1.213604    0.167199   -0.113399
    3.H        -0.057567   -1.092317    1.053835
    4.H        -0.321329   -1.498472   -0.958750
 <Apr18-2019> <22:22:47>  >>>> CORORT
 <Apr18-2019> <22:22:47>  >>>> CLSMAT
 <Apr18-2019> <22:22:47>  >>>> ORTHON
 <Apr18-2019> <22:22:47>  >>>> GENPT
 <Apr18-2019> <22:22:47>  Block Length= 128
 <Apr18-2019> <22:22:47>  >>>> PTBAS
 <Apr18-2019> <22:22:47>  >>>> CYCLE
 <Apr18-2019> <22:22:47>              |Error|         MaxErr       Wt(A-DIIS)
 <Apr18-2019> <22:22:47>      1      0.01082246      0.00322764
 <Apr18-2019> <22:22:47>      2      0.00058623      0.00028615    100.0
 <Apr18-2019> <22:22:47>      3      0.00045644      0.00024447    100.0
 <Apr18-2019> <22:22:47>      4      0.00020466      0.00005014      0.0
 <Apr18-2019> <22:22:47>      5      0.00005910      0.00001600      0.0
 <Apr18-2019> <22:22:47>      6      0.00000230      0.00000050      0.0
 <Apr18-2019> <22:22:47>  SCF converged
 <Apr18-2019> <22:22:48>      7      0.00000038      0.00000008      0.0
 <Apr18-2019> <22:22:48>  >>>> TOTEN
 <Apr18-2019> <22:22:48>  >>>> POPAN
 <Apr18-2019> <22:22:48>  >>>> DEBYE
 <Apr18-2019> <22:22:48>  >>>> ENGRAD
 <Apr18-2019> <22:22:48>  current energy                               -0.57825570 Hartree
 <Apr18-2019> <22:22:48>  energy change                      -0.00025516     0.00010000    F
 <Apr18-2019> <22:22:48>  constrained gradient max            0.00177274     0.00010000    F
 <Apr18-2019> <22:22:48>  constrained gradient rms            0.00098678     0.00006667    F
 <Apr18-2019> <22:22:48>  gradient max                        0.00177274
 <Apr18-2019> <22:22:48>  gradient rms                        0.00098678
 <Apr18-2019> <22:22:48>  cart. step max                      0.00186193     0.01000000    T
 <Apr18-2019> <22:22:48>  cart. step rms                      0.00105692     0.00666667    T
  Coordinates in Geometry Cycle 5
    Atom         X           Y           Z   (Angstrom)
    1.B        -0.531847   -0.808556   -0.005833
    2.H        -1.214463    0.169125   -0.113706
    3.H        -0.056449   -1.092645    1.055638
    4.H        -0.320571   -1.499381   -0.960517
 <Apr18-2019> <22:22:48>  >>>> CORORT
 <Apr18-2019> <22:22:48>  >>>> CLSMAT
 <Apr18-2019> <22:22:48>  >>>> ORTHON
 <Apr18-2019> <22:22:48>  >>>> GENPT
 <Apr18-2019> <22:22:48>  Block Length= 128
 <Apr18-2019> <22:22:48>  >>>> PTBAS
 <Apr18-2019> <22:22:48>  >>>> CYCLE
 <Apr18-2019> <22:22:48>              |Error|         MaxErr       Wt(A-DIIS)
 <Apr18-2019> <22:22:48>      1      0.00451893      0.00228605
 <Apr18-2019> <22:22:48>      2      0.00047793      0.00013923    100.0
 <Apr18-2019> <22:22:48>      3      0.00045440      0.00009370    100.0
 <Apr18-2019> <22:22:48>      4      0.00005169      0.00001959      0.0
 <Apr18-2019> <22:22:48>      5      0.00000225      0.00000039      0.0
 <Apr18-2019> <22:22:48>  SCF converged
 <Apr18-2019> <22:22:48>      6      0.00000062      0.00000016      0.0
 <Apr18-2019> <22:22:48>  >>>> TOTEN
 <Apr18-2019> <22:22:48>  >>>> POPAN
 <Apr18-2019> <22:22:48>  >>>> DEBYE
 <Apr18-2019> <22:22:48>  >>>> ENGRAD
 <Apr18-2019> <22:22:49>  current energy                               -0.57826309 Hartree
 <Apr18-2019> <22:22:49>  energy change                      -0.00000740     0.00010000    T
 <Apr18-2019> <22:22:49>  constrained gradient max            0.00057758     0.00010000    F
 <Apr18-2019> <22:22:49>  constrained gradient rms            0.00025692     0.00006667    F
 <Apr18-2019> <22:22:49>  gradient max                        0.00057758
 <Apr18-2019> <22:22:49>  gradient rms                        0.00025692
 <Apr18-2019> <22:22:49>  cart. step max                      0.00061600     0.01000000    T
 <Apr18-2019> <22:22:49>  cart. step rms                      0.00025343     0.00666667    T
  Coordinates in Geometry Cycle 6
    Atom         X           Y           Z   (Angstrom)
    1.B        -0.530827   -0.807871   -0.006102
    2.H        -1.214796    0.168911   -0.113622
    3.H        -0.056781   -1.092873    1.055743
    4.H        -0.320926   -1.499625   -0.960438
 <Apr18-2019> <22:22:49>  >>>> CORORT
 <Apr18-2019> <22:22:49>  >>>> CLSMAT
 <Apr18-2019> <22:22:49>  >>>> ORTHON
 <Apr18-2019> <22:22:49>  >>>> GENPT
 <Apr18-2019> <22:22:49>  Block Length= 128
 <Apr18-2019> <22:22:49>  >>>> PTBAS
 <Apr18-2019> <22:22:49>  >>>> CYCLE
 <Apr18-2019> <22:22:49>              |Error|         MaxErr       Wt(A-DIIS)
 <Apr18-2019> <22:22:49>      1      0.00051505      0.00015387
 <Apr18-2019> <22:22:49>      2      0.00002767      0.00001310    100.0
 <Apr18-2019> <22:22:49>      3      0.00001509      0.00000402    100.0
 <Apr18-2019> <22:22:49>      4      0.00000838      0.00000236      0.0
 <Apr18-2019> <22:22:49>      5      0.00000033      0.00000007      0.0
 <Apr18-2019> <22:22:49>  SCF converged
 <Apr18-2019> <22:22:49>      6      0.00000011      0.00000002      0.0
 <Apr18-2019> <22:22:49>  >>>> TOTEN
 <Apr18-2019> <22:22:49>  >>>> POPAN
 <Apr18-2019> <22:22:49>  >>>> DEBYE
 <Apr18-2019> <22:22:49>  >>>> ENGRAD
 <Apr18-2019> <22:22:49>  current energy                               -0.57826362 Hartree
 <Apr18-2019> <22:22:49>  energy change                      -0.00000052     0.00010000    T
 <Apr18-2019> <22:22:49>  constrained gradient max            0.00015373     0.00010000    F
 <Apr18-2019> <22:22:49>  constrained gradient rms            0.00008553     0.00006667    F
 <Apr18-2019> <22:22:49>  gradient max                        0.00015373
 <Apr18-2019> <22:22:49>  gradient rms                        0.00008553
 <Apr18-2019> <22:22:49>  cart. step max                      0.00018950     0.01000000    T
 <Apr18-2019> <22:22:49>  cart. step rms                      0.00010515     0.00666667    T
  Coordinates in Geometry Cycle 7
    Atom         X           Y           Z   (Angstrom)
    1.B        -0.530828   -0.807869   -0.006101
    2.H        -1.214887    0.169091   -0.113646
    3.H        -0.056699   -1.092918    1.055929
    4.H        -0.320917   -1.499761   -0.960600
 <Apr18-2019> <22:22:49>  >>>> CORORT
 <Apr18-2019> <22:22:49>  >>>> CLSMAT
 <Apr18-2019> <22:22:49>  >>>> ORTHON
 <Apr18-2019> <22:22:49>  >>>> GENPT
 <Apr18-2019> <22:22:49>  Block Length= 128
 <Apr18-2019> <22:22:49>  >>>> PTBAS
 <Apr18-2019> <22:22:49>  >>>> CYCLE
 <Apr18-2019> <22:22:50>              |Error|         MaxErr       Wt(A-DIIS)
 <Apr18-2019> <22:22:50>      1      0.00044149      0.00022462
 <Apr18-2019> <22:22:50>      2      0.00004720      0.00001364    100.0
 <Apr18-2019> <22:22:50>      3      0.00004499      0.00000926    100.0
 <Apr18-2019> <22:22:50>      4      0.00000509      0.00000193      0.0
 <Apr18-2019> <22:22:50>      5      0.00000021      0.00000004      0.0
 <Apr18-2019> <22:22:50>  SCF converged
 <Apr18-2019> <22:22:50>      6      0.00000004      0.00000001      0.0
 <Apr18-2019> <22:22:50>  >>>> TOTEN
 <Apr18-2019> <22:22:50>  >>>> POPAN
 <Apr18-2019> <22:22:50>  >>>> DEBYE
 <Apr18-2019> <22:22:50>  >>>> ENGRAD
 <Apr18-2019> <22:22:50>  current energy                               -0.57826378 Hartree
 <Apr18-2019> <22:22:50>  energy change                      -0.00000017     0.00010000    T
 <Apr18-2019> <22:22:50>  constrained gradient max            0.00003367     0.00010000    T
 <Apr18-2019> <22:22:50>  constrained gradient rms            0.00001518     0.00006667    T
 <Apr18-2019> <22:22:50>  gradient max                        0.00003367
 <Apr18-2019> <22:22:50>  gradient rms                        0.00001518
 <Apr18-2019> <22:22:50>  cart. step max                      0.00004446     0.01000000    T
 <Apr18-2019> <22:22:50>  cart. step rms                      0.00001989     0.00666667    T
 <Apr18-2019> <22:22:50>  GEOMETRY CONVERGED
 <Apr18-2019> <22:22:50>  Calculating Energy Terms for Final Geometry
  Coordinates in Geometry Cycle 7
    Atom         X           Y           Z   (Angstrom)
    1.B        -0.530828   -0.807869   -0.006101
    2.H        -1.214887    0.169091   -0.113646
    3.H        -0.056699   -1.092918    1.055929
    4.H        -0.320917   -1.499761   -0.960600
 <Apr18-2019> <22:22:50>  >>>> CORORT
 <Apr18-2019> <22:22:50>  >>>> CLSMAT
 <Apr18-2019> <22:22:50>  >>>> ORTHON
 <Apr18-2019> <22:22:50>  >>>> GENPT
 <Apr18-2019> <22:22:50>  Block Length= 128
 <Apr18-2019> <22:22:50>  >>>> PTBAS
 <Apr18-2019> <22:22:50>  >>>> CYCLE
 <Apr18-2019> <22:22:50>              |Error|         MaxErr       Wt(A-DIIS)
 <Apr18-2019> <22:22:50>      1      0.00000001      0.00000000
 <Apr18-2019> <22:22:51>      2      0.00000000      0.00000000    100.0
 <Apr18-2019> <22:22:51>  SCF converged
 <Apr18-2019> <22:22:51>      3      0.00000000      0.00000000    100.0
 <Apr18-2019> <22:22:51>  >>>> TOTEN
 <Apr18-2019> <22:22:51>  >>>> POPAN
 <Apr18-2019> <22:22:51>  >>>> DEBYE
 <Apr18-2019> <22:22:51>  >>>> AMETS
 <Apr18-2019> <22:22:51>  >>>> POPUL
 <Apr18-2019> <22:22:51>   Bond Energy          -0.57826378 a.u.
 <Apr18-2019> <22:22:51>   Bond Energy         -15.73535811 eV
 <Apr18-2019> <22:22:51>   Bond Energy        -362.87       kcal/mol
 <Apr18-2019> <22:22:51>  >>>> ENHESS
 <Apr18-2019> <22:22:51>  === NUCLEUS:     1
 <Apr18-2019> <22:22:53>  === NUCLEUS:     2
 <Apr18-2019> <22:22:54>  === NUCLEUS:     3
 <Apr18-2019> <22:22:55>  === NUCLEUS:     4
 <Apr18-2019> <22:22:57>  >>>> CALC_HESS_PMAT
 <Apr18-2019> <22:22:57>  >>>> CALC_HESS_WMAT
 <Apr18-2019> <22:22:57>  NORMAL TERMINATION
 <Apr18-2019> <22:22:57>  END
