

 Parallel Execution: Process Information
 ==============================================================================
 Rank   Node Name                              NodeID   MyNodeRank  NodeMaster
    0   BAZIS-cn021                               0          0          0
    1   BAZIS-cn021                               0          1         -1
    2   BAZIS-cn021                               0          2         -1
    3   BAZIS-cn021                               0          3         -1
    4   BAZIS-cn021                               0          4         -1
    5   BAZIS-cn021                               0          5         -1
    6   BAZIS-cn021                               0          6         -1
    7   BAZIS-cn021                               0          7         -1
    8   BAZIS-cn021                               0          8         -1
    9   BAZIS-cn021                               0          9         -1
   10   BAZIS-cn021                               0         10         -1
   11   BAZIS-cn021                               0         11         -1
 ==============================================================================


May use up to 30771MB of RAM as shared memory on node 0


XC
    GGA BP86
END

SCF
    iterations 250
END

EPRINT
    SFO Eig Ovl
END

ZLMFIT
    Quality normal
END

BECKEGRID
    Quality good
End

SYMMETRY nosym
CHARGE -1

ATOMS
1.Br       -4.987069    3.236337   -0.073950 f=BrCl
2.Cl       -3.952423    1.003697    0.368213 f=BrCl
3.F        -5.835889    5.058884   -0.431464 f=F
END

Fragments
BrCl /home/tcst25/advanced_comp_chemistry/exercise2/halogen/ClBrF/frag1_BrCl.t21
F /home/tcst25/advanced_comp_chemistry/exercise2/halogen/ClBrF/frag2_F.t21
End
end input

 *******************************************************************************
 *                                                                             *
 *  -------------------------------------                                      *
 *   Amsterdam Density Functional  (ADF)         2017                          *
 *  -------------------------------------                                      *
 *                                               r58813 2017-04-12             *
 *                                                                             *
 *                                                                             *
 *                              =================                              *
 *                              |               |                              *
 *                              |     A D F     |                              *
 *                              |               |                              *
 *                              =================                              *
 *                                                                             *
 *                                                                             *
 *   Online information and documentation:  https://www.scm.com/support/       *
 *   E-mail:  support@scm.com   info@scm.com                                   *
 *                                                                             *
 *   Scientific publications using ADF results must be properly referenced     *
 *   See the User Manuals (or the web site) for recommended citations          *
 *   The terms and conditions of the End User License Agreement apply to       *
 *   the use of ADF, https://www.scm.com/license-terms/                        *
 *                                                                             *
 **********************  x86_64_linux_intel / intelmpi  ************************
 
 Licensed to: VU/FEW (+ SARA) / ALGEMEEN / Amsterdam / THE NETHERLANDS
 SCM User ID: u7668
  
 ADF 2017  RunTime: May09-2019 17:12:04  Nodes: 1  Procs: 12

 Temporary files are created in /local/datastore0/tcst25/189776/kid_0.8Fv8al


Communication costs MPI_COMM_WORLD:      3.903 usec per message,   0.0183 usec per 8-byte item
Communication costs for intra-node:      3.905 usec per message,   0.0184 usec per 8-byte item

 *** (NO TITLE) ***



 ===========================
 A T T A C H E D   F I L E S
 ===========================
  



 ===============================
 M O D E L   P A R A M E T E R S
 ===============================
  
 DENSITY FUNCTIONAL POTENTIAL (scf)
    LDA:                               VWN                                      
    Gradient Corrections:              Becke88 Perdew86                        == Not Default ==

 SPIN  (restricted / unrestr.)
    Molecule:                          Restricted                               
    Fragments:                         Restricted                               

 OTHER ASPECTS
    Relativistic Corrections:          ---                                      

    Nuclear Charge Density Model:      Point Charge Nuclei                      
    Core Treatment:                    Frozen Orbital(s)                        

    Hyperfine or Zeeman Interaction:   ---                                      


 Fragment File(s)
 ----------------
 BrCl:
         file : /home/tcst25/advanced_comp_chemistry/exercise2/halogen/ClBrF/frag1_BrCl.t21
         jobid: ADF 2017  RunTime: May09-2019 16:32:23  Nodes: 1  Procs: 12
         title: *** (NO TITLE) ***
 F:
         file : /home/tcst25/advanced_comp_chemistry/exercise2/halogen/ClBrF/frag2_F.t21
         jobid: ADF 2017  RunTime: May09-2019 16:32:22  Nodes: 1  Procs: 12
         title: *** (NO TITLE) ***



                                        ************************************
                                        *  R U N   T Y P E : SINGLE POINT  *
                                        ************************************
  



 ===============
 G E O M E T R Y  ***  Planar Molecule  ***
 ===============
  

 ATOMS
 =====                            X Y Z                    CHARGE
                                (Angstrom)             Nucl     +Core       At.Mass
                       --------------------------    ----------------       -------
    1  Br             -4.9871    3.2363   -0.0739     35.00     35.00       78.9183
    2  Cl             -3.9524    1.0037    0.3682     17.00     17.00       34.9689
    3  F              -5.8359    5.0589   -0.4315      9.00      9.00       18.9984


 FRAGMENTS
 =========                                     Atoms in this Fragment     Cart. coord.s (Angstrom)
                                               -------------------------------------------------------
    1  BrCl                                              1  Br          -4.9871    3.2363   -0.0739
                                                         2  Cl          -3.9524    1.0037    0.3682
    2  F                                                 3  F           -5.8359    5.0589   -0.4315


 Interatomic Distance Matrix (Angstrom)
 --------------------------------------

   1)     0.000
   2)     2.500   0.000
   3)     2.042   4.542   0.000

 Min. Distance =    2.0421
 Max. Distance =    4.5422



 =====================================
 S Y M M E T R Y ,   E L E C T R O N S
 =====================================
  
 Symmetry: NOSYM

 Irreducible Representations, including subspecies
 -------------------------------------------------
 A


 Configuration of Valence Electrons
 ==================================
 ( determined in the SCF procedure )

 Total:   62

 Net Charge: -1 (Nuclei minus Electrons)

 Aufbau principle for MO occupations will be applied through SCF cycle no.     125
 Thereafter, the program will assign electrons to MOs that are spatially
 similar to the occupied MOs in a "reference" cycle ("KeepOrbitals").
 The reference cycle is always the PREVIOUS cycle: it will evolve with
 the SCF procedure.
1
 ***************************************************************************************************



                                      ****************************************
                                      *  B U I L D : (Fragments, Functions)  *
                                      ****************************************
  

 The individual fragments are copies of the corresponding 'Master' fragments defined on the fragment files.
 However, they may have been rotated (and translated) with respect to the Master. The local coordinate axes
 of each fragment (which define for instance the spatial orientation in the current molecule of a fragment
 P:x orbital) are not necessarily those of the molecule.
 The local frame (if different from the molecular one) is printed to enable an interpretation of the expan-
 sion of an MO in Fragment Orbitals.



                                             **************************
                                             *  Fragment Type : BrCl  *
                                             **************************
  

 Fragment no.    1   (in the list of all fragments)
 -----------------
 The local coordinate frame is identical to the molecular frame.

 Check Atomic Coordinates:

                  Master (on file)          After Computed Tranformation               As specified on Input
           ----------------------------     ----------------------------     ---------------------------------
     1)    -4.98707   3.23634  -0.07395     -4.98707   3.23634  -0.07395       1  -4.98707   3.23634  -0.07395
     2)    -3.95242   1.00370   0.36821     -3.95242   1.00370   0.36821       2  -3.95242   1.00370   0.36821



                                              ***********************
                                              *  Fragment Type : F  *
                                              ***********************
  

 Fragment no.    2   (in the list of all fragments)
 -----------------
 The local coordinate frame is identical to the molecular frame.

 Check Atomic Coordinates:

                  Master (on file)          After Computed Tranformation               As specified on Input
           ----------------------------     ----------------------------     ---------------------------------
     1)    -5.83589   5.05888  -0.43146     -5.83589   5.05888  -0.43146       3  -5.83589   5.05888  -0.43146



 =======
 S F O s  ***  (Symmetrized Fragment Orbitals)  ***
 =======
  
 SFOs are linear combinations of (valence) Fragment Orbitals (FOs), such that the SFOs transform as the
 irreducible representations of the (molecular) symmetry group. Each SFO is therefore characterized by
 an irrep of the molecule and by a few (or only one) generating FOs.
 The SFOs constitute a symmetry-adapted basis for the Fock matrix. The MO eigenvector coefficients in
 this basis provide a direct interpretation of the MOs in terms of Frontier Orbital Theory.

 The SFOs are combined with auxiliary Core Functions (CFs) to ensure orthogonalization on the (frozen)
 Core Orbitals (COs). The Core-orthogonalized SFOs (CSFOs) constitute the true Fock basis.

 The FOs, and hence also the (C)SFOs are combinations of the elementary basis functions (BAS). The basis
 functions that participate in the description of the SFOs depend on the irrep. The indices of the
 involved functions are printed below for each irrep.
 (The complete list of primitive basis functions is printed in another section)

 Total nr. of (C)SFOs (summation over all irreps) :   116

 NOTE: a (C)SFO that is defined as a combination of more than one FO is usually NOT normalized.



                                       === A ===
 Nr. of SFOs :  116
 Cartesian basis functions that participate in this irrep (total number =   131) :
      1     2     3    10    11    36    37    38     4     7
     12    15    39    42    45     5     8    13    16    40
     43    46     6     9    14    17    41    44    47    18
     24    30    48    19    25    31    49    20    26    32
     50    21    27    33    51    22    28    34    52    23
     29    35    53    54    55    56    57    58    59    60
     61    62    63    64    65    66    67    74    75    76
     68    71    77    80    83    69    72    78    81    84
     70    73    79    82    85    86    87    88    89    90
     91    92    93    94    95    96    97    98    99   100
    101   102   103   104   105   106   107   110   113   108
    111   114   109   112   115   116   117   118   119   120
    121   122   123   124   125   126   127   128   129   130
    131

    SFO  (index         Fragment          Generating    Expansion in Fragment Orbitals
  indx  incl.CFs)   Occup   Orb.Energy   FragmentType  Coeff.   Orbital     on Fragment
 --------------------------------------------------------------------------------------
     1       1      2.000    -481.051 au  BrCl          1.00      1 A               1
                        (  -13090.075 eV)
     2       2      2.000    -100.765 au  BrCl          1.00      2 A               1
                        (   -2741.959 eV)
     3       3      2.000     -61.806 au  BrCl          1.00      3 A               1
                        (   -1681.838 eV)
     4       4      2.000     -55.741 au  BrCl          1.00      4 A               1
                        (   -1516.794 eV)
     5       5      2.000     -55.734 au  BrCl          1.00      5 A               1
                        (   -1516.595 eV)
     6       6      2.000     -55.734 au  BrCl          1.00      6 A               1
                        (   -1516.595 eV)
     7       7      2.000      -9.216 au  BrCl          1.00      7 A               1
                        (    -250.769 eV)
     8       8      2.000      -8.426 au  BrCl          1.00      8 A               1
                        (    -229.288 eV)
     9       9      2.000      -7.049 au  BrCl          1.00      9 A               1
                        (    -191.801 eV)
    10      10      2.000      -7.032 au  BrCl          1.00     10 A               1
                        (    -191.359 eV)
    11      11      2.000      -7.032 au  BrCl          1.00     11 A               1
                        (    -191.359 eV)
    12      12      2.000      -6.340 au  BrCl          1.00     12 A               1
                        (    -172.513 eV)
    13      13      2.000      -6.319 au  BrCl          1.00     13 A               1
                        (    -171.944 eV)
    14      14      2.000      -6.319 au  BrCl          1.00     14 A               1
                        (    -171.944 eV)
    15      15      2.000      -2.544 au  BrCl          1.00     15 A               1
                        (     -69.213 eV)
    16      16      2.000      -2.538 au  BrCl          1.00     16 A               1
                        (     -69.076 eV)
    17      17      2.000      -2.538 au  BrCl          1.00     17 A               1
                        (     -69.076 eV)
    18      18      2.000      -2.523 au  BrCl          1.00     18 A               1
                        (     -68.661 eV)
    19      19      2.000      -2.523 au  BrCl          1.00     19 A               1
                        (     -68.661 eV)
    20      20      2.000      -0.771 au  BrCl          1.00     20 A               1
                        (     -20.979 eV)
    21      21      2.000      -0.708 au  BrCl          1.00     21 A               1
                        (     -19.255 eV)
    22      22      2.000      -0.387 au  BrCl          1.00     22 A               1
                        (     -10.529 eV)
    23      23      2.000      -0.318 au  BrCl          1.00     23 A               1
                        (      -8.664 eV)
    24      24      2.000      -0.318 au  BrCl          1.00     24 A               1
                        (      -8.664 eV)
    25      25      2.000      -0.274 au  BrCl          1.00     25 A               1
                        (      -7.455 eV)
    26      26      2.000      -0.274 au  BrCl          1.00     26 A               1
                        (      -7.455 eV)
    27      27       --        -0.231 au  BrCl          1.00     27 A               1
                        (      -6.292 eV)
    28      28       --         0.108 au  BrCl          1.00     28 A               1
                        (       2.940 eV)
    29      29       --         0.137 au  BrCl          1.00     29 A               1
                        (       3.717 eV)
    30      30       --         0.137 au  BrCl          1.00     30 A               1
                        (       3.717 eV)
    31      31       --         0.176 au  BrCl          1.00     31 A               1
                        (       4.799 eV)
    32      32       --         0.197 au  BrCl          1.00     32 A               1
                        (       5.351 eV)
    33      33       --         0.207 au  BrCl          1.00     33 A               1
                        (       5.640 eV)
    34      34       --         0.207 au  BrCl          1.00     34 A               1
                        (       5.640 eV)
    35      35       --         0.257 au  BrCl          1.00     35 A               1
                        (       6.985 eV)
    36      36       --         0.257 au  BrCl          1.00     36 A               1
                        (       6.985 eV)
    37      37       --         0.265 au  BrCl          1.00     37 A               1
                        (       7.222 eV)
    38      38       --         0.265 au  BrCl          1.00     38 A               1
                        (       7.222 eV)
    39      39       --         0.331 au  BrCl          1.00     39 A               1
                        (       9.007 eV)
    40      40       --         0.373 au  BrCl          1.00     40 A               1
                        (      10.148 eV)
    41      41       --         0.403 au  BrCl          1.00     41 A               1
                        (      10.953 eV)
    42      42       --         0.403 au  BrCl          1.00     42 A               1
                        (      10.953 eV)
    43      43       --         0.461 au  BrCl          1.00     43 A               1
                        (      12.543 eV)
    44      44       --         0.461 au  BrCl          1.00     44 A               1
                        (      12.543 eV)
    45      45       --         0.717 au  BrCl          1.00     45 A               1
                        (      19.501 eV)
    46      46       --         0.822 au  BrCl          1.00     46 A               1
                        (      22.374 eV)
    47      47       --         0.822 au  BrCl          1.00     47 A               1
                        (      22.374 eV)
    48      48       --         0.849 au  BrCl          1.00     48 A               1
                        (      23.112 eV)
    49      49       --         0.849 au  BrCl          1.00     49 A               1
                        (      23.112 eV)
    50      50       --         0.889 au  BrCl          1.00     50 A               1
                        (      24.197 eV)
    51      51       --         0.889 au  BrCl          1.00     51 A               1
                        (      24.197 eV)
    52      52       --         0.942 au  BrCl          1.00     52 A               1
                        (      25.621 eV)
    53      53       --         1.184 au  BrCl          1.00     53 A               1
                        (      32.218 eV)
    54      54       --         1.184 au  BrCl          1.00     54 A               1
                        (      32.219 eV)
    55      55       --         1.209 au  BrCl          1.00     55 A               1
                        (      32.908 eV)
    56      56       --         1.209 au  BrCl          1.00     56 A               1
                        (      32.909 eV)
    57      57       --         1.267 au  BrCl          1.00     57 A               1
                        (      34.473 eV)
    58      58       --         1.268 au  BrCl          1.00     58 A               1
                        (      34.501 eV)
    59      59       --         1.268 au  BrCl          1.00     59 A               1
                        (      34.501 eV)
    60      60       --         1.379 au  BrCl          1.00     60 A               1
                        (      37.531 eV)
    61      61       --         1.406 au  BrCl          1.00     61 A               1
                        (      38.260 eV)
    62      62       --         1.406 au  BrCl          1.00     62 A               1
                        (      38.261 eV)
    63      63       --         2.101 au  BrCl          1.00     63 A               1
                        (      57.159 eV)
    64      64       --         2.163 au  BrCl          1.00     64 A               1
                        (      58.856 eV)
    65      65       --         2.163 au  BrCl          1.00     65 A               1
                        (      58.856 eV)
    66      66       --         2.272 au  BrCl          1.00     66 A               1
                        (      61.831 eV)
    67      67       --         2.682 au  BrCl          1.00     67 A               1
                        (      72.988 eV)
    68      68       --         2.682 au  BrCl          1.00     68 A               1
                        (      72.988 eV)
    69      69       --         2.730 au  BrCl          1.00     69 A               1
                        (      74.280 eV)
    70      70       --         2.757 au  BrCl          1.00     70 A               1
                        (      75.023 eV)
    71      71       --         2.757 au  BrCl          1.00     71 A               1
                        (      75.023 eV)
    72      72       --         3.166 au  BrCl          1.00     72 A               1
                        (      86.164 eV)
    73      73       --         8.853 au  BrCl          1.00     73 A               1
                        (     240.916 eV)
    74      74       --         8.854 au  BrCl          1.00     74 A               1
                        (     240.916 eV)
    75      75       --         8.982 au  BrCl          1.00     75 A               1
                        (     244.415 eV)
    76      76       --        13.041 au  BrCl          1.00     76 A               1
                        (     354.875 eV)
    77      77       --        14.717 au  BrCl          1.00     77 A               1
                        (     400.475 eV)
    78      78       --        18.929 au  BrCl          1.00     78 A               1
                        (     515.073 eV)
    79      79       --        18.929 au  BrCl          1.00     79 A               1
                        (     515.073 eV)
    80      80       --        19.270 au  BrCl          1.00     80 A               1
                        (     524.374 eV)
    81      81       --        20.601 au  BrCl          1.00     81 A               1
                        (     560.573 eV)
    82      82       --        20.601 au  BrCl          1.00     82 A               1
                        (     560.574 eV)
    83      83       --        20.702 au  BrCl          1.00     83 A               1
                        (     563.338 eV)
    84      84       --        20.702 au  BrCl          1.00     84 A               1
                        (     563.338 eV)
    85      85       --        21.130 au  BrCl          1.00     85 A               1
                        (     574.979 eV)
    86      86       --       100.921 au  BrCl          1.00     86 A               1
                        (    2746.198 eV)
    87      87       --       100.921 au  BrCl          1.00     87 A               1
                        (    2746.198 eV)
    88      88       --       101.246 au  BrCl          1.00     88 A               1
                        (    2755.044 eV)
    89      89       --       216.102 au  BrCl          1.00     89 A               1
                        (    5880.444 eV)
    90      90       --       748.147 au  BrCl          1.00     90 A               1
                        (   20358.122 eV)
    91      91      2.000     -23.791 au  F             1.00      1 A               2
                        (    -647.398 eV)
    92      92      2.000      -0.555 au  F             1.00      2 A               2
                        (     -15.093 eV)
    93      93      2.000       0.108 au  F             1.00      3 A               2
                        (       2.944 eV)
    94      94      2.000       0.108 au  F             1.00      4 A               2
                        (       2.944 eV)
    95      95      2.000       0.108 au  F             1.00      5 A               2
                        (       2.944 eV)
    96      96       --         0.286 au  F             1.00      6 A               2
                        (       7.773 eV)
    97      97       --         0.812 au  F             1.00      7 A               2
                        (      22.092 eV)
    98      98       --         0.812 au  F             1.00      8 A               2
                        (      22.092 eV)
    99      99       --         0.812 au  F             1.00      9 A               2
                        (      22.092 eV)
   100     100       --         1.566 au  F             1.00     10 A               2
                        (      42.603 eV)
   101     101       --         1.566 au  F             1.00     11 A               2
                        (      42.603 eV)
   102     102       --         1.566 au  F             1.00     12 A               2
                        (      42.603 eV)
   103     103       --         1.566 au  F             1.00     13 A               2
                        (      42.603 eV)
   104     104       --         1.566 au  F             1.00     14 A               2
                        (      42.603 eV)
   105     105       --         2.040 au  F             1.00     15 A               2
                        (      55.515 eV)
   106     106       --         3.896 au  F             1.00     16 A               2
                        (     106.020 eV)
   107     107       --         3.896 au  F             1.00     17 A               2
                        (     106.020 eV)
   108     108       --         3.896 au  F             1.00     18 A               2
                        (     106.020 eV)
   109     109       --         3.896 au  F             1.00     19 A               2
                        (     106.020 eV)
   110     110       --         3.896 au  F             1.00     20 A               2
                        (     106.020 eV)
   111     111       --         3.896 au  F             1.00     21 A               2
                        (     106.020 eV)
   112     112       --         3.896 au  F             1.00     22 A               2
                        (     106.020 eV)
   113     113       --         5.088 au  F             1.00     23 A               2
                        (     138.458 eV)
   114     114       --         5.088 au  F             1.00     24 A               2
                        (     138.458 eV)
   115     115       --         5.088 au  F             1.00     25 A               2
                        (     138.458 eV)
   116     116       --        48.938 au  F             1.00     26 A               2
                        (    1331.672 eV)



 ================================
 (Slater-type)  F U N C T I O N S  ***  (Basis and Fit)  ***
 ================================
  

 Atom Type    1  (Br)
 ==============

 Valence Basis Sets:  20
 -----------------------
   1 S   41.300000
   1 S   32.800000
   2 S   13.900000
   2 P   19.450000
   2 P   13.100000
   3 S    7.200000
   3 S    4.950000
   3 P    7.900000
   3 P    5.050000
   3 D   10.900000
   3 D    6.050000
   3 D    3.500000
   4 S    4.500000
   4 S    2.800000
   4 S    1.800000
   4 P    3.250000
   4 P    1.950000
   4 P    1.200000
   4 D    1.800000
   4 F    1.800000

 Atom Type    2  (Cl)
 ==============

 Valence Basis Sets:  14
 -----------------------
   1 S   20.300000
   1 S   15.250000
   2 S    6.250000
   2 S    4.450000
   2 P    8.850000
   2 P    5.050000
   3 S    3.450000
   3 S    2.300000
   3 S    1.600000
   3 P    3.350000
   3 P    2.050000
   3 P    1.200000
   3 D    2.000000
   4 F    2.000000

 Atom Type    3  (F)
 ==============

 Valence Basis Sets:  10
 -----------------------
   1 S   10.880000
   1 S    7.700000
   2 S    3.240000
   2 S    1.940000
   2 S    0.740000
   2 P    4.540000
   2 P    2.300000
   2 P    1.240000
   3 D    2.000000
   4 F    3.000000


 BAS: List of all Elementary Cartesian Basis Functions
 =====================================================

 The numbering in the list below (to the right of the function characteristics) is referred
 to in print-outs of MO eigenvectors and Mulliken populations in the BAS representation
 (as contrasted to the SFO representation).

 Notes:
 1. The functions are characterized by a polynomial prefactor (powers of x,y,z and r) and
    an exponential decay factor alpha.
 2. Since the basis sets are specific for an atom TYPE, the individual functions occur on
    all atoms of that type.
 3. The word 'Core' in the left margin signals that it is a Core Function (CF) : not a
    degree of freedom in the valence set, but only used to ensure orthogonalization of
    the other valence basis functions on the frozen Core Orbitals.


 (power of) X  Y  Z  R     Alpha  on Atom
            ==========     =====     ==========

 Br                                   1
                                  ---------------------------------------------------------------------------
            0  0  0  0    41.300      1
            0  0  0  0    32.800      2
            0  0  0  1    13.900      3
            1  0  0  0    19.450      4
            0  1  0  0    19.450      5
            0  0  1  0    19.450      6
            1  0  0  0    13.100      7
            0  1  0  0    13.100      8
            0  0  1  0    13.100      9
            0  0  0  2     7.200     10
            0  0  0  2     4.950     11
            1  0  0  1     7.900     12
            0  1  0  1     7.900     13
            0  0  1  1     7.900     14
            1  0  0  1     5.050     15
            0  1  0  1     5.050     16
            0  0  1  1     5.050     17
            2  0  0  0    10.900     18
            1  1  0  0    10.900     19
            1  0  1  0    10.900     20
            0  2  0  0    10.900     21
            0  1  1  0    10.900     22
            0  0  2  0    10.900     23
            2  0  0  0     6.050     24
            1  1  0  0     6.050     25
            1  0  1  0     6.050     26
            0  2  0  0     6.050     27
            0  1  1  0     6.050     28
            0  0  2  0     6.050     29
            2  0  0  0     3.500     30
            1  1  0  0     3.500     31
            1  0  1  0     3.500     32
            0  2  0  0     3.500     33
            0  1  1  0     3.500     34
            0  0  2  0     3.500     35
            0  0  0  3     4.500     36
            0  0  0  3     2.800     37
            0  0  0  3     1.800     38
            1  0  0  2     3.250     39
            0  1  0  2     3.250     40
            0  0  1  2     3.250     41
            1  0  0  2     1.950     42
            0  1  0  2     1.950     43
            0  0  1  2     1.950     44
            1  0  0  2     1.200     45
            0  1  0  2     1.200     46
            0  0  1  2     1.200     47
            2  0  0  1     1.800     48
            1  1  0  1     1.800     49
            1  0  1  1     1.800     50
            0  2  0  1     1.800     51
            0  1  1  1     1.800     52
            0  0  2  1     1.800     53
            3  0  0  0     1.800     54
            2  1  0  0     1.800     55
            2  0  1  0     1.800     56
            1  2  0  0     1.800     57
            1  1  1  0     1.800     58
            1  0  2  0     1.800     59
            0  3  0  0     1.800     60
            0  2  1  0     1.800     61
            0  1  2  0     1.800     62
            0  0  3  0     1.800     63

 Cl                                   2
                                  ---------------------------------------------------------------------------
            0  0  0  0    20.300     64
            0  0  0  0    15.250     65
            0  0  0  1     6.250     66
            0  0  0  1     4.450     67
            1  0  0  0     8.850     68
            0  1  0  0     8.850     69
            0  0  1  0     8.850     70
            1  0  0  0     5.050     71
            0  1  0  0     5.050     72
            0  0  1  0     5.050     73
            0  0  0  2     3.450     74
            0  0  0  2     2.300     75
            0  0  0  2     1.600     76
            1  0  0  1     3.350     77
            0  1  0  1     3.350     78
            0  0  1  1     3.350     79
            1  0  0  1     2.050     80
            0  1  0  1     2.050     81
            0  0  1  1     2.050     82
            1  0  0  1     1.200     83
            0  1  0  1     1.200     84
            0  0  1  1     1.200     85
            2  0  0  0     2.000     86
            1  1  0  0     2.000     87
            1  0  1  0     2.000     88
            0  2  0  0     2.000     89
            0  1  1  0     2.000     90
            0  0  2  0     2.000     91
            3  0  0  0     2.000     92
            2  1  0  0     2.000     93
            2  0  1  0     2.000     94
            1  2  0  0     2.000     95
            1  1  1  0     2.000     96
            1  0  2  0     2.000     97
            0  3  0  0     2.000     98
            0  2  1  0     2.000     99
            0  1  2  0     2.000    100
            0  0  3  0     2.000    101

 F                                    3
                                  ---------------------------------------------------------------------------
            0  0  0  0    10.880    102
            0  0  0  0     7.700    103
            0  0  0  1     3.240    104
            0  0  0  1     1.940    105
            0  0  0  1     0.740    106
            1  0  0  0     4.540    107
            0  1  0  0     4.540    108
            0  0  1  0     4.540    109
            1  0  0  0     2.300    110
            0  1  0  0     2.300    111
            0  0  1  0     2.300    112
            1  0  0  0     1.240    113
            0  1  0  0     1.240    114
            0  0  1  0     1.240    115
            2  0  0  0     2.000    116
            1  1  0  0     2.000    117
            1  0  1  0     2.000    118
            0  2  0  0     2.000    119
            0  1  1  0     2.000    120
            0  0  2  0     2.000    121
            3  0  0  0     3.000    122
            2  1  0  0     3.000    123
            2  0  1  0     3.000    124
            1  2  0  0     3.000    125
            1  1  1  0     3.000    126
            1  0  2  0     3.000    127
            0  3  0  0     3.000    128
            0  2  1  0     3.000    129
            0  1  2  0     3.000    130
            0  0  3  0     3.000    131

 Total number of charge fitting functions (nprimf)       361
 Total number of Cartesian basis functions (naos)        131
 Total number of Cartesian core functions  (ncos)          0

1
 ***************************************************************************************************



                                              ***********************
                                              *  T E C H N I C A L  *
                                              ***********************
  



 =============================================================
 P A R A L L E L I Z A T I O N  and  V E C T O R I Z A T I O N
 =============================================================
  
 Nr of parallel processes:                               12
 Maximum vector length in NumInt loops:                 128

 IO buffersize (Mb):                                     64.000000



 =====================
 S C F   U P D A T E S
 =====================
  
 Max. nr. of cycles:                               250
 Convergence criterion:                              0.0000010000
   secondary criterion:                              0.0010000000

 Mix parameter (when DIIS does not apply):           0.2000000000
 Mixed ADIIS+DIIS will be used
    Max number of expansion vectors:                10
    Pure ADIIS when Max([F,P]) is above              0.1000000000
    Pure DIIS when Max([F,P]) is below               0.0010000000
 Automatic ElectronSmearing (in case of problematic SCF convergence) disabled



 =================
 P R E C I S I O N  ***  (General: NumInt, NeglectFunctionTails, ...)  ***
 =================
  

 NumInt:           Target precision:                 6.0000000000
 -------           Initial precision:                6.0000000000
                   Min. precision (optimization):    6.0000000000

 Neglect Functions:          Basis functions:        0.1000000000E-07
 ------------------          Fit functions:          0.1000000000E-07



 ===========================
 L I N E A R   S C A L I N G
 ===========================
  

 Cut-off radii density fit:                        0.1000000000E-09
 Overlap cut-off criterion AO matrix elements:     0.1000000000E-07
 Cut-offs for Coulomb potential and fitted density:0.1000000000E-09
 Cut-off criterion for Coulomb multipole terms:    0.1000000000E-09
 Progressive Convergence parameter:                 0.000000000    
1
 ***************************************************************************************************



                                            ***************************
                                            *  C O M P U T A T I O N  *
                                            ***************************
  

 Number of elements of the density matrix on this node (used, total):      2016      8646



 ===========================================
 Numerical Integration : Fuzzy Cells (Becke)
 ===========================================
  
 Becke grid quality: GOOD           
  
 Lebedev angular grid order:             min:  11 max:  31
 Nr. of radial points:                   min:  65 max:  90

 Total nr. of points:      50766
 Nr. of blocks:              397
 Block length:               128
 Nr. of dummy points:         50


 Test of Precision of the Numerical Integration Grid
 ===================================================

 Integral of the Total Core Density:                   0.00000000000000



 ========================
 Density Fitting (zlmFit)
 ========================
  
 ZlmFit Fit Quality: NORMAL         
  
 Max L-expansion:                        min:   7 max:   7
 Nr. of radial interpolation points:     min:  51 max:  72



 =====
 S C F  ***  ScaSCF  ***
 =====
  
 Initial density matrix is calculated as sum of fragments

 CYCLE    1
 SCF Error: norm([F,P])=      1.717205627796, max([F,P])=      0.987292996674
 orbitals (Q,E):
 ---------------
 A :22...41          ( 2.00    -0.6364)  ( 2.00    -0.4906)  ( 2.00    -0.2380)  ( 2.00    -0.2021)
                     ( 2.00    -0.2021)  ( 2.00    -0.0738)  ( 2.00    -0.0738)  ( 2.00    -0.0611)
                     ( 2.00     0.0543)  ( 2.00     0.0543)  ( 0.00     0.1177)  ( 0.00     0.2230)
                     ( 0.00     0.2967)  ( 0.00     0.3118)  ( 0.00     0.3118)  ( 0.00     0.3297)
                     ( 0.00     0.3812)  ( 0.00     0.3812)  ( 0.00     0.4078)  ( 0.00     0.4078)

 CYCLE    2
  SDIIS (wt  0.000):  0.4340  0.5660
 A-DIIS (wt  1.000):  0.9224  0.0776
  DIIS coefficients:  0.9224  0.0776
 SCF Error: norm([F,P])=      1.491439120115, max([F,P])=      0.679669015603
 orbitals (Q,E):
 ---------------
 A :22...32          ( 2.00    -0.6188)  ( 2.00    -0.4856)  ( 2.00    -0.2158)  ( 2.00    -0.1722)
                     ( 2.00    -0.1722)  ( 2.00    -0.0830)  ( 2.00    -0.0757)  ( 2.00    -0.0757)
                     ( 2.00    -0.0016)  ( 2.00    -0.0016)  ( 0.00     0.0862)

 CYCLE    3
  SDIIS (wt  0.000):  0.0776 -0.9971  1.9196
 A-DIIS (wt  1.000):  0.8708  0.0000  0.1292
  DIIS coefficients:  0.8708  0.0000  0.1292
 SCF Error: norm([F,P])=      0.871236304453, max([F,P])=      0.417110218655
 orbitals (Q,E):
 ---------------
 A :22...32          ( 2.00    -0.6091)  ( 2.00    -0.4896)  ( 2.00    -0.2110)  ( 2.00    -0.1635)
                     ( 2.00    -0.1635)  ( 2.00    -0.0860)  ( 2.00    -0.0803)  ( 2.00    -0.0803)
                     ( 2.00    -0.0076)  ( 2.00    -0.0076)  ( 0.00     0.0814)

 CYCLE    4
  SDIIS (wt  0.000): -0.9606 -1.0394  3.0000
 A-DIIS (wt  1.000):  0.0000  0.0000  1.0000
  DIIS coefficients:  0.0000  0.0000  1.0000
 SCF Error: norm([F,P])=      0.825310118889, max([F,P])=      0.405100523858
 orbitals (Q,E):
 ---------------
 A :22...32          ( 2.00    -0.6048)  ( 2.00    -0.4892)  ( 2.00    -0.4892)  ( 2.00    -0.4678)
                     ( 2.00    -0.3135)  ( 2.00    -0.1046)  ( 2.00    -0.1045)  ( 2.00    -0.0745)
                     ( 2.00     0.0913)  ( 2.00     0.0913)  ( 0.00     0.1128)

 CYCLE    5
  SDIIS (wt  0.000): -0.6392 -1.4649  3.0000  0.1041
 A-DIIS (wt  1.000):  0.0000  0.0000  0.7926  0.2074
  DIIS coefficients:  0.0000  0.0000  0.7926  0.2074
 SCF Error: norm([F,P])=      2.296750146223, max([F,P])=      0.671637544743
 orbitals (Q,E):
 ---------------
 A :22...32          ( 2.00    -0.5081)  ( 2.00    -0.4602)  ( 2.00    -0.2728)  ( 2.00    -0.2331)
                     ( 2.00    -0.2331)  ( 2.00    -0.0920)  ( 2.00    -0.0729)  ( 2.00    -0.0729)
                     ( 2.00    -0.0297)  ( 2.00    -0.0297)  ( 0.00     0.0676)

 CYCLE    6
  SDIIS (wt  0.000): -0.1656 -2.0000  2.7374 -0.0457  0.4739
 A-DIIS (wt  1.000):  0.0000  0.0000  0.4437  0.0000  0.5563
  DIIS coefficients:  0.0000  0.0000  0.4437  0.0000  0.5563
 SCF Error: norm([F,P])=      0.802015325104, max([F,P])=      0.260443864719
 orbitals (Q,E):
 ---------------
 A :22...32          ( 2.00    -0.5559)  ( 2.00    -0.4895)  ( 2.00    -0.2116)  ( 2.00    -0.1403)
                     ( 2.00    -0.1403)  ( 2.00    -0.0897)  ( 2.00    -0.0883)  ( 2.00    -0.0883)
                     ( 2.00    -0.0544)  ( 2.00    -0.0544)  ( 0.00     0.0479)

 CYCLE    7
  SDIIS (wt  0.098): -0.2000  0.2080  0.2430 -0.0447  0.3200  0.4736
 A-DIIS (wt  0.902):  0.0000  0.0000  0.0000  0.0000  0.0846  0.9154
  DIIS coefficients: -0.0195  0.0203  0.0237 -0.0044  0.1075  0.8724
 SCF Error: norm([F,P])=      0.325285135370, max([F,P])=      0.090347136425
 orbitals (Q,E):
 ---------------
 A :22...32          ( 2.00    -0.5699)  ( 2.00    -0.4727)  ( 2.00    -0.2152)  ( 2.00    -0.1452)
                     ( 2.00    -0.1452)  ( 2.00    -0.1269)  ( 2.00    -0.1242)  ( 2.00    -0.1242)
                     ( 2.00    -0.0427)  ( 2.00    -0.0427)  ( 0.00     0.0582)

 CYCLE    8
  SDIIS (wt  0.000): -0.0418 -0.1886  0.2920 -0.0049  0.0920  0.5592  0.2921
 A-DIIS (wt  1.000):  0.0000  0.0000  0.0000  0.0000  0.0000  0.6766  0.3234
  DIIS coefficients:  0.0000  0.0000  0.0000  0.0000  0.0000  0.6766  0.3234
 SCF Error: norm([F,P])=      0.496204250955, max([F,P])=      0.135065183504
 orbitals (Q,E):
 ---------------
 A :22...32          ( 2.00    -0.5454)  ( 2.00    -0.4890)  ( 2.00    -0.2175)  ( 2.00    -0.1481)
                     ( 2.00    -0.1481)  ( 2.00    -0.1069)  ( 2.00    -0.1000)  ( 2.00    -0.1000)
                     ( 2.00    -0.0560)  ( 2.00    -0.0560)  ( 0.00     0.0493)

 CYCLE    9
  SDIIS (wt  0.333): -0.0091 -0.2838  0.3486 -0.0063  0.0063  0.3741  0.1510  0.4192
 A-DIIS (wt  0.667):  0.0000  0.0000  0.0000  0.0000  0.0000  0.2927  0.0000  0.7073
  DIIS coefficients: -0.0030 -0.0945  0.1161 -0.0021  0.0021  0.3198  0.0503  0.6113
 SCF Error: norm([F,P])=      0.195697699368, max([F,P])=      0.067032233156
 orbitals (Q,E):
 ---------------
 A :22...32          ( 2.00    -0.5564)  ( 2.00    -0.4944)  ( 2.00    -0.2047)  ( 2.00    -0.1284)
                     ( 2.00    -0.1284)  ( 2.00    -0.1011)  ( 2.00    -0.0994)  ( 2.00    -0.0994)
                     ( 2.00    -0.0532)  ( 2.00    -0.0532)  ( 0.00     0.0538)

 CYCLE   10
  SDIIS (wt  0.000): -0.0095  0.0907 -0.0912 -0.0017 -0.0130  0.1600 -0.0275  0.5833  0.3090
 A-DIIS (wt  1.000):  0.0000  0.0000  0.0000  0.0000  0.0000  0.0716  0.0000  0.5819  0.3465
  DIIS coefficients:  0.0000  0.0000  0.0000  0.0000  0.0000  0.0716  0.0000  0.5819  0.3465
 SCF Error: norm([F,P])=      0.227615375731, max([F,P])=      0.092161075589
 orbitals (Q,E):
 ---------------
 A :22...32          ( 2.00    -0.5498)  ( 2.00    -0.4921)  ( 2.00    -0.2115)  ( 2.00    -0.1380)
                     ( 2.00    -0.1380)  ( 2.00    -0.0983)  ( 2.00    -0.0953)  ( 2.00    -0.0953)
                     ( 2.00    -0.0568)  ( 2.00    -0.0568)  ( 0.00     0.0489)

 CYCLE   11
  SDIIS (wt  0.752): -0.0038  0.0597 -0.0710 -0.0018  0.0009 -0.0178  0.0149  0.2790  0.2159  0.5241
 A-DIIS (wt  0.248):  0.0000  0.0000  0.0000  0.0000  0.0000  0.0000  0.0000  0.2414  0.0868  0.6717
  DIIS coefficients: -0.0029  0.0449 -0.0534 -0.0014  0.0007 -0.0134  0.0112  0.2697  0.1839  0.5607
 SCF Error: norm([F,P])=      0.085735032537, max([F,P])=      0.025525300709
 orbitals (Q,E):
 ---------------
 A :22...32          ( 2.00    -0.5495)  ( 2.00    -0.4920)  ( 2.00    -0.2112)  ( 2.00    -0.1372)
                     ( 2.00    -0.1372)  ( 2.00    -0.1029)  ( 2.00    -0.0990)  ( 2.00    -0.0990)
                     ( 2.00    -0.0565)  ( 2.00    -0.0565)  ( 0.00     0.0502)

 CYCLE   12
  SDIIS (wt  0.931):  0.0253 -0.0316 -0.0001 -0.0026 -0.0070 -0.0066  0.1231  0.0555  0.2567  0.5872
 A-DIIS (wt  0.069):  0.0000  0.0000  0.0000  0.0000  0.0000  0.0000  0.0000  0.0000  0.0524  0.9476
  DIIS coefficients:  0.0236 -0.0294 -0.0001 -0.0024 -0.0065 -0.0061  0.1146  0.0517  0.2425  0.6122
 SCF Error: norm([F,P])=      0.018915064441, max([F,P])=      0.007875553453
 orbitals (Q,E):
 ---------------
 A :22...32          ( 2.00    -0.5490)  ( 2.00    -0.4920)  ( 2.00    -0.2117)  ( 2.00    -0.1380)
                     ( 2.00    -0.1380)  ( 2.00    -0.1020)  ( 2.00    -0.0981)  ( 2.00    -0.0981)
                     ( 2.00    -0.0567)  ( 2.00    -0.0567)  ( 0.00     0.0497)

 CYCLE   13
  SDIIS (wt  0.996): -0.0005 -0.0000 -0.0004 -0.0001 -0.0025  0.0191  0.0088  0.0432  0.2536  0.6787
 A-DIIS (wt  0.004):  0.0000  0.0000  0.0000  0.0000  0.0000  0.0000  0.0000  0.0000  0.0245  0.9755
  DIIS coefficients: -0.0005 -0.0000 -0.0004 -0.0001 -0.0025  0.0190  0.0088  0.0430  0.2527  0.6799
 SCF Error: norm([F,P])=      0.003555999489, max([F,P])=      0.001388588309
 orbitals (Q,E):
 ---------------
 A :22...32          ( 2.00    -0.5491)  ( 2.00    -0.4920)  ( 2.00    -0.2115)  ( 2.00    -0.1378)
                     ( 2.00    -0.1378)  ( 2.00    -0.1021)  ( 2.00    -0.0982)  ( 2.00    -0.0982)
                     ( 2.00    -0.0567)  ( 2.00    -0.0567)  ( 0.00     0.0498)

 CYCLE   14
  SDIIS (wt  1.000):  0.0000  0.0000 -0.0005 -0.0003  0.0011 -0.0003  0.0095  0.0582  0.1642  0.7681
  DIIS coefficients:  0.0000  0.0000 -0.0005 -0.0003  0.0011 -0.0003  0.0095  0.0582  0.1642  0.7681
 SCF Error: norm([F,P])=      0.000133184568, max([F,P])=      0.000047814524
 orbitals (Q,E):
 ---------------
 A :22...32          ( 2.00    -0.5491)  ( 2.00    -0.4920)  ( 2.00    -0.2115)  ( 2.00    -0.1378)
                     ( 2.00    -0.1378)  ( 2.00    -0.1021)  ( 2.00    -0.0982)  ( 2.00    -0.0982)
                     ( 2.00    -0.0567)  ( 2.00    -0.0567)  ( 0.00     0.0498)

 CYCLE   15
  SDIIS (wt  1.000): -0.0000 -0.0001 -0.0001  0.0006 -0.0001  0.0031  0.0200  0.0570  0.3194  0.6002
  DIIS coefficients: -0.0000 -0.0001 -0.0001  0.0006 -0.0001  0.0031  0.0200  0.0570  0.3194  0.6002
 SCF Error: norm([F,P])=      0.000020374836, max([F,P])=      0.000006741117
 orbitals (Q,E):
 ---------------
 A :22...32          ( 2.00    -0.5491)  ( 2.00    -0.4920)  ( 2.00    -0.2115)  ( 2.00    -0.1378)
                     ( 2.00    -0.1378)  ( 2.00    -0.1021)  ( 2.00    -0.0982)  ( 2.00    -0.0982)
                     ( 2.00    -0.0567)  ( 2.00    -0.0567)  ( 0.00     0.0498)

 CYCLE   16
  SDIIS (wt  1.000): -0.0001 -0.0000  0.0001 -0.0001  0.0011  0.0061  0.0166  0.1066  0.2336  0.6360
  DIIS coefficients: -0.0001 -0.0000  0.0001 -0.0001  0.0011  0.0061  0.0166  0.1066  0.2336  0.6360
 SCF Error: norm([F,P])=      0.000002709559, max([F,P])=      0.000000589244
 orbitals (Q,E):
 ---------------
 A :22...32          ( 2.00    -0.5491)  ( 2.00    -0.4920)  ( 2.00    -0.2115)  ( 2.00    -0.1378)
                     ( 2.00    -0.1378)  ( 2.00    -0.1021)  ( 2.00    -0.0982)  ( 2.00    -0.0982)
                     ( 2.00    -0.0567)  ( 2.00    -0.0567)  ( 0.00     0.0498)

 SCF CONVERGED

 CYCLE   17
1
 ***************************************************************************************************



                                                *******************
                                                *  R E S U L T S  *
                                                *******************
  
 *** Setting up for NEW gradients in Focky
 *** Using FIT density in Focky

 Orbital Energies, per Irrep and Spin:
 ======================================
                        Occup              E (au)              E (eV)       Diff (eV) with prev. cycle
                        -----      --------------------        ------       --------------------------
 A
              22        2.000     -0.54912047283500E+00       -14.942               2.98E-06
              23        2.000     -0.49200876718069E+00       -13.388               3.50E-06
              24        2.000     -0.21153417933386E+00        -5.756               1.84E-06
              25        2.000     -0.13781485726733E+00        -3.750               1.27E-06
              26        2.000     -0.13780624006816E+00        -3.750               1.27E-06
              27        2.000     -0.10209983816825E+00        -2.778               2.04E-06
              28        2.000     -0.98227168649138E-01        -2.673               1.70E-06
              29        2.000     -0.98225307102333E-01        -2.673               1.70E-06
              30        2.000     -0.56687854482078E-01        -1.543               2.55E-06
              31        2.000     -0.56681578123015E-01        -1.542               2.55E-06
              32        0.000      0.49796206081770E-01         1.355
              33        0.000      0.19893297564923E+00         5.413
              34        0.000      0.31452133193616E+00         8.559
              35        0.000      0.31454327502022E+00         8.559
              36        0.000      0.32413138220998E+00         8.820
              37        0.000      0.37570287452366E+00        10.223
              38        0.000      0.41651842837060E+00        11.334
              39        0.000      0.41652977932079E+00        11.334
              40        0.000      0.44637057769979E+00        12.146
              41        0.000      0.44637360182956E+00        12.146
  
 HOMO :       31 A                -0.56681578123015E-01
 LUMO :       32 A                 0.49796206081770E-01
  


 All Electron Calculation, thus no Orbital Energies of the Core Orbitals are calculated


 Fit test: (difference of exact and fit density, squared integrated, result summed over spins)
         Sum-of-Fragments:                             0.00085508556915
         Orthogonalized Fragments:                     0.00086052055796
         SCF:                                          0.00086126394088



 ==========================
 Electron Density at Nuclei
 ==========================
  
 The electron density is calculated at points on a small sphere around the center of a nucleus.
 The printed electron density is the average electron density on these points.
 The radius of the sphere is the printed approximate finite nuclear radius.

         Atom        Nuclear Radius (Angstrom)             Electron Density (a.u.)
         ----        -------------------------             -----------------------
     1)   Br                0.0000536685                            29315.66604
     2)   Cl                0.0000426624                             3210.52969
     3)   F                 0.0000361580                              447.48682



 =======================================
 M U L L I K E N   P O P U L A T I O N S
 =======================================
  
 The survey below gives for each atom:
 a) the total charge (Z minus electrons)
 b) the net spin polarization (nr of electrons spin-A minus spin-B)
 c) for each spin the atomic electron valence density (integrated) per L-value.

 Atom              Charge    Spin density          S         P         D         F
 ----              ------    ------------       ------    ------    ------    ------
 1 Br             -0.0136                       8.0041   16.8279   10.1543    0.0273
 2 Cl             -0.4778                       5.9726   11.4817    0.0194    0.0042
 3 F              -0.5086                       3.9869    5.5092    0.0115    0.0010

 Populations of individual BAS functions
 ----------------------------------------
 1 Br           0.3611  1.5681  2.0733  0.7132  0.7123  0.7134  1.2647  1.2663  1.2644  1.4384
                0.5889  1.1383  1.1216  1.1421  0.8906  0.9053  0.8872  0.2679  0.4018  0.4019
                0.2676  0.4016  0.2681  0.7777  1.1654  1.1664  0.7758  1.1654  0.7782  0.2869
                0.4344  0.4318  0.2945  0.4337  0.2854  0.2932  1.2607  0.4205  0.5966  0.3669
                0.6485  0.9643  0.6334  1.0391  0.2286  0.0660  0.2652  0.0067  0.0493  0.0070
                0.0543  0.0289  0.0036 -0.0056 -0.0008 -0.0004  0.0163  0.0034 -0.0036  0.0202
                0.0137 -0.0081 -0.0078
 2 Cl           0.5055  1.4530  1.7117  0.2565  0.7274  0.7234  0.7283  1.2705  1.2760  1.2693
                0.6011  1.0336  0.4112  0.2934  0.2419  0.3048  1.0428  0.9328  1.0672  0.5699
                0.4341  0.6002 -0.0018  0.0058  0.0011  0.0149  0.0045 -0.0053 -0.0034 -0.0031
               -0.0004  0.0071  0.0005 -0.0025  0.0102  0.0069 -0.0054 -0.0057
 3 F            0.5758  1.4009  1.0887  0.9033  0.0182  0.3928  0.3356  0.4059  0.9472  0.8620
                0.9667  0.5608  0.4528  0.5854 -0.0019  0.0037  0.0006  0.0113  0.0024 -0.0045
               -0.0021 -0.0022 -0.0003  0.0040  0.0001 -0.0016  0.0060  0.0040 -0.0035 -0.0035

 Gross Charges per Atom (Z minus electrons)
 ==========================================
            -0.0136   -0.4778   -0.5086
 Net Total: -1.00000000


 Atom-Atom Population Matrix (off-diagonal elements not doubled)
 ===============================================================

     1 :    34.9210
     2 :     0.0264   17.4493
     3 :     0.0662    0.0021    9.4403


 Frag-Frag Population Matrix (off-diagonal elements not doubled)
 ===============================================================

     1 :    52.4231
     2 :     0.0683    9.4403



 =================================================
 H I R S H F E L D   C H A R G E   A N A L Y S I S
 =================================================
  
 For each fragment: the (numerical) integral of rho(scf) * rho(fragment)/rho(sum-of-fragments)
 (nuclear charges are included, electrons are counted negative)

 The fragments and their ordering are defined in the early G E O M E T R Y output section.
 If you use single-atom fragments, this usually implies that all atoms of the same
 chemical type are grouped together. This may not be the order in which you listed them
 in the input file!

    1  BrCl                     -0.3923
    2  F                        -0.6077

 Sum of these charges (accuracy NumInt/Tails) =          -1.00000632



 =============================
 V O R O N O I   C H A R G E S
 =============================
  
 For each atom: the (numerical) integral of the total electronic charge density in its Voronoi cell,
 i.e. the region of space that is closer to that atom than to any other atom.
 (cf. Wigner-Seitz cells in crystals)

 Within the Voronoi cell the subintegrals over the atomic sphere and the remaining part are evaluated
 separately to give the numbers of electrons (negative charge) in these regions.
 The net total charge in the cell (including the nuclear charge) is also given.

 Values are provided for
    a) the Initial (sum-of-fragments) density
    b) the Orthogonalized-Fragments density
    c) the SCF density
    d) the Voronoi Deformation Density (VDD): the difference SCF-Initial for the complete atomic cell
 ---------------------------------------------------------------------------------------------------
 Total NetCharge:              -1.000                     -1.000                     -1.000   -0.000
 (accuracy NumInt/Tails)

 Remark: the 'NetTotal' Voronoi charges often do not match the Mulliken and/or Hirshfeld charges very
 well. This is caused by the fact that chemically different atoms are not treated in accordance with
 their relative sizes. (Voronoi cells are defined by boundary planes halfway between the atoms.)
 However, the CHANGES in charge, comparing 'Initial' to 'SCF' for instance, do give a fair indication
 of the flow of charge caused by the relaxation from sum-of-fragments to self-consistency.

 Warning: the absolute accuracy of the VDD charges obtained using the Fuzzy Cells (Becke) integration
 scheme is much poorer than the one obtained with an 'equivalent' Voronoi integration grid. 



 =================================================================
 M U L T I P O L E   D E R I V E D   C H A R G E   A N A L Y S I S
 =================================================================

 This charge analysis uses the atomic multipoles (obtained from the fitted density) up to some level X,
 and reconstructs these multipoles exactly (up to level X) by distributing charges over all atoms.
 This is achieved by using Lagrange multipliers and a weight function to keep the multipoles local.

 Dummy atoms can be included (by setting INCDUM in MDC-block to 1) to obtain a fractional charge.
 This is generally useful and necessary only for small symmetrical molecules, when there are not
 enough degrees of freedom to reconstruct the multipoles.

 Since the atomic multipoles are reconstructed up to level X,
 the molecular multipoles are represented also up to level X.
 The recommended level is to reconstruct up to quadrupole : -> MDC-q charges.

 See: M. Swart, P.Th. van Duijnen, J.G. Snijders, J.Comput.Chem., (2001), p. 79-88.

 ------------------------------------------------------------- 
 Atomic electronic multipole moments from SCF equations (a.u.)
 ------------------------------------------------------------- 

   atom        charge        dip-x     dip-y     dip-z      quad-xx   quad-xy   quad-xz   quad-yy   quad-yz   quad-zz
 --------------------------------------------------------------------------------------------------------------------
    1 Br     0.365624    -0.286907  0.614100 -0.119754    -0.887754 -1.360393  0.267843  2.553691 -0.576282 -1.665937
    2 Cl    -0.547102    -0.021838  0.046699 -0.009114    -0.247954 -0.376362  0.074670  0.709515 -0.161197 -0.461561
    3 F     -0.818522    -0.194488  0.417604 -0.081881    -0.006287 -0.010339  0.001971  0.018834 -0.004143 -0.012547

 --------------------------------------- 
 Multipole derived atomic charges (a.u.)
 --------------------------------------- 

 The MDC-m charges are just the Monopole terms in the multipole expansion, while for the MDC-d charges
 also the Dipoles are reconstructed. The usually preferred charges are the MDC-q charges.
 These reconstruct the Monopoles, Dipoles and Quadrupoles (both atomic AND molecular).

        Atom    Level:     MDC-m        MDC-d        MDC-q
 ---------------------------------------------------------
     1     Br           0.365624    -0.170965    -0.003631
     2     Cl          -0.547102    -0.446665    -0.521527
     3     F           -0.818522    -0.382370    -0.474842

 ------------------------------------------------ 
 Average absolute deviations in atomic multipoles
 ------------------------------------------------ 

 Stated here are the average differences between the atomic multipoles
 and the reconstructed atomic multipoles (from the distributed charges).
 If these values are not zero, this means there are not enough degrees of freedom,
 to be able to reconstruct the atomic multipoles. (This usually happens only
 for small and/or highly symmetric molecules). If this is the case, one could add
 dummy atoms as extra point charges (and setting INCDUM in MDC-block to 1).

 Level:                                 MDC-d        MDC-q
 ---------------------------------------------------------
 Charge   (a.u.)                       0.0000       0.0000
 Dipole   (Debye)                      0.0000       0.0053
 Quad.    (a.u.)                       0.7191       0.2148

 --------------------------------------- 
 Represented molecular multipole moments
 --------------------------------------- 

 Given here are the Molecular multipole moments from the atomic charges, and from the Fit Density.
 Note that the atomic charges represent the latter, NOT the ones from the Exact density.

            Q (a.u.)             Dipole moment (Debye)                                          Quadrupole moment (a.u.)
                                 x         y         z              xx        xy        xz        yy        yz        zz
------------------------------------------------------------------------------------------------------------------------
MDC-m        -1.0000       24.5722  -16.8432    0.5988        -65.6473  109.4597   -6.0528  -13.8992    8.0183   79.5465
MDC-d        -1.0000       23.2931  -14.1021    0.0632        -64.8961   84.7415   -2.0130    0.5932    3.8056   64.3029
MDC-q        -1.0000       23.2981  -14.1088    0.0630        -64.1791   86.4893   -2.3461   -1.5408    4.5241   65.7198
 
Fit.Dens.    -1.0000       23.2931  -14.1021    0.0632        -64.6793   86.1171   -2.2836   -0.0331    4.3873   64.7124



 =============
 Dipole Moment  ***  (Debye)  ***
 =============
  
 Vector   :        23.29033527    -14.09626309      0.06200066
 Magnitude:        27.22403706

 This molecular dipole moment is calculated with analytic integration
 ************************************************************************************
 Since the molecule is NOT NEUTRAL, the dipole moment depends on the choice of origin
 ************************************************************************************



 =========================================
 Quadrupole Moment (Buckingham convention)  ***  (a.u.)  ***
 =========================================
  
      quad-xx        quad-xy        quad-xz        quad-yy        quad-yz        quad-zz
    -64.67631864    85.19349187    -2.10325880    -0.00594393     4.00864083    64.68226257

 This molecular quadrupole moment is calculated with analytic integration
1



                                             *************************
                                             *  SFO MO coefficients  *
                                             *************************
  


                                       === A ===
 MOs expanded in CFs+SFOs
 ========================

 The SFOs have been characterized in an earlier part of output.
 To deduce the bonding / antibonding nature of SFO combinations in an MO, consider the products
 of the coefficients AND THE OVERLAP between the SFOs (may be NEGATIVE). The SFO overlap matrix
 is printed later, in the SFO Populations section.

 (The CF coefficients are not printed)

 MOs :      1        2        3        4        5        6        7        8        9       10
 occup:   2.00     2.00     2.00     2.00     2.00     2.00     2.00     2.00     2.00     2.00
 CF+SFO
     1   1.0000   0.0000   0.0000  -0.0000  -0.0000  -0.0000   0.0000   0.0000  -0.0000  -0.0000
     2  -0.0000   1.0000  -0.0000  -0.0000  -0.0000   0.0000   0.0000  -0.0001  -0.0000   0.0000
     3   0.0000  -0.0000  -1.0000   0.0009   0.0000   0.0000  -0.0000  -0.0000   0.0001   0.0000
     4   0.0000   0.0000   0.0009   1.0000   0.0015   0.0009   0.0000   0.0000  -0.0000   0.0000
     5  -0.0000   0.0000  -0.0000   0.0014  -0.9994   0.0354   0.0000   0.0000   0.0000  -0.0000
     6  -0.0000   0.0000  -0.0000   0.0009  -0.0354  -0.9994   0.0000   0.0000   0.0000  -0.0000
     7  -0.0000  -0.0001  -0.0000  -0.0000  -0.0000   0.0000   0.0000  -1.0000  -0.0000   0.0017
     8   0.0000   0.0000  -0.0001   0.0000   0.0000   0.0000   0.0000   0.0002   0.9992   0.0000
     9  -0.0000  -0.0000  -0.0000  -0.0000  -0.0000   0.0000   0.0000   0.0017  -0.0000   1.0000
    10   0.0000   0.0000   0.0000   0.0000  -0.0000  -0.0000   0.0000  -0.0000   0.0000   0.0006
    11   0.0000   0.0000   0.0000   0.0000  -0.0000   0.0000   0.0000  -0.0000   0.0000   0.0005
    12   0.0000  -0.0000  -0.0000  -0.0000   0.0000   0.0000  -0.0000  -0.0001  -0.0042  -0.0000
    13   0.0000  -0.0000   0.0000  -0.0000   0.0000   0.0000  -0.0000  -0.0000   0.0000   0.0000
    14   0.0000  -0.0000   0.0000  -0.0000   0.0000  -0.0000  -0.0000  -0.0000   0.0000   0.0000
    15   0.0000  -0.0000  -0.0000  -0.0000   0.0000  -0.0000  -0.0000  -0.0000   0.0000  -0.0000
    16   0.0000  -0.0000  -0.0000  -0.0000   0.0000   0.0000  -0.0000  -0.0000  -0.0000   0.0000
    17  -0.0000   0.0000   0.0000  -0.0000   0.0000  -0.0000   0.0000   0.0000   0.0000  -0.0000
    18   0.0000  -0.0000   0.0000   0.0000   0.0000  -0.0000  -0.0000  -0.0000  -0.0000   0.0000
    19  -0.0000   0.0000   0.0000   0.0000   0.0000   0.0000   0.0000   0.0000  -0.0000  -0.0000
    20  -0.0000   0.0000   0.0000  -0.0000  -0.0000  -0.0000   0.0001   0.0009  -0.0020   0.0000
    21  -0.0000   0.0000   0.0000  -0.0000  -0.0000   0.0000   0.0001   0.0005  -0.0033  -0.0000
    22   0.0000  -0.0000  -0.0000   0.0000  -0.0000  -0.0000  -0.0001  -0.0006   0.0024  -0.0002
    23   0.0000  -0.0000  -0.0000   0.0000   0.0000   0.0000  -0.0000  -0.0000   0.0000   0.0000
    24   0.0000  -0.0000  -0.0000   0.0000   0.0000  -0.0000  -0.0000  -0.0000   0.0000   0.0000
    25  -0.0000   0.0000   0.0000  -0.0000   0.0000  -0.0000   0.0000   0.0000  -0.0000   0.0000
    26  -0.0000   0.0000   0.0000  -0.0000   0.0000   0.0000   0.0000   0.0000  -0.0000   0.0000
    27  -0.0000   0.0000   0.0000  -0.0000   0.0000   0.0000   0.0002   0.0008  -0.0027  -0.0001
    28  -0.0000   0.0001  -0.0000  -0.0000  -0.0000   0.0000   0.0002   0.0016  -0.0041   0.0000
    29  -0.0000   0.0000  -0.0000   0.0000   0.0000   0.0000   0.0000   0.0000  -0.0000  -0.0000
    30   0.0000  -0.0000   0.0000   0.0000   0.0000  -0.0000  -0.0000  -0.0000   0.0000   0.0000
    31  -0.0000   0.0000  -0.0000   0.0000  -0.0000   0.0000  -0.0000   0.0003  -0.0005   0.0001
    32  -0.0000   0.0000  -0.0000  -0.0000  -0.0000   0.0000   0.0001   0.0006  -0.0023  -0.0000
    33   0.0000  -0.0000  -0.0000   0.0000  -0.0000  -0.0000  -0.0000  -0.0000   0.0000   0.0000
    34   0.0000  -0.0000   0.0000   0.0000  -0.0000   0.0000  -0.0000  -0.0000   0.0000   0.0000
    35  -0.0000   0.0000  -0.0000  -0.0000  -0.0000  -0.0000   0.0000   0.0000   0.0000   0.0000
    36   0.0000  -0.0000  -0.0000  -0.0000  -0.0000   0.0000   0.0000  -0.0000   0.0000  -0.0000
    37  -0.0000   0.0000  -0.0000   0.0000  -0.0000  -0.0000  -0.0000   0.0000   0.0000  -0.0000
    38  -0.0000   0.0000   0.0000   0.0000  -0.0000   0.0000  -0.0000   0.0000  -0.0000  -0.0000
    39   0.0000   0.0000  -0.0000   0.0000  -0.0000  -0.0000  -0.0001   0.0001   0.0006  -0.0001
    40   0.0000  -0.0000  -0.0000  -0.0000   0.0000   0.0000   0.0001   0.0002  -0.0004   0.0000
    41   0.0000  -0.0000  -0.0000  -0.0000  -0.0000   0.0000  -0.0000  -0.0000   0.0000   0.0000
    42  -0.0000   0.0000  -0.0000  -0.0000  -0.0000  -0.0000   0.0000   0.0000  -0.0000  -0.0000
    43   0.0000  -0.0000  -0.0000   0.0000  -0.0000   0.0000  -0.0000  -0.0000   0.0000  -0.0000
    44   0.0000  -0.0000  -0.0000   0.0000  -0.0000  -0.0000  -0.0000  -0.0000   0.0000   0.0000
    45   0.0000  -0.0000  -0.0000   0.0000   0.0000  -0.0000  -0.0001   0.0000   0.0008  -0.0001
    46   0.0000  -0.0000  -0.0000  -0.0000  -0.0000  -0.0000  -0.0000  -0.0000   0.0000   0.0000
    47  -0.0000   0.0000   0.0000   0.0000  -0.0000  -0.0000  -0.0000   0.0000  -0.0000  -0.0000
    48   0.0000  -0.0000  -0.0000  -0.0000   0.0000  -0.0000  -0.0000  -0.0000  -0.0000   0.0000
    49   0.0000  -0.0000  -0.0000  -0.0000  -0.0000  -0.0000  -0.0000  -0.0000  -0.0000   0.0000
    50   0.0000  -0.0000  -0.0000   0.0000   0.0000   0.0000  -0.0000  -0.0000   0.0000   0.0000
    51   0.0000  -0.0000  -0.0000  -0.0000   0.0000  -0.0000  -0.0000  -0.0000   0.0000   0.0000
    52   0.0000  -0.0000  -0.0000  -0.0000   0.0000  -0.0000  -0.0001  -0.0003   0.0004   0.0001
    53  -0.0000  -0.0000  -0.0000   0.0000   0.0000  -0.0000   0.0000  -0.0000  -0.0000  -0.0000
    54   0.0000   0.0000  -0.0000  -0.0000   0.0000   0.0000  -0.0000   0.0000   0.0000   0.0000
    55  -0.0000  -0.0000   0.0000   0.0000  -0.0000   0.0000   0.0000  -0.0000  -0.0000   0.0000
    56   0.0000  -0.0000   0.0000   0.0000   0.0000  -0.0000  -0.0000  -0.0000   0.0000   0.0000
    57   0.0000  -0.0000  -0.0000   0.0000   0.0000   0.0000  -0.0001  -0.0001   0.0006  -0.0000
    58  -0.0000   0.0000   0.0000  -0.0000  -0.0000   0.0000   0.0000   0.0000  -0.0000   0.0000
    59   0.0000  -0.0000  -0.0000  -0.0000  -0.0000  -0.0000  -0.0000  -0.0000   0.0000  -0.0000
    60   0.0000  -0.0000  -0.0000  -0.0000   0.0000  -0.0000  -0.0001  -0.0002   0.0005   0.0003
    61   0.0000  -0.0000  -0.0000  -0.0000   0.0000  -0.0000  -0.0000  -0.0000   0.0000  -0.0000
    62   0.0000  -0.0000  -0.0000  -0.0000   0.0000   0.0000  -0.0000  -0.0000   0.0000  -0.0000
    63  -0.0000   0.0000   0.0000   0.0000   0.0000  -0.0000  -0.0000   0.0007  -0.0003   0.0002
    64   0.0000   0.0000   0.0000  -0.0000  -0.0000  -0.0000   0.0000  -0.0000  -0.0000   0.0000
    65  -0.0000  -0.0000  -0.0000   0.0000  -0.0000   0.0000  -0.0000  -0.0000   0.0000  -0.0000
    66   0.0000  -0.0000  -0.0000   0.0000  -0.0000   0.0000   0.0000  -0.0002   0.0001   0.0004
    67   0.0000   0.0000   0.0000   0.0000   0.0000   0.0000   0.0000   0.0000  -0.0000  -0.0000
    68  -0.0000  -0.0000   0.0000   0.0000   0.0000  -0.0000   0.0000  -0.0000  -0.0000   0.0000
    69  -0.0000  -0.0000   0.0000  -0.0000   0.0000  -0.0000   0.0000  -0.0003  -0.0004   0.0002
    70   0.0000  -0.0000  -0.0000  -0.0000   0.0000   0.0000  -0.0000  -0.0000   0.0000   0.0000
    71  -0.0000   0.0000   0.0000  -0.0000   0.0000  -0.0000   0.0000   0.0000  -0.0000  -0.0000
    72   0.0000  -0.0000  -0.0000  -0.0000  -0.0000  -0.0000  -0.0000  -0.0000   0.0004   0.0001
    73   0.0000   0.0000   0.0000   0.0000   0.0000  -0.0000  -0.0000   0.0000  -0.0000   0.0000
    74   0.0000   0.0000  -0.0000   0.0000   0.0000   0.0000  -0.0000   0.0000  -0.0000   0.0000
    75   0.0000  -0.0000  -0.0000   0.0000   0.0000   0.0000   0.0000  -0.0000   0.0001  -0.0000
    76   0.0000  -0.0001  -0.0000   0.0000  -0.0000  -0.0000  -0.0000  -0.0002  -0.0001   0.0000
    77  -0.0000  -0.0000   0.0001  -0.0000   0.0000  -0.0000   0.0000  -0.0000   0.0001   0.0000
    78  -0.0000   0.0000  -0.0000   0.0000   0.0000   0.0000  -0.0000   0.0000  -0.0000  -0.0000
    79   0.0000  -0.0000   0.0000  -0.0000  -0.0000   0.0000   0.0000  -0.0000   0.0000   0.0000
    80  -0.0000  -0.0000   0.0000   0.0000   0.0000   0.0000  -0.0000  -0.0000   0.0000  -0.0004
    81  -0.0000  -0.0000  -0.0000  -0.0000  -0.0000   0.0000   0.0000  -0.0000   0.0000  -0.0000
    82   0.0000  -0.0000   0.0000   0.0000  -0.0000  -0.0000   0.0000   0.0000  -0.0000  -0.0000
    83   0.0000  -0.0000   0.0000  -0.0000  -0.0000  -0.0000  -0.0000  -0.0000  -0.0000  -0.0000
    84  -0.0000   0.0000  -0.0000  -0.0000   0.0000  -0.0000   0.0000   0.0000   0.0000   0.0000
    85  -0.0000   0.0000   0.0000   0.0000   0.0000   0.0000  -0.0000   0.0000   0.0000   0.0001
    86  -0.0000   0.0000   0.0000  -0.0000   0.0001  -0.0000  -0.0000   0.0000  -0.0000  -0.0000
    87  -0.0000   0.0000   0.0000  -0.0000   0.0000   0.0001  -0.0000   0.0000   0.0000  -0.0000
    88   0.0000  -0.0000  -0.0000  -0.0001  -0.0000  -0.0000  -0.0000   0.0000   0.0000  -0.0000
    89   0.0000  -0.0001  -0.0000   0.0000   0.0000   0.0000  -0.0000   0.0000   0.0000   0.0000
    90   0.0001   0.0000  -0.0000   0.0000   0.0000   0.0000  -0.0000  -0.0000   0.0000  -0.0000
    91   0.0000  -0.0000   0.0000   0.0000   0.0000  -0.0000   1.0000  -0.0001   0.0005  -0.0000
    92   0.0000  -0.0000  -0.0000   0.0000   0.0000  -0.0000  -0.0004  -0.0012   0.0041  -0.0000
    93  -0.0000   0.0000   0.0000  -0.0000  -0.0000   0.0000   0.0000   0.0000  -0.0000   0.0000
    94  -0.0000   0.0000   0.0000  -0.0000  -0.0000  -0.0000   0.0000   0.0001  -0.0006   0.0000
    95   0.0000  -0.0000  -0.0000   0.0000  -0.0000  -0.0000  -0.0000  -0.0003   0.0023  -0.0000
    96   0.0000  -0.0001   0.0000   0.0000   0.0000  -0.0000  -0.0001  -0.0018   0.0048   0.0000
    97   0.0000  -0.0000  -0.0000   0.0000   0.0000  -0.0000  -0.0002  -0.0004   0.0020   0.0000
    98  -0.0000   0.0000   0.0000  -0.0000   0.0000   0.0000   0.0001   0.0003  -0.0016  -0.0000
    99   0.0000  -0.0000  -0.0000   0.0000   0.0000   0.0000  -0.0001  -0.0001   0.0007   0.0000
   100   0.0000  -0.0000   0.0000  -0.0000   0.0000  -0.0000   0.0000  -0.0001   0.0000   0.0000
   101  -0.0000   0.0000  -0.0000   0.0000   0.0000   0.0000  -0.0000   0.0000  -0.0000  -0.0000
   102  -0.0000   0.0000  -0.0000   0.0000   0.0000  -0.0000  -0.0000   0.0001  -0.0000  -0.0000
   103   0.0000  -0.0000   0.0000  -0.0000  -0.0000  -0.0000   0.0000  -0.0000   0.0000   0.0000
   104  -0.0000   0.0000  -0.0000   0.0000   0.0000  -0.0000  -0.0000   0.0000  -0.0000  -0.0000
   105  -0.0000   0.0000   0.0000  -0.0000  -0.0000   0.0000  -0.0001   0.0004  -0.0013   0.0000
   106   0.0000  -0.0000  -0.0000  -0.0000  -0.0000  -0.0000   0.0000  -0.0000   0.0003   0.0000
   107   0.0000  -0.0000  -0.0000  -0.0000   0.0000  -0.0000   0.0000  -0.0000   0.0001   0.0000
   108  -0.0000   0.0000   0.0000   0.0000  -0.0000  -0.0000  -0.0000   0.0000  -0.0001  -0.0000
   109  -0.0000   0.0000   0.0000   0.0000  -0.0000  -0.0000  -0.0000   0.0000  -0.0001  -0.0000
   110  -0.0000   0.0000   0.0000   0.0000   0.0000  -0.0000  -0.0000   0.0000  -0.0000  -0.0000
   111   0.0000  -0.0000  -0.0000  -0.0000   0.0000   0.0000   0.0000  -0.0000   0.0001   0.0000
   112  -0.0000   0.0000   0.0000   0.0000   0.0000  -0.0000  -0.0000   0.0000  -0.0001  -0.0000
   113   0.0000  -0.0000   0.0000  -0.0000   0.0000   0.0000   0.0002  -0.0001   0.0001   0.0000
   114   0.0000  -0.0000   0.0000  -0.0000  -0.0000   0.0000   0.0002  -0.0001   0.0001   0.0000
   115  -0.0000   0.0000  -0.0000   0.0000   0.0000   0.0000  -0.0001   0.0000  -0.0000  -0.0000
   116   0.0000  -0.0000  -0.0000   0.0000   0.0000  -0.0000  -0.0002  -0.0000   0.0000  -0.0000

 MOs :     11       12       13       14       15       16       17       18       19       20
 occup:   2.00     2.00     2.00     2.00     2.00     2.00     2.00     2.00     2.00     2.00
 CF+SFO
     1   0.0000  -0.0000  -0.0000  -0.0000  -0.0000  -0.0000   0.0000   0.0000   0.0000   0.0000
     2   0.0000  -0.0000  -0.0000  -0.0000  -0.0000  -0.0000   0.0000   0.0000   0.0000   0.0000
     3  -0.0000   0.0000   0.0000   0.0000  -0.0000   0.0000  -0.0000  -0.0000  -0.0000  -0.0000
     4  -0.0000   0.0000   0.0000   0.0000  -0.0000  -0.0001  -0.0000  -0.0000   0.0000   0.0000
     5   0.0000  -0.0000   0.0000  -0.0000  -0.0000  -0.0000   0.0000  -0.0000  -0.0000   0.0000
     6   0.0000   0.0000   0.0000   0.0000  -0.0000  -0.0000   0.0000   0.0000   0.0000   0.0000
     7   0.0000  -0.0000  -0.0000  -0.0000  -0.0000  -0.0000   0.0000   0.0000   0.0000   0.0000
     8  -0.0000  -0.0000   0.0044  -0.0000   0.0000  -0.0003   0.0000   0.0000  -0.0000   0.0000
     9   0.0007  -0.0004   0.0000  -0.0000  -0.0000  -0.0000   0.0000   0.0000   0.0000   0.0000
    10  -0.9781  -0.2082   0.0000   0.0000  -0.0000   0.0000  -0.0000  -0.0000   0.0000  -0.0000
    11  -0.2082   0.9781   0.0000  -0.0000  -0.0000   0.0000  -0.0000   0.0000   0.0000   0.0000
    12   0.0000  -0.0000   1.0001  -0.0008   0.0011   0.0020   0.0000   0.0000   0.0000  -0.0000
    13   0.0000   0.0000   0.0012   0.8816  -0.4721   0.0000  -0.0009  -0.0017   0.0000  -0.0000
    14   0.0000  -0.0000   0.0006  -0.4721  -0.8816   0.0000  -0.0017   0.0009   0.0000   0.0000
    15   0.0000  -0.0000   0.0019  -0.0000  -0.0000  -0.9999  -0.0025  -0.0011   0.0000   0.0001
    16   0.0000  -0.0000  -0.0000   0.0006  -0.0018  -0.0028   0.9521   0.3059  -0.0010   0.0011
    17  -0.0000  -0.0000  -0.0000  -0.0018  -0.0006   0.0003   0.3059  -0.9521  -0.0010  -0.0011
    18  -0.0000   0.0000   0.0000  -0.0000  -0.0000  -0.0000  -0.0012   0.0007  -0.9992  -0.0387
    19  -0.0000  -0.0000  -0.0000   0.0000  -0.0000   0.0001  -0.0008  -0.0013  -0.0387   0.9992
    20   0.0000  -0.0000  -0.0003   0.0000  -0.0000  -0.0007  -0.0000  -0.0000   0.0000   0.0000
    21  -0.0000   0.0000  -0.0006  -0.0000  -0.0000  -0.0010  -0.0000  -0.0000   0.0000   0.0000
    22  -0.0000   0.0000   0.0003   0.0000  -0.0000   0.0005  -0.0000  -0.0000  -0.0000  -0.0000
    23   0.0000  -0.0000   0.0000  -0.0001   0.0001   0.0000   0.0001   0.0000  -0.0000   0.0000
    24  -0.0000  -0.0000   0.0000   0.0001   0.0001   0.0000   0.0000  -0.0001  -0.0000  -0.0000
    25  -0.0000  -0.0000  -0.0000  -0.0001  -0.0001  -0.0000  -0.0001   0.0000   0.0000   0.0000
    26   0.0000  -0.0000  -0.0000   0.0001  -0.0001  -0.0000  -0.0000  -0.0001   0.0000  -0.0000
    27  -0.0000   0.0000  -0.0003  -0.0000   0.0000  -0.0006   0.0000   0.0000   0.0000   0.0000
    28   0.0000  -0.0000  -0.0007   0.0000  -0.0000  -0.0008   0.0000   0.0000   0.0000   0.0000
    29   0.0000  -0.0000  -0.0000  -0.0001   0.0002  -0.0000   0.0003   0.0001  -0.0000   0.0000
    30  -0.0000  -0.0000   0.0000   0.0002   0.0001   0.0000   0.0001  -0.0003  -0.0000  -0.0000
    31   0.0000  -0.0000   0.0000   0.0000  -0.0000   0.0003   0.0000   0.0000   0.0000   0.0000
    32  -0.0000  -0.0000  -0.0003  -0.0000  -0.0000  -0.0004   0.0000   0.0000   0.0000   0.0000
    33  -0.0000   0.0000   0.0000   0.0000  -0.0000   0.0000  -0.0004  -0.0002   0.0000  -0.0000
    34   0.0000   0.0000   0.0000  -0.0000  -0.0000   0.0000  -0.0002   0.0004   0.0000   0.0000
    35  -0.0000   0.0000   0.0000  -0.0000   0.0000  -0.0000   0.0000   0.0000   0.0001  -0.0000
    36   0.0000   0.0000  -0.0000   0.0000   0.0000  -0.0000   0.0000  -0.0000   0.0000   0.0001
    37  -0.0000   0.0000   0.0000  -0.0000   0.0000   0.0000  -0.0001  -0.0001   0.0000  -0.0000
    38   0.0000   0.0000   0.0000   0.0000   0.0000   0.0000  -0.0001   0.0001   0.0000   0.0000
    39   0.0000  -0.0000   0.0003  -0.0000   0.0000   0.0005   0.0000   0.0000   0.0000  -0.0000
    40  -0.0000   0.0000  -0.0001  -0.0000   0.0000  -0.0003   0.0000   0.0000   0.0000   0.0000
    41  -0.0000  -0.0000  -0.0000   0.0000   0.0000  -0.0000   0.0000  -0.0000  -0.0000  -0.0000
    42   0.0000  -0.0000   0.0000  -0.0000   0.0000   0.0000   0.0000   0.0000  -0.0000   0.0000
    43  -0.0000  -0.0001   0.0000  -0.0000  -0.0000   0.0000  -0.0001   0.0002   0.0000   0.0000
    44   0.0001  -0.0000   0.0000   0.0000  -0.0000   0.0000  -0.0002  -0.0001   0.0000  -0.0000
[...]
  108    2.86021850464096E-18  2.65807409177872E-16 -4.33894321296910E-16  4.34178077334240E-16
  109   -1.32071918234732E-16 -1.59039117934704E-16  2.27333902164161E-16 -1.03327643411421E-16
  110    2.89140625775886E-16  1.08684491528094E-16 -2.60792921190567E-16  5.82110475748072E-16
  111   -6.75407554998108E-16  1.57971644662927E-18 -1.51596662943654E-16  1.35850214575078E-16
  112    2.39689254128404E-16  6.18722839618429E-16  1.42457812717491E-16 -1.16379055287982E-15
  113    5.45732316487631E-16 -1.40805674953871E-16 -3.42506666068223E-16  6.39490393419210E-16
  114   -4.63426972035878E-16 -7.83115841054491E-17 -3.02471230299774E-17 -4.70071521990615E-16
  115    4.84238148033443E-17  5.75707118425067E-16 -4.72791133026011E-16 -5.11133561691135E-16
  116   -3.46944695195361E-17 -1.47451495458029E-17  4.33680868994202E-18 -3.03576608295941E-18

 column         105                   106                   107                   108
 row
  105    1.00000000000000E+00
  106   -5.90209169515007E-16  1.00000000000000E+00
  107   -1.84074658998463E-16  1.15718359001212E-16  1.00000000000000E+00
  108   -3.93565388612238E-17  3.89063408497582E-17 -3.07251566616722E-16  9.99999999999997E-01
  109    2.71565539153307E-16  4.86437680839225E-16 -6.78223092514781E-16  2.05981800338568E-15
  110   -2.51844918075332E-16  7.75207729700688E-17  2.13257868942019E-16  9.96200478523907E-16
  111   -1.18088251308511E-16 -8.17185623775427E-17  4.38790012913362E-16 -1.28678423668368E-15
  112    1.90247411601579E-16 -7.80757913087572E-16 -1.28602100705864E-17  1.43769549115433E-17
  113   -2.67369337932609E-16 -4.67968339182582E-16 -5.47263752056267E-17 -3.64685376759129E-16
  114    4.97520048162864E-16 -9.30985770788463E-16 -2.19414991140280E-16  5.50438008026103E-16
  115    1.23879415568889E-16  2.91235761770920E-16  1.32566426657251E-16  9.83103972730816E-16
  116    5.06539254985228E-16  2.08600497986211E-16  1.78893358460108E-17  3.17888076972750E-16

 column         109                   110                   111                   112
 row
  109    1.00000000000000E+00
  110   -1.05630900695551E-15  9.99999999999997E-01
  111    6.32582733855233E-18 -6.31123904892044E-16  1.00000000000000E+00
  112   -1.26521906901416E-15 -6.92568693972386E-16 -4.93058910918133E-16  9.99999999999999E-01
  113   -2.77322610337557E-16  3.38443872536717E-16 -1.53025713404791E-16  2.84273256823608E-16
  114    8.74800275452072E-16 -2.92023449472307E-16  1.22418071976638E-16 -7.69500845218562E-17
  115    1.96805458316577E-17 -4.89874384673812E-16  3.04992741504632E-17  8.42444199202109E-16
  116    6.48840790123950E-16 -1.91714049149749E-16  2.90457762008867E-16 -1.89301699315969E-16

 column         113                   114                   115                   116
 row
  113    1.00000000000000E+00
  114    3.15390600327771E-16  1.00000000000000E+00
  115    8.93295028097133E-16 -1.18449129695689E-15  9.99999999999998E-01
  116    5.50557863188139E-16  6.05201652681409E-16 -2.26164573180476E-16  1.00000000000000E+00


 SFO contributions (%) per orbital
 (multiplication by the orbital occupation yields the SFO Gross Populations)

 Orb.:       22     23     24     25     26     27     28     29     30     31     32     33     34     35
 occup:     2.00   2.00   2.00   2.00   2.00   2.00   2.00   2.00   2.00   2.00   0.00   0.00   0.00   0.00
 CF+SFO     ----   ----   ----   ----   ----   ----   ----   ----   ----   ----   ----   ----   ----   ----
 ------
     20:   96.35   2.64   0.21  -0.00   0.00   0.07   0.00   0.00   0.00   0.00   0.11   0.25   0.00   0.00
     21:    2.00  94.18   1.19   0.00   0.00   0.68   0.00   0.00   0.00   0.00   0.29   0.08  -0.00  -0.00
     22:   -0.00  -0.00  50.79   0.00   0.00  44.59   0.00   0.01   0.00   0.00   2.94   0.33   0.00   0.00
     23:    0.00   0.00   0.00   1.45  28.17   0.01   1.23  69.06  -0.00  -0.00   0.00  -0.00   0.00   0.02
     24:    0.00   0.00   0.00  28.17   1.44   0.00  69.07   1.23  -0.00  -0.00   0.00  -0.00   0.02   0.00
     25:    0.00   0.00   0.00  10.98   0.51   0.00   3.76   0.37  83.06   1.33   0.00  -0.00  -0.00  -0.00
     26:    0.00   0.00   0.00   0.51  10.97   0.00   0.37   3.77   1.33  83.06   0.00  -0.00  -0.00  -0.00
     27:    0.03  -0.00   3.49   0.00   0.00  19.88   0.00   0.00   0.00   0.00  74.53   0.15  -0.00  -0.00
     28:    0.04   0.00   0.34   0.00   0.00  -0.02  -0.00  -0.00  -0.00  -0.00   0.14 -26.06   0.00   0.00
     29:   -0.00   0.00   0.00   0.01   0.10  -0.00  -0.01  -0.11  -0.01  -0.04   0.00  -0.00  15.59  83.97
     30:    0.00   0.00   0.00   0.10   0.01  -0.00  -0.11  -0.01  -0.04  -0.01   0.00   0.00  83.98  15.59
     32:   -0.01   0.04  -0.00   0.00   0.00  -0.02  -0.00  -0.00  -0.00  -0.00   0.50  -6.20   0.00   0.00
     45:    0.00  -0.00  -0.01   0.00   0.00   0.14   0.00   0.00   0.00   0.00   0.55   1.14  -0.00  -0.00
     92:    0.89   1.31   1.05   0.00   0.00  -0.00  -0.00  -0.00  -0.00  -0.00   0.20   1.25   0.00  -0.00
     93:    0.00   0.00   0.01  45.55  12.95   0.00  17.41   7.46  12.73   2.31   0.00   0.00  -0.25  -0.06
     94:    0.04   0.11   2.38  12.38  42.90   1.64   7.10  16.49   2.22  12.01   0.90   0.11  -0.06  -0.23
     95:    0.73   1.92  40.58   0.57   2.66  30.65   0.36   0.91   0.10   0.72  15.36   1.89  -0.00  -0.01
     96:   -0.00  -0.02  -0.05   0.00   0.00   0.65   0.00   0.00   0.00   0.00   1.66 134.70   0.00  -0.00
     97:   -0.09  -0.18  -0.19  -0.18  -0.00   0.45   0.09   0.00   0.12   0.00   0.38  -3.52  -0.19  -0.00
     98:   -0.05  -0.11  -0.12  -0.17  -0.10   0.28   0.08   0.06   0.13   0.05   0.23  -2.15  -0.19  -0.10
    105:    0.00  -0.00  -0.09  -0.00  -0.00   0.00   0.00   0.00  -0.00  -0.00  -0.16  -1.52  -0.00  -0.00


 Summation over all MOs, multiplied by occupation: Total SFO Gross Populations in this Irrep
 ===========================================================================================

     2.00    2.00    2.00    2.00    2.00    2.00    2.00    2.00    2.00    2.00    2.00    2.00
     2.00    2.00    2.00    2.00    2.00    2.00    2.00    2.00    1.99    1.92    2.00    2.00
     2.00    2.00    0.48    0.01   -0.00   -0.00    0.01    0.00    0.02    0.02    0.00    0.00
     0.00    0.00    0.02    0.01    0.00    0.00    0.01    0.01    0.00    0.00    0.00    0.00
     0.00    0.00    0.00    0.00    0.00    0.00    0.00    0.00   -0.00    0.00    0.00   -0.00
     0.00    0.00   -0.00    0.00    0.00   -0.00    0.00    0.00    0.00   -0.00   -0.00   -0.00
    -0.00   -0.00   -0.00   -0.00    0.00    0.00    0.00   -0.00    0.00    0.00   -0.00   -0.00
    -0.00    0.00    0.00    0.00    0.00   -0.00    2.00    1.98    1.97    1.95    1.59    0.01
     0.00    0.00    0.00    0.00    0.00    0.00    0.00    0.00   -0.00    0.00    0.00    0.00
     0.00    0.00    0.00    0.00    0.00    0.00    0.00   -0.00



 List of all MOs, ordered by energy, with the most significant SFO gross populations
 ===================================================================================

 Each percentage contribution in the table below corresponds to the indicated SFO.
 In general, a SFO may be a linear combination of several Fragment Orbitals on the same,
 or on symmetry-related Fragments. Only the first 'member' of such a combination is
 specified here. A full definition of all SFOs is given in an earlier part of the output.
 The numbering of the SFOs in this table does NOT include the Core Orbitals, and starts
 from one for each symmetry representation, as in the SFO definition list earlier.

       E(eV)  Occ       MO           %     SFO (first member)   E(eV)  Occ   Fragment
 -------------------------------------------------------------------------------------

     -14.942  2.00    22 A         96.35%    20 A             -20.979  2.00     1 BrCl
                                    2.00%    21 A             -19.255  2.00     1 BrCl
     -13.388  2.00    23 A         94.18%    21 A             -19.255  2.00     1 BrCl
                                    2.64%    20 A             -20.979  2.00     1 BrCl
                                    1.92%     5 A               2.944  2.00     2 F
                                    1.31%     2 A             -15.093  2.00     2 F
      -5.756  2.00    24 A         50.79%    22 A             -10.529  2.00     1 BrCl
                                   40.58%     5 A               2.944  2.00     2 F
                                    3.49%    27 A              -6.292  0.00     1 BrCl
                                    2.38%     4 A               2.944  2.00     2 F
                                    1.19%    21 A             -19.255  2.00     1 BrCl
                                    1.05%     2 A             -15.093  2.00     2 F
      -3.750  2.00    25 A         45.55%     3 A               2.944  2.00     2 F
                                   28.17%    24 A              -8.664  2.00     1 BrCl
                                   12.38%     4 A               2.944  2.00     2 F
                                   10.98%    25 A              -7.455  2.00     1 BrCl
                                    1.45%    23 A              -8.664  2.00     1 BrCl
      -3.750  2.00    26 A         42.90%     4 A               2.944  2.00     2 F
                                   28.17%    23 A              -8.664  2.00     1 BrCl
                                   12.95%     3 A               2.944  2.00     2 F
                                   10.97%    26 A              -7.455  2.00     1 BrCl
                                    2.66%     5 A               2.944  2.00     2 F
                                    1.44%    24 A              -8.664  2.00     1 BrCl
      -2.778  2.00    27 A         44.59%    22 A             -10.529  2.00     1 BrCl
                                   30.65%     5 A               2.944  2.00     2 F
                                   19.88%    27 A              -6.292  0.00     1 BrCl
                                    1.64%     4 A               2.944  2.00     2 F
      -2.673  2.00    28 A         69.07%    24 A              -8.664  2.00     1 BrCl
                                   17.41%     3 A               2.944  2.00     2 F
                                    7.10%     4 A               2.944  2.00     2 F
                                    3.76%    25 A              -7.455  2.00     1 BrCl
                                    1.23%    23 A              -8.664  2.00     1 BrCl
      -2.673  2.00    29 A         69.06%    23 A              -8.664  2.00     1 BrCl
                                   16.49%     4 A               2.944  2.00     2 F
                                    7.46%     3 A               2.944  2.00     2 F
                                    3.77%    26 A              -7.455  2.00     1 BrCl
                                    1.23%    24 A              -8.664  2.00     1 BrCl
      -1.543  2.00    30 A         83.06%    25 A              -7.455  2.00     1 BrCl
                                   12.73%     3 A               2.944  2.00     2 F
                                    2.22%     4 A               2.944  2.00     2 F
                                    1.33%    26 A              -7.455  2.00     1 BrCl
      -1.542  2.00    31 A         83.06%    26 A              -7.455  2.00     1 BrCl
                                   12.01%     4 A               2.944  2.00     2 F
                                    2.31%     3 A               2.944  2.00     2 F
                                    1.33%    25 A              -7.455  2.00     1 BrCl
       1.355  0.00    32 A         74.53%    27 A              -6.292  0.00     1 BrCl
                                   15.36%     5 A               2.944  2.00     2 F
                                    2.94%    22 A             -10.529  2.00     1 BrCl
                                    1.66%     6 A               7.773  0.00     2 F
       5.413  0.00    33 A        134.70%     6 A               7.773  0.00     2 F
                                  -26.06%    28 A               2.940  0.00     1 BrCl
                                   -6.20%    32 A               5.351  0.00     1 BrCl
                                   -3.52%     7 A              22.092  0.00     2 F
                                   -2.15%     8 A              22.092  0.00     2 F
                                    1.89%     5 A               2.944  2.00     2 F
                                   -1.52%    15 A              55.515  0.00     2 F
                                    1.25%     2 A             -15.093  2.00     2 F
                                    1.14%    45 A              19.501  0.00     1 BrCl



 =======================================================================
 Electrostatic potential at the Nuclei due to electrons and other nuclei
 =======================================================================
  
         Atom                  Potential
         ----                  ---------
     1)   Br                176.11102736
     2)   Cl                 64.63656614
     3)   F                  26.84176498
 
 
 ========================
 No memory problems found
 ========================
 
 Maximum number of active allocate calls:         636
 
 *******************************************************************************

                             A D F   E X I T
 NORMAL TERMINATION



 =================
 Timing Statistics
 =================
  
 Total Used :                     CPU=        6.54      System=        0.21     Elapsed=        7.24

 Calls  Section                     ( Mean, Percentage )
 ---------------------------------------------------------------------------------------------------
     3  ><      ................      0.00    0.00             0.00    0.47             0.00    0.02
     1  INIT    ................      0.44    6.71             0.03   14.02             0.47    6.51
     1  GEOMET  ................      0.03    0.44             0.01    4.67             0.46    6.33
     1  FRAGM   ................      0.01    0.18             0.01    2.80             0.03    0.38
     1  INPUTA  ................      0.00    0.00             0.00    0.00             0.00    0.01
     1  ATDEN   ................      0.01    0.08             0.00    0.00             0.01    0.07
     1  MAINSY  ................      0.01    0.14             0.00    1.40             0.01    0.17
     1  SYMFIT  ................      0.00    0.03             0.00    0.00             0.00    0.03
     1  CORORT  ................      0.00    0.00             0.00    0.00             0.00    0.01
     1  SYMORB  ................      0.00    0.05             0.00    0.47             0.00    0.05
     1  CLSMAT  ................      0.01    0.11             0.00    0.00             0.01    0.10
     1  ORTHON  ................      0.01    0.14             0.00    0.47             0.01    0.15
     1  GENPT   ................      0.12    1.88             0.00    0.93             0.13    1.73
     1  PTBAS   ................      0.04    0.61             0.00    0.00             0.04    0.54
    17  FOCKY   ................      0.12   32.38             0.00    9.81             0.13   29.68
    17  FOCKTR  ................      0.00    0.55             0.00    0.47             0.00    0.51
    17  SDIIS   ................      0.00    0.93             0.00    1.87             0.00    0.93
     1  COREPS  ................      0.10    1.58             0.00    0.00             0.10    1.44
     1  TOTEN   ................      0.34    5.21             0.00    1.40             0.34    4.76
     1  POPAN   ................      0.00    0.06             0.00    0.00             0.01    0.10
     1  DEBYE   ................      0.01    0.09             0.00    0.47             0.01    0.09
     1  INPUTE  ................      0.00    0.00             0.00    0.00             0.00    0.02
     1  SYMORE  ................      0.00    0.00             0.00    0.47             0.00    0.02
     1  METS    ................      0.00    0.02             0.00    0.00             0.00    0.01
     1  CETS    ................      0.02    0.24             0.00    0.00             0.03    0.39
     1  POPUL   ................      3.15   48.16             0.13   58.88             3.29   45.53
     1  EXIT PROCEDURE .........      0.03    0.41             0.00    1.40             0.03    0.43


 Currently Open Files (EXIT00)
 ====================

 Unit    Access Format  Status   Type       Ident (file)
 -------------------------------------------------------
   3      SEQ    FORM   TRANSP  NORMAL      LOGFILE
                                          ( logfile )


 Buffered I/O statistics
 =======================
 Memory available:                     67108864
 Number of records fitting in memory:     16131
 Input :   1.2% of                        55817  *4k bytes
 Output:  13.3% of                         4279  *4k bytes
 Records from serial files evicted:           0
                    others evicted:           0
 Hash table lookups:     159233 with          0 conflicts (  0.00%)

 ***************************************************************************************************
 (LOGFILE)
 <May09-2019> <17:12:04>  ADF 2017  RunTime: May09-2019 17:12:04  Nodes: 1  Procs: 12
 <May09-2019> <17:12:05>  *** (NO TITLE) ***
 <May09-2019> <17:12:05>  RunType   : SINGLE POINT
 <May09-2019> <17:12:05>  Net Charge: -1 (Nuclei minus Electrons)
 <May09-2019> <17:12:05>  Symmetry  : NOSYM
 <May09-2019> <17:12:05>  >>>> FRAGM
  Coordinates
    Atom         X           Y           Z   (Angstrom)
    1.Br       -4.987069    3.236337   -0.073950
    2.Cl       -3.952423    1.003697    0.368213
    3.F        -5.835889    5.058884   -0.431464
 <May09-2019> <17:12:05>  >>>> CORORT
 <May09-2019> <17:12:05>  >>>> CLSMAT
 <May09-2019> <17:12:05>  >>>> ORTHON
 <May09-2019> <17:12:05>  >>>> GENPT
 <May09-2019> <17:12:05>  Block Length= 128
 <May09-2019> <17:12:05>  >>>> PTBAS
 <May09-2019> <17:12:05>  >>>> CYCLE
 <May09-2019> <17:12:06>              |Error|         MaxErr       Wt(A-DIIS)
 <May09-2019> <17:12:06>      1      1.71720563      0.98729300
 <May09-2019> <17:12:06>      2      1.49143912      0.67966902    100.0
 <May09-2019> <17:12:06>      3      0.87123630      0.41711022    100.0
 <May09-2019> <17:12:06>      4      0.82531012      0.40510052    100.0
 <May09-2019> <17:12:06>      5      2.29675015      0.67163754    100.0
 <May09-2019> <17:12:06>      6      0.80201533      0.26044386    100.0
 <May09-2019> <17:12:06>      7      0.32528514      0.09034714     90.2
 <May09-2019> <17:12:06>      8      0.49620425      0.13506518    100.0
 <May09-2019> <17:12:06>      9      0.19569770      0.06703223     66.7
 <May09-2019> <17:12:07>     10      0.22761538      0.09216108    100.0
 <May09-2019> <17:12:07>     11      0.08573503      0.02552530     24.8
 <May09-2019> <17:12:07>     12      0.01891506      0.00787555      6.9
 <May09-2019> <17:12:07>     13      0.00355600      0.00138859      0.4
 <May09-2019> <17:12:07>     14      0.00013318      0.00004781      0.0
 <May09-2019> <17:12:07>     15      0.00002037      0.00000674      0.0
 <May09-2019> <17:12:07>     16      0.00000271      0.00000059      0.0
 <May09-2019> <17:12:07>  SCF converged
 <May09-2019> <17:12:07>     17      0.00000099      0.00000029      0.0
 <May09-2019> <17:12:08>  >>>> TOTEN
 <May09-2019> <17:12:08>  >>>> POPAN
 <May09-2019> <17:12:08>  >>>> DEBYE
 <May09-2019> <17:12:08>  >>>> AMETS
 <May09-2019> <17:12:11>   Bond Energy          -0.12400321 a.u.
 <May09-2019> <17:12:11>   Bond Energy          -3.37429893 eV
 <May09-2019> <17:12:11>   Bond Energy         -77.81       kcal/mol
 <May09-2019> <17:12:11>  >>>> POPUL
 <May09-2019> <17:12:11>  NORMAL TERMINATION
 <May09-2019> <17:12:11>  END
