
Create Br   file=TZ2P-Br
XC
  GGA BP86
End
End Input

 *******************************************************************************
 *                                                                             *
 *  -------------------------------------                                      *
 *   Amsterdam Density Functional  (ADF)         development version           *
 *  -------------------------------------                                      *
 *                                               r61132 2017-09-08             *
 *                                                                             *
 *                                                                             *
 *                              =================                              *
 *                              |               |                              *
 *                              |     A D F     |                              *
 *                              |               |                              *
 *                              =================                              *
 *                                                                             *
 *                                                                             *
 *   Online information and documentation:  https://www.scm.com/support/       *
 *   E-mail:  support@scm.com   info@scm.com                                   *
 *                                                                             *
 *   Scientific publications using ADF results must be properly referenced     *
 *   See the User Manuals (or the web site) for recommended citations          *
 *   The terms and conditions of the End User License Agreement apply to       *
 *   the use of ADF, https://www.scm.com/license-terms/                        *
 *                                                                             *
 **********************  x86_64_linux_intel / intelmpi  ************************
 
 Licensed to: VU/FEW (+ SARA) / ALGEMEEN / Amsterdam / THE NETHERLANDS
 SCM User ID: u7668
  
 ADF development version  RunTime: Apr18-2019 21:02:37  Nodes: 1  Procs: 1

 Temporary files are created in /local/datastore0/tcst25/186777/kid_0.UupSWh

 Bromine (TZ2P)



 ===========================
 A T T A C H E D   F I L E S
 ===========================
  
 CREATE - Data File:    TZ2P-Br
                        Bromine (TZ2P)



 ===============================
 M O D E L   P A R A M E T E R S
 ===============================
  
 DENSITY FUNCTIONAL POTENTIAL (scf)
    LDA:                               VWN                                      
    Gradient Corrections:              Becke88 Perdew86                        == Not Default ==

 SPIN  (restricted / unrestr.)
    Molecule:                          Restricted                               

 OTHER ASPECTS
    Relativistic Corrections:          ---                                      

    Nuclear Charge Density Model:      Point Charge Nuclei                      
    Core Treatment:                    Frozen Orbital(s)                        

    Hyperfine or Zeeman Interaction:   ---                                      



 =====================================
 S Y M M E T R Y ,   E L E C T R O N S
 =====================================
  
 Symmetry: ATOM

 Irreducible Representations, including subspecies
 -------------------------------------------------
 S
 P:x  P:y  P:z
 D:z2  D:x2-y2  D:xy  D:xz  D:yz
 F:z3  F:z  F:xyz  F:z2x  F:z2y  F:x  F:y


 Configuration of Valence Electrons
 ==================================

          Occupation Numbers
          -------------------------------------------------
 S        4*2
 P        2*6 5
 D        10
 F        0
          -------------------------------------------------

 Total:   35

 Net Charge: 0 (Nuclei minus Electrons)

 Preset values for MO occupations will be applied through SCF cycle no. 1000000
 Thereafter, the program will assign electrons to MOs that are spatially
 similar to the occupied MOs in a "reference" cycle ("KeepOrbitals").
 The reference cycle is always the PREVIOUS cycle: it will evolve with
 the SCF procedure.



 ================================
 (Slater-type)  F U N C T I O N S  ***  (Basis and Fit)  ***
 ================================
  

 Atom Type    1  (Br)
 ==============

 Valence Basis Sets:  20
 -----------------------
   1 S   41.300000
   1 S   32.800000
   2 S   13.900000
   2 P   19.450000
   2 P   13.100000
   3 S    7.200000
   3 S    4.950000
   3 P    7.900000
   3 P    5.050000
   3 D   10.900000
   3 D    6.050000
   3 D    3.500000
   4 S    4.500000
   4 S    2.800000
   4 S    1.800000
   4 P    3.250000
   4 P    1.950000
   4 P    1.200000
   4 D    1.800000
   4 F    1.800000


 BAS: List of all Elementary Cartesian Basis Functions
 =====================================================

 The numbering in the list below (to the right of the function characteristics) is referred
 to in print-outs of MO eigenvectors and Mulliken populations in the BAS representation
 (as contrasted to the SFO representation).

 Notes:
 1. The functions are characterized by a polynomial prefactor (powers of x,y,z and r) and
    an exponential decay factor alpha.
 2. Since the basis sets are specific for an atom TYPE, the individual functions occur on
    all atoms of that type.
 3. The word 'Core' in the left margin signals that it is a Core Function (CF) : not a
    degree of freedom in the valence set, but only used to ensure orthogonalization of
    the other valence basis functions on the frozen Core Orbitals.


 (power of) X  Y  Z  R     Alpha  on Atom
            ==========     =====     ==========

 Br                                   1
                                  ---------------------------------------------------------------------------
            0  0  0  0    41.300      1
            0  0  0  0    32.800      2
            0  0  0  1    13.900      3
            1  0  0  0    19.450      4
            0  1  0  0    19.450      5
            0  0  1  0    19.450      6
            1  0  0  0    13.100      7
            0  1  0  0    13.100      8
            0  0  1  0    13.100      9
            0  0  0  2     7.200     10
            0  0  0  2     4.950     11
            1  0  0  1     7.900     12
            0  1  0  1     7.900     13
            0  0  1  1     7.900     14
            1  0  0  1     5.050     15
            0  1  0  1     5.050     16
            0  0  1  1     5.050     17
            2  0  0  0    10.900     18
            1  1  0  0    10.900     19
            1  0  1  0    10.900     20
            0  2  0  0    10.900     21
            0  1  1  0    10.900     22
            0  0  2  0    10.900     23
            2  0  0  0     6.050     24
            1  1  0  0     6.050     25
            1  0  1  0     6.050     26
            0  2  0  0     6.050     27
            0  1  1  0     6.050     28
            0  0  2  0     6.050     29
            2  0  0  0     3.500     30
            1  1  0  0     3.500     31
            1  0  1  0     3.500     32
            0  2  0  0     3.500     33
            0  1  1  0     3.500     34
            0  0  2  0     3.500     35
            0  0  0  3     4.500     36
            0  0  0  3     2.800     37
            0  0  0  3     1.800     38
            1  0  0  2     3.250     39
            0  1  0  2     3.250     40
            0  0  1  2     3.250     41
            1  0  0  2     1.950     42
            0  1  0  2     1.950     43
            0  0  1  2     1.950     44
            1  0  0  2     1.200     45
            0  1  0  2     1.200     46
            0  0  1  2     1.200     47
            2  0  0  1     1.800     48
            1  1  0  1     1.800     49
            1  0  1  1     1.800     50
            0  2  0  1     1.800     51
            0  1  1  1     1.800     52
            0  0  2  1     1.800     53
            3  0  0  0     1.800     54
            2  1  0  0     1.800     55
            2  0  1  0     1.800     56
            1  2  0  0     1.800     57
            1  1  1  0     1.800     58
            1  0  2  0     1.800     59
            0  3  0  0     1.800     60
            0  2  1  0     1.800     61
            0  1  2  0     1.800     62
            0  0  3  0     1.800     63

 Total number of charge fitting functions (nprimf)       170
 Total number of Cartesian basis functions (naos)         63
 Total number of Cartesian core functions  (ncos)          0



 BAS: List of all Elementary Cartesian Basis Functions
 =====================================================

 The numbering in the list below (to the right of the function characteristics) is referred
 to in print-outs of MO eigenvectors and Mulliken populations in the BAS representation
 (as contrasted to the SFO representation).

 Notes:
 1. The functions are characterized by a polynomial prefactor (powers of x,y,z and r) and
    an exponential decay factor alpha.
 2. Since the basis sets are specific for an atom TYPE, the individual functions occur on
    all atoms of that type.
 3. The word 'Core' in the left margin signals that it is a Core Function (CF) : not a
    degree of freedom in the valence set, but only used to ensure orthogonalization of
    the other valence basis functions on the frozen Core Orbitals.


 (power of) X  Y  Z  R     Alpha  on Atom
            ==========     =====     ==========

 Br                                   1
                                  ---------------------------------------------------------------------------
            0  0  0  0    41.300      1
            0  0  0  0    32.800      2
            0  0  0  1    13.900      3
            1  0  0  0    19.450      4
            0  1  0  0    19.450      5
            0  0  1  0    19.450      6
            1  0  0  0    13.100      7
            0  1  0  0    13.100      8
            0  0  1  0    13.100      9
            0  0  0  2     7.200     10
            0  0  0  2     4.950     11
            1  0  0  1     7.900     12
            0  1  0  1     7.900     13
            0  0  1  1     7.900     14
            1  0  0  1     5.050     15
            0  1  0  1     5.050     16
            0  0  1  1     5.050     17
            2  0  0  0    10.900     18
            1  1  0  0    10.900     19
            1  0  1  0    10.900     20
            0  2  0  0    10.900     21
            0  1  1  0    10.900     22
            0  0  2  0    10.900     23
            2  0  0  0     6.050     24
            1  1  0  0     6.050     25
            1  0  1  0     6.050     26
            0  2  0  0     6.050     27
            0  1  1  0     6.050     28
            0  0  2  0     6.050     29
            2  0  0  0     3.500     30
            1  1  0  0     3.500     31
            1  0  1  0     3.500     32
            0  2  0  0     3.500     33
            0  1  1  0     3.500     34
            0  0  2  0     3.500     35
            0  0  0  3     4.500     36
            0  0  0  3     2.800     37
            0  0  0  3     1.800     38
            1  0  0  2     3.250     39
            0  1  0  2     3.250     40
            0  0  1  2     3.250     41
            1  0  0  2     1.950     42
            0  1  0  2     1.950     43
            0  0  1  2     1.950     44
            1  0  0  2     1.200     45
            0  1  0  2     1.200     46
            0  0  1  2     1.200     47
            2  0  0  1     1.800     48
            1  1  0  1     1.800     49
            1  0  1  1     1.800     50
            0  2  0  1     1.800     51
            0  1  1  1     1.800     52
            0  0  2  1     1.800     53
            3  0  0  0     1.800     54
            2  1  0  0     1.800     55
            2  0  1  0     1.800     56
            1  2  0  0     1.800     57
            1  1  1  0     1.800     58
            1  0  2  0     1.800     59
            0  3  0  0     1.800     60
            0  2  1  0     1.800     61
            0  1  2  0     1.800     62
            0  0  3  0     1.800     63
1
 ***************************************************************************************************



                                              ***********************
                                              *  T E C H N I C A L  *
                                              ***********************
  



 =============================================================
 P A R A L L E L I Z A T I O N  and  V E C T O R I Z A T I O N
 =============================================================
  
 Nr of parallel processes:                                1
 Maximum vector length in NumInt loops:                 128

 IO buffersize (Mb):                                     64.000000



 =====================
 S C F   U P D A T E S
 =====================
  
 Max. nr. of cycles:                               300
 Convergence criterion:                              0.0000000100
   secondary criterion:                              0.0000000100

 Mix parameter (when DIIS does not apply):           0.2000000000
 Special mix parameter for the first cycle:          1.0000000000
 Mixed ADIIS+DIIS will be used
    Max number of expansion vectors:                10
    Pure ADIIS when Max([F,P]) is above              0.1000000000
    Pure DIIS when Max([F,P]) is below               0.0010000000
 Automatic ElectronSmearing (in case of problematic SCF convergence) disabled



 =================
 P R E C I S I O N  ***  (General: NumInt, NeglectFunctionTails, ...)  ***
 =================
  

 NumInt:           Target precision:                12.0000000000
 -------           Initial precision:               10.0000000000
                   Min. precision (optimization):   10.0000000000

 Neglect Functions:          Basis functions:        0.1000000000E-13
 ------------------          Fit functions:          0.1000000000E-13



 ===========================
 L I N E A R   S C A L I N G
 ===========================
  

 Cut-off radii density fit:                        0.1000000000E-97
 Overlap cut-off criterion AO matrix elements:     0.1000000000E-97
 Cut-offs for Coulomb potential and fitted density:0.1000000000E-97
 Cut-off criterion for Coulomb multipole terms:    0.1000000000E-97
 Progressive Convergence parameter:                 0.000000000    
1
 ***************************************************************************************************



                                            ***************************
                                            *  C O M P U T A T I O N  *
                                            ***************************
  

 Number of elements of the density matrix on this node (used, total):      2016      2016



 ===========================================
 Numerical Integration : Fuzzy Cells (Becke)
 ===========================================
  
 Becke grid quality: VERYGOOD       
  
 Lebedev angular grid order:             min:  13 max:  41
 Nr. of radial points:                   min: 106 max: 106

 Total nr. of points:        106
 Nr. of blocks:                1
 Block length:               106
 Nr. of dummy points:          0


 Test of Precision of the Numerical Integration Grid
 ===================================================

 Integral of the Total Core Density:                   0.00000000000000



 ========================
 Density Fitting (zlmFit)
 ========================
  
 ZlmFit Fit Quality: VERYGOOD       
  
 Max L-expansion:                        min:   0 max:   0
 Nr. of radial interpolation points:     min: 240 max: 240



 =====
 S C F  ***  ScaSCF  ***
 =====
  

 CYCLE    1
 SCF Error: norm([F,P])=      0.000000000000, max([F,P])=      0.000000000000
 orbitals (Q,E):
 ---------------
 S :1...8            ( 2.00  -612.4786)  ( 2.00  -152.6714)  ( 2.00   -67.1618)  ( 2.00   -37.3471)
                     ( 0.00   -23.4672)  ( 0.00   -15.4322)  ( 0.00    -9.8352)  ( 0.00   627.8721)
 P :1...7            ( 6.00  -153.0715)  ( 6.00   -67.2002)  ( 5.00   -36.6918)  ( 0.00   -21.5714)
                     ( 0.00   -12.7861)  ( 0.00    -7.3590)  ( 0.00    16.5106)
 D :1...4            (10.00   -67.9473)  ( 0.00   -38.1263)  ( 0.00   -23.3212)  ( 0.00   -12.4393)
 F :1...1            ( 0.00   -14.1300)

 CYCLE    2
  SDIIS (wt  0.000):  1.0000  0.0000
 A-DIIS (wt  1.000):  0.0000  1.0000
  DIIS coefficients:  0.0000  1.0000
 SCF Error: norm([F,P])=    133.920854037564, max([F,P])=     33.034025694644
 orbitals (Q,E):
 ---------------
 S :1...5            ( 2.00  -440.6773)  ( 2.00   -34.4822)  ( 2.00    -0.3721)  ( 2.00     0.2900)
                     ( 0.00     1.8189)
 P :1...4            ( 6.00   -26.4571)  ( 6.00     0.1035)  ( 5.00     0.4720)  ( 0.00     1.4688)
 D :1...2            (10.00     0.7250)  ( 0.00     3.5938)
 F :1...1            ( 0.00     1.4613)

 CYCLE    3
  SDIIS (wt  0.000):  0.1398  0.8602
 A-DIIS (wt  1.000):  0.4853  0.5147
  DIIS coefficients:  0.4853  0.5147
 SCF Error: norm([F,P])=     49.336945195774, max([F,P])=     17.766021196028
 orbitals (Q,E):
 ---------------
 S :1...5            ( 2.00  -480.6972)  ( 2.00   -64.6057)  ( 2.00   -13.5966)  ( 2.00    -3.4233)
                     ( 0.00    -0.5868)
 P :1...4            ( 6.00   -58.0308)  ( 6.00   -11.4430)  ( 5.00    -2.6790)  ( 0.00    -0.3453)
 D :1...2            (10.00    -7.6097)  ( 0.00    -1.4456)
 F :1...1            ( 0.00    -0.1798)

 CYCLE    4
  SDIIS (wt  0.000):  0.0239 -0.0048  0.9809
 A-DIIS (wt  1.000):  0.0000  0.0000  1.0000
  DIIS coefficients:  0.0000  0.0000  1.0000
 SCF Error: norm([F,P])=      9.264716084041, max([F,P])=      2.192836613966
 orbitals (Q,E):
 ---------------
 S :1...5            ( 2.00  -478.1029)  ( 2.00   -58.7576)  ( 2.00    -6.0554)  ( 2.00    -0.0620)
                     ( 0.00     0.6651)
 P :1...4            ( 6.00   -52.6793)  ( 6.00    -3.9701)  ( 5.00     0.0835)  ( 0.00     0.4503)
 D :1...2            (10.00    -0.2638)  ( 0.00     0.6812)
 F :1...1            ( 0.00     1.2444)

 CYCLE    5
  SDIIS (wt  0.000):  0.0184 -0.0305  0.5792  0.4328
 A-DIIS (wt  1.000):  0.0000  0.0000  0.5704  0.4296
  DIIS coefficients:  0.0000  0.0000  0.5704  0.4296
 SCF Error: norm([F,P])=     10.966556601340, max([F,P])=      3.673298945992
 orbitals (Q,E):
 ---------------
 S :1...5            ( 2.00  -481.9277)  ( 2.00   -62.3879)  ( 2.00    -8.5816)  ( 2.00    -0.8073)
                     ( 0.00     0.1745)
 P :1...4            ( 6.00   -56.3582)  ( 6.00    -6.4828)  ( 5.00    -0.3782)  ( 0.00     0.0938)
 D :1...2            (10.00    -2.6986)  ( 0.00     0.1802)
 F :1...1            ( 0.00     0.7730)

 CYCLE    6
  SDIIS (wt  0.000): -0.0027 -0.0010  0.0566  0.1206  0.8265
 A-DIIS (wt  1.000):  0.0000  0.0000  0.0000  0.0000  1.0000
  DIIS coefficients:  0.0000  0.0000  0.0000  0.0000  1.0000
 SCF Error: norm([F,P])=      1.941849589230, max([F,P])=      0.482150978129
 orbitals (Q,E):
 ---------------
 S :1...5            ( 2.00  -480.2968)  ( 2.00   -61.2110)  ( 2.00    -8.1479)  ( 2.00    -0.6522)
                     ( 0.00     0.2647)
 P :1...4            ( 6.00   -55.1019)  ( 6.00    -6.0429)  ( 5.00    -0.2472)  ( 0.00     0.1625)
 D :1...2            (10.00    -2.2460)  ( 0.00     0.2865)
 F :1...1            ( 0.00     0.8688)

 CYCLE    7
  SDIIS (wt  0.000): -0.0001  0.0002  0.0162 -0.0176  0.4478  0.5536
 A-DIIS (wt  1.000):  0.0000  0.0000  0.0000  0.0000  0.5641  0.4359
  DIIS coefficients:  0.0000  0.0000  0.0000  0.0000  0.5641  0.4359
 SCF Error: norm([F,P])=      1.828097340784, max([F,P])=      0.464473383812
 orbitals (Q,E):
 ---------------
 S :1...5            ( 2.00  -480.9658)  ( 2.00   -61.7564)  ( 2.00    -8.4211)  ( 2.00    -0.7175)
                     ( 0.00     0.2332)
 P :1...4            ( 6.00   -55.6701)  ( 6.00    -6.3167)  ( 5.00    -0.2959)  ( 0.00     0.1433)
 D :1...2            (10.00    -2.5206)  ( 0.00     0.2518)
 F :1...1            ( 0.00     0.8395)

 CYCLE    8
  SDIIS (wt  0.683): -0.0000 -0.0001 -0.0008  0.0000  0.0801  0.0242  0.8966
 A-DIIS (wt  0.317):  0.0000  0.0000  0.0000  0.0000  0.0000  0.0000  1.0000
  DIIS coefficients: -0.0000 -0.0000 -0.0006  0.0000  0.0547  0.0165  0.9293
 SCF Error: norm([F,P])=      0.129370925155, max([F,P])=      0.032356099502
 orbitals (Q,E):
 ---------------
 S :1...5            ( 2.00  -481.0351)  ( 2.00   -61.7934)  ( 2.00    -8.4186)  ( 2.00    -0.7120)
                     ( 0.00     0.2350)
 P :1...4            ( 6.00   -55.7125)  ( 6.00    -6.3147)  ( 5.00    -0.2918)  ( 0.00     0.1441)
 D :1...2            (10.00    -2.5193)  ( 0.00     0.2544)
 F :1...1            ( 0.00     0.8426)

 CYCLE    9
  SDIIS (wt  0.943):  0.0000 -0.0000 -0.0002  0.0001  0.0175  0.0064  0.3079  0.6684
 A-DIIS (wt  0.057):  0.0000  0.0000  0.0000  0.0000  0.0000  0.0000  0.0000  1.0000
  DIIS coefficients:  0.0000 -0.0000 -0.0002  0.0001  0.0165  0.0060  0.2904  0.6873
 SCF Error: norm([F,P])=      0.025418991137, max([F,P])=      0.006638245579
 orbitals (Q,E):
 ---------------
 S :1...5            ( 2.00  -481.0284)  ( 2.00   -61.7897)  ( 2.00    -8.4211)  ( 2.00    -0.7155)
                     ( 0.00     0.2331)
 P :1...4            ( 6.00   -55.7083)  ( 6.00    -6.3171)  ( 5.00    -0.2947)  ( 0.00     0.1428)
 D :1...2            (10.00    -2.5216)  ( 0.00     0.2521)
 F :1...1            ( 0.00     0.8402)

 CYCLE   10
  SDIIS (wt  1.000): -0.0000  0.0000  0.0000 -0.0000  0.0011 -0.0001  0.0178  0.1159  0.8653
  DIIS coefficients: -0.0000  0.0000  0.0000 -0.0000  0.0011 -0.0001  0.0178  0.1159  0.8653
 SCF Error: norm([F,P])=      0.003559800944, max([F,P])=      0.000977655486
 orbitals (Q,E):
 ---------------
 S :1...5            ( 2.00  -481.0291)  ( 2.00   -61.7903)  ( 2.00    -8.4210)  ( 2.00    -0.7152)
                     ( 0.00     0.2333)
 P :1...4            ( 6.00   -55.7089)  ( 6.00    -6.3171)  ( 5.00    -0.2945)  ( 0.00     0.1429)
 D :1...2            (10.00    -2.5215)  ( 0.00     0.2523)
 F :1...1            ( 0.00     0.8404)

 CYCLE   11
  SDIIS (wt  1.000):  0.0000  0.0000  0.0000  0.0000  0.0000 -0.0000  0.0002 -0.0007  0.0071  0.9934
  DIIS coefficients:  0.0000  0.0000  0.0000  0.0000  0.0000 -0.0000  0.0002 -0.0007  0.0071  0.9934
 SCF Error: norm([F,P])=      0.000028923993, max([F,P])=      0.000008535930
 orbitals (Q,E):
 ---------------
 S :1...5            ( 2.00  -481.0291)  ( 2.00   -61.7903)  ( 2.00    -8.4210)  ( 2.00    -0.7153)
                     ( 0.00     0.2333)
 P :1...4            ( 6.00   -55.7089)  ( 6.00    -6.3171)  ( 5.00    -0.2945)  ( 0.00     0.1429)
 D :1...2            (10.00    -2.5216)  ( 0.00     0.2523)
 F :1...1            ( 0.00     0.8404)

 CYCLE   12
  SDIIS (wt  1.000): -0.0000 -0.0000 -0.0000 -0.0001 -0.0112  1.0114
  DIIS coefficients: -0.0000 -0.0000 -0.0000 -0.0001 -0.0112  1.0114
 SCF Error: norm([F,P])=      0.000000498967, max([F,P])=      0.000000158342
 orbitals (Q,E):
 ---------------
 S :1...5            ( 2.00  -481.0291)  ( 2.00   -61.7903)  ( 2.00    -8.4210)  ( 2.00    -0.7153)
                     ( 0.00     0.2333)
 P :1...4            ( 6.00   -55.7089)  ( 6.00    -6.3171)  ( 5.00    -0.2945)  ( 0.00     0.1429)
 D :1...2            (10.00    -2.5216)  ( 0.00     0.2523)
 F :1...1            ( 0.00     0.8404)

 CYCLE   13
  SDIIS (wt  1.000): -0.0000 -0.0000  0.0000 -0.0073  1.0072
  DIIS coefficients: -0.0000 -0.0000  0.0000 -0.0073  1.0072
 SCF Error: norm([F,P])=      0.000000004220, max([F,P])=      0.000000001429
 orbitals (Q,E):
 ---------------
 S :1...5            ( 2.00  -481.0291)  ( 2.00   -61.7903)  ( 2.00    -8.4210)  ( 2.00    -0.7153)
                     ( 0.00     0.2333)
 P :1...4            ( 6.00   -55.7089)  ( 6.00    -6.3171)  ( 5.00    -0.2945)  ( 0.00     0.1429)
 D :1...2            (10.00    -2.5216)  ( 0.00     0.2523)
 F :1...1            ( 0.00     0.8404)

 SCF CONVERGED

 CYCLE   14
1
 ***************************************************************************************************



                                                *******************
                                                *  R E S U L T S  *
                                                *******************
  
 *** Setting up for NEW gradients in Focky
 *** Using FIT density in Focky

 Orbital Energies, per Irrep and Spin:
 ======================================
                        Occup              E (au)              E (eV)       Diff (eV) with prev. cycle
                        -----      --------------------        ------       --------------------------
 S
               1        2.000     -0.48102910960431E+03    -13089.468               1.18E-09
               2        2.000     -0.61790335555754E+02     -1681.401               1.20E-09
               3        2.000     -0.84210246503997E+01      -229.148               1.31E-09
               4        2.000     -0.71526122452121E+00       -19.463               1.16E-09
               5        0.000      0.23325436280959E+00         6.347
               6        0.000      0.24616635462098E+01        66.985
               7        0.000      0.14282884447867E+02       388.657
               8        0.000      0.74645973994270E+03     20312.203
 P
               1        6.000     -0.55708945709697E+02     -1515.918               1.19E-09
               2        6.000     -0.63170940209224E+01      -171.897               1.31E-09
               3        5.000     -0.29448623550877E+00        -8.013               9.84E-10
               4        0.000      0.14293403982408E+00         3.889
               5        0.000      0.12110957401221E+01        32.956
               6        0.000      0.88299643908710E+01       240.276
               7        0.000      0.10090146477562E+03      2745.669
 D
               1       10.000     -0.25215589094963E+01       -68.615               1.32E-09
               2        0.000      0.25229781612675E+00         6.865
               3        0.000      0.26757290352717E+01        72.810
               4        0.000      0.20600069322631E+02       560.556
 F
               1        0.000      0.84035988131638E+00        22.867


 Partially Occupied:
               3 P                -0.29448623550877E+00
  
 HOMO :        4 S                -0.71526122452121E+00
 LUMO :        4 P                 0.14293403982408E+00
  


 Orbital Energies, all Irreps
 ========================================

 Irrep        no.  (spin)   Occup              E (au)                E (eV)
 ---------------------------------------------------------------------------
 S             1             2.00       -0.48102910960431E+03    -13089.4681
 S             2             2.00       -0.61790335555754E+02     -1681.4006
 P             1             6.00       -0.55708945709697E+02     -1515.9175
 S             3             2.00       -0.84210246503997E+01      -229.1477
 P             2             6.00       -0.63170940209224E+01      -171.8969
 D             1            10.00       -0.25215589094963E+01       -68.6151
 S             4             2.00       -0.71526122452121E+00       -19.4632
 P             3             5.00       -0.29448623550877E+00        -8.0134
 P             4             0.00        0.14293403982408E+00         3.8894
 S             5             0.00        0.23325436280959E+00         6.3472
 D             2             0.00        0.25229781612675E+00         6.8654
 F             1             0.00        0.84035988131638E+00        22.8674
 P             5             0.00        0.12110957401221E+01        32.9556
 S             6             0.00        0.24616635462098E+01        66.9853
 D             3             0.00        0.26757290352717E+01        72.8103
 P             6             0.00        0.88299643908710E+01       240.2756
 S             7             0.00        0.14282884447867E+02       388.6571
 D             4             0.00        0.20600069322631E+02       560.5564
 P             7             0.00        0.10090146477562E+03      2745.6686
 S             8             0.00        0.74645973994270E+03     20312.2030


 All Electron Calculation, thus no Orbital Energies of the Core Orbitals are calculated



 =======================================
 M U L L I K E N   P O P U L A T I O N S
 =======================================
  
 The survey below gives for each atom:
 a) the total charge (Z minus electrons)
 b) the net spin polarization (nr of electrons spin-A minus spin-B)
 c) for each spin the atomic electron valence density (integrated) per L-value.

 Atom              Charge    Spin density          S         P         D         F
 ----              ------    ------------       ------    ------    ------    ------
 1 Br              0.0000                       8.0000   17.0000   10.0000    0.0000

 Populations of individual BAS functions
 ----------------------------------------
 1 Br           0.3611  1.5681  2.0732  0.7129  0.7129  0.7129  1.2651  1.2651  1.2651  1.4469
                0.5788  1.1356  1.1356  1.1356  0.8934  0.8934  0.8934  0.2676  0.4014  0.4014
                0.2676  0.4014  0.2676  0.7768  1.1651  1.1651  0.7768  1.1651  0.7768  0.2890
                0.4335  0.4335  0.2890  0.4335  0.2890  0.2758  1.2688  0.4273  0.5479  0.5479
                0.5479  0.9262  0.9262  0.9262  0.1856  0.1856  0.1856  0.0000  0.0000  0.0000
                0.0000  0.0000  0.0000  0.0000  0.0000  0.0000  0.0000  0.0000  0.0000  0.0000
                0.0000  0.0000  0.0000

 Gross Charges per Atom (Z minus electrons)
 ==========================================
             0.0000
 Net Total:  0.00000000



 =======================================================================
 Electrostatic potential at the Nuclei due to electrons and other nuclei
 =======================================================================
  
         Atom                  Potential
         ----                  ---------
     1)   Br                175.93592939
 
 
 ========================
 No memory problems found
 ========================
 
 Maximum number of active allocate calls:         447
 
 *******************************************************************************

                             A D F   E X I T
 NORMAL TERMINATION



 =================
 Timing Statistics
 =================
  
 Total Used :                     CPU=        0.82      System=        0.03     Elapsed=        0.86

 Calls  Section                     ( Mean, Percentage )
 ---------------------------------------------------------------------------------------------------
     3  ><      ................      0.00    0.00             0.00    3.03             0.00    0.09
     1  INIT    ................      0.01    1.21             0.02   51.52             0.03    3.26
     1  GEOMET  ................      0.01    0.73             0.00    6.06             0.01    1.02
     1  INPUTA  ................      0.00    0.24             0.00    0.00             0.00    0.19
     1  MAINSY  ................      0.00    0.24             0.00   12.12             0.01    0.71
     1  SYMFIT  ................      0.00    0.00             0.00    3.03             0.00    0.10
     1  CORORT  ................      0.00    0.00             0.00    0.00             0.00    0.03
     1  SYMORB  ................      0.00    0.12             0.00    0.00             0.00    0.08
     1  CLSMAT  ................      0.00    0.61             0.00    0.00             0.01    0.61
     1  ORTHON  ................      0.00    0.24             0.00    0.00             0.00    0.19
     1  GENPT   ................      0.02    3.03             0.00    0.00             0.03    2.92
     1  PTBAS   ................      0.00    0.36             0.00    0.00             0.00    0.43
    14  FOCKY   ................      0.05   81.19             0.00   21.21             0.05   78.89
    14  FOCKTR  ................      0.00    1.46             0.00    0.00             0.00    1.43
    14  SDIIS   ................      0.00    3.03             0.00    0.00             0.00    2.66
     1  COREPS  ................      0.04    4.49             0.00    0.00             0.04    4.30
     1  POPAN   ................      0.01    0.61             0.00    0.00             0.01    0.61
     1  DEBYE   ................      0.00    0.12             0.00    0.00             0.00    0.10
     1  EXIT PROCEDURE .........      0.02    2.31             0.00    3.03             0.02    2.38


 Currently Open Files (EXIT00)
 ====================

 Unit    Access Format  Status   Type       Ident (file)
 -------------------------------------------------------
   3      SEQ    FORM   TRANSP  NORMAL      LOGFILE
                                          ( logfile )


 Buffered I/O statistics
 =======================
 Memory available:                     67108864
 Number of records fitting in memory:     16131
 Input :   0.1% of                        29677  *4k bytes
 Output:  11.9% of                         1574  *4k bytes
 Records from serial files evicted:           0
                    others evicted:           0
 Hash table lookups:      77044 with          0 conflicts (  0.00%)

 ***************************************************************************************************
 (LOGFILE)
 <Apr18-2019> <21:02:37>  ADF development version  RunTime: Apr18-2019 21:02:37  Nodes: 1  Procs: 1
 <Apr18-2019> <21:02:37>  Bromine (TZ2P)
 <Apr18-2019> <21:02:37>  RunType   : CREATE
 <Apr18-2019> <21:02:37>  Net Charge: 0 (Nuclei minus Electrons)
 <Apr18-2019> <21:02:37>  Symmetry  : ATOM
  Coordinates
    Atom         X           Y           Z   (Angstrom)
    1.Br        0.000000    0.000000    0.000000
 <Apr18-2019> <21:02:37>  >>>> CORORT
 <Apr18-2019> <21:02:37>  >>>> CLSMAT
 <Apr18-2019> <21:02:37>  >>>> ORTHON
 <Apr18-2019> <21:02:37>  >>>> GENPT
 <Apr18-2019> <21:02:37>  Block Length= 106
 <Apr18-2019> <21:02:37>  >>>> PTBAS
 <Apr18-2019> <21:02:37>  >>>> CYCLE
 <Apr18-2019> <21:02:37>              |Error|         MaxErr       Wt(A-DIIS)
 <Apr18-2019> <21:02:37>      1      0.00000000      0.00000000
 <Apr18-2019> <21:02:37>      2    133.92085404     33.03402569    100.0
 <Apr18-2019> <21:02:38>      3     49.33694520     17.76602120    100.0
 <Apr18-2019> <21:02:38>      4      9.26471608      2.19283661    100.0
 <Apr18-2019> <21:02:38>      5     10.96655660      3.67329895    100.0
 <Apr18-2019> <21:02:38>      6      1.94184959      0.48215098    100.0
 <Apr18-2019> <21:02:38>      7      1.82809734      0.46447338    100.0
 <Apr18-2019> <21:02:38>      8      0.12937093      0.03235610     31.7
 <Apr18-2019> <21:02:38>      9      0.02541899      0.00663825      5.7
 <Apr18-2019> <21:02:38>     10      0.00355980      0.00097766      0.0
 <Apr18-2019> <21:02:38>     11      0.00002892      0.00000854      0.0
 <Apr18-2019> <21:02:38>     12      0.00000050      0.00000016      0.0
 <Apr18-2019> <21:02:38>     13      0.00000000      0.00000000      0.0
 <Apr18-2019> <21:02:38>  SCF converged
 <Apr18-2019> <21:02:38>     14      0.00000000      0.00000000      0.0
 <Apr18-2019> <21:02:38>  >>>> POPAN
 <Apr18-2019> <21:02:38>  >>>> DEBYE
 <Apr18-2019> <21:02:38>  NORMAL TERMINATION
 <Apr18-2019> <21:02:38>  END

Create B   file=TZ2P-B
XC
  GGA BP86
End
End Input

 *******************************************************************************
 *                                                                             *
 *  -------------------------------------                                      *
 *   Amsterdam Density Functional  (ADF)         development version           *
 *  -------------------------------------                                      *
 *                                               r61132 2017-09-08             *
 *                                                                             *
 *                                                                             *
 *                              =================                              *
 *                              |               |                              *
 *                              |     A D F     |                              *
 *                              |               |                              *
 *                              =================                              *
 *                                                                             *
 *                                                                             *
 *   Online information and documentation:  https://www.scm.com/support/       *
 *   E-mail:  support@scm.com   info@scm.com                                   *
 *                                                                             *
 *   Scientific publications using ADF results must be properly referenced     *
 *   See the User Manuals (or the web site) for recommended citations          *
 *   The terms and conditions of the End User License Agreement apply to       *
 *   the use of ADF, https://www.scm.com/license-terms/                        *
 *                                                                             *
 **********************  x86_64_linux_intel / intelmpi  ************************
 
 Licensed to: VU/FEW (+ SARA) / ALGEMEEN / Amsterdam / THE NETHERLANDS
 SCM User ID: u7668
  
 ADF development version  RunTime: Apr18-2019 21:02:38  Nodes: 1  Procs: 1

 Temporary files are created in /local/datastore0/tcst25/186777/kid_0.d169Sb

 Boron (TZ2P)



 ===========================
 A T T A C H E D   F I L E S
 ===========================
  
 CREATE - Data File:    TZ2P-B
                        Boron (TZ2P)



 ===============================
 M O D E L   P A R A M E T E R S
 ===============================
  
 DENSITY FUNCTIONAL POTENTIAL (scf)
    LDA:                               VWN                                      
    Gradient Corrections:              Becke88 Perdew86                        == Not Default ==

 SPIN  (restricted / unrestr.)
    Molecule:                          Restricted                               

 OTHER ASPECTS
    Relativistic Corrections:          ---                                      

    Nuclear Charge Density Model:      Point Charge Nuclei                      
    Core Treatment:                    Frozen Orbital(s)                        

    Hyperfine or Zeeman Interaction:   ---                                      



 =====================================
 S Y M M E T R Y ,   E L E C T R O N S
 =====================================
  
 Symmetry: ATOM

 Irreducible Representations, including subspecies
 -------------------------------------------------
 S
 P:x  P:y  P:z
 D:z2  D:x2-y2  D:xy  D:xz  D:yz
 F:z3  F:z  F:xyz  F:z2x  F:z2y  F:x  F:y


 Configuration of Valence Electrons
 ==================================

          Occupation Numbers
          -------------------------------------------------
 S        2*2
 P        1
 D        0
 F        0
          -------------------------------------------------

 Total:   5

 Net Charge: 0 (Nuclei minus Electrons)

 Preset values for MO occupations will be applied through SCF cycle no. 1000000
 Thereafter, the program will assign electrons to MOs that are spatially
 similar to the occupied MOs in a "reference" cycle ("KeepOrbitals").
 The reference cycle is always the PREVIOUS cycle: it will evolve with
 the SCF procedure.



 ================================
 (Slater-type)  F U N C T I O N S  ***  (Basis and Fit)  ***
 ================================
  

 Atom Type    1  (B)
 ==============

 Valence Basis Sets:  10
 -----------------------
   1 S    6.500000
   1 S    4.080000
   2 S    2.800000
   2 S    1.700000
   2 S    1.040000
   2 P    2.600000
   2 P    1.260000
   2 P    0.680000
   3 D    2.000000
   4 F    3.000000


 BAS: List of all Elementary Cartesian Basis Functions
 =====================================================

 The numbering in the list below (to the right of the function characteristics) is referred
 to in print-outs of MO eigenvectors and Mulliken populations in the BAS representation
 (as contrasted to the SFO representation).

 Notes:
 1. The functions are characterized by a polynomial prefactor (powers of x,y,z and r) and
    an exponential decay factor alpha.
 2. Since the basis sets are specific for an atom TYPE, the individual functions occur on
    all atoms of that type.
 3. The word 'Core' in the left margin signals that it is a Core Function (CF) : not a
    degree of freedom in the valence set, but only used to ensure orthogonalization of
    the other valence basis functions on the frozen Core Orbitals.


 (power of) X  Y  Z  R     Alpha  on Atom
            ==========     =====     ==========

 B                                    1
                                  ---------------------------------------------------------------------------
            0  0  0  0     6.500      1
            0  0  0  0     4.080      2
            0  0  0  1     2.800      3
            0  0  0  1     1.700      4
            0  0  0  1     1.040      5
            1  0  0  0     2.600      6
            0  1  0  0     2.600      7
            0  0  1  0     2.600      8
            1  0  0  0     1.260      9
            0  1  0  0     1.260     10
            0  0  1  0     1.260     11
            1  0  0  0     0.680     12
            0  1  0  0     0.680     13
            0  0  1  0     0.680     14
            2  0  0  0     2.000     15
            1  1  0  0     2.000     16
            1  0  1  0     2.000     17
            0  2  0  0     2.000     18
            0  1  1  0     2.000     19
            0  0  2  0     2.000     20
            3  0  0  0     3.000     21
            2  1  0  0     3.000     22
            2  0  1  0     3.000     23
            1  2  0  0     3.000     24
            1  1  1  0     3.000     25
            1  0  2  0     3.000     26
            0  3  0  0     3.000     27
            0  2  1  0     3.000     28
            0  1  2  0     3.000     29
            0  0  3  0     3.000     30

 Total number of charge fitting functions (nprimf)        84
 Total number of Cartesian basis functions (naos)         30
 Total number of Cartesian core functions  (ncos)          0



 BAS: List of all Elementary Cartesian Basis Functions
 =====================================================

 The numbering in the list below (to the right of the function characteristics) is referred
 to in print-outs of MO eigenvectors and Mulliken populations in the BAS representation
 (as contrasted to the SFO representation).

 Notes:
 1. The functions are characterized by a polynomial prefactor (powers of x,y,z and r) and
    an exponential decay factor alpha.
 2. Since the basis sets are specific for an atom TYPE, the individual functions occur on
    all atoms of that type.
 3. The word 'Core' in the left margin signals that it is a Core Function (CF) : not a
    degree of freedom in the valence set, but only used to ensure orthogonalization of
    the other valence basis functions on the frozen Core Orbitals.


 (power of) X  Y  Z  R     Alpha  on Atom
            ==========     =====     ==========

 B                                    1
                                  ---------------------------------------------------------------------------
            0  0  0  0     6.500      1
            0  0  0  0     4.080      2
            0  0  0  1     2.800      3
            0  0  0  1     1.700      4
            0  0  0  1     1.040      5
            1  0  0  0     2.600      6
            0  1  0  0     2.600      7
            0  0  1  0     2.600      8
            1  0  0  0     1.260      9
            0  1  0  0     1.260     10
            0  0  1  0     1.260     11
            1  0  0  0     0.680     12
            0  1  0  0     0.680     13
            0  0  1  0     0.680     14
            2  0  0  0     2.000     15
            1  1  0  0     2.000     16
            1  0  1  0     2.000     17
            0  2  0  0     2.000     18
            0  1  1  0     2.000     19
            0  0  2  0     2.000     20
            3  0  0  0     3.000     21
            2  1  0  0     3.000     22
            2  0  1  0     3.000     23
            1  2  0  0     3.000     24
            1  1  1  0     3.000     25
            1  0  2  0     3.000     26
            0  3  0  0     3.000     27
            0  2  1  0     3.000     28
            0  1  2  0     3.000     29
            0  0  3  0     3.000     30
1
 ***************************************************************************************************



                                              ***********************
                                              *  T E C H N I C A L  *
                                              ***********************
  



 =============================================================
 P A R A L L E L I Z A T I O N  and  V E C T O R I Z A T I O N
 =============================================================
  
 Nr of parallel processes:                                1
 Maximum vector length in NumInt loops:                 128

 IO buffersize (Mb):                                     64.000000



 =====================
 S C F   U P D A T E S
 =====================
  
 Max. nr. of cycles:                               300
 Convergence criterion:                              0.0000000100
   secondary criterion:                              0.0000000100

 Mix parameter (when DIIS does not apply):           0.2000000000
 Special mix parameter for the first cycle:          1.0000000000
 Mixed ADIIS+DIIS will be used
    Max number of expansion vectors:                10
    Pure ADIIS when Max([F,P]) is above              0.1000000000
    Pure DIIS when Max([F,P]) is below               0.0010000000
 Automatic ElectronSmearing (in case of problematic SCF convergence) disabled



 =================
 P R E C I S I O N  ***  (General: NumInt, NeglectFunctionTails, ...)  ***
 =================
  

 NumInt:           Target precision:                12.0000000000
 -------           Initial precision:               10.0000000000
                   Min. precision (optimization):   10.0000000000

 Neglect Functions:          Basis functions:        0.1000000000E-13
 ------------------          Fit functions:          0.1000000000E-13



 ===========================
 L I N E A R   S C A L I N G
 ===========================
  

 Cut-off radii density fit:                        0.1000000000E-97
 Overlap cut-off criterion AO matrix elements:     0.1000000000E-97
 Cut-offs for Coulomb potential and fitted density:0.1000000000E-97
 Cut-off criterion for Coulomb multipole terms:    0.1000000000E-97
 Progressive Convergence parameter:                 0.000000000    
1
 ***************************************************************************************************



                                            ***************************
                                            *  C O M P U T A T I O N  *
                                            ***************************
  

 Number of elements of the density matrix on this node (used, total):       465       465



 ===========================================
 Numerical Integration : Fuzzy Cells (Becke)
 ===========================================
  
 Becke grid quality: VERYGOOD       
  
 Lebedev angular grid order:             min:  13 max:  41
 Nr. of radial points:                   min:  76 max:  76

 Total nr. of points:         76
 Nr. of blocks:                1
 Block length:                76
 Nr. of dummy points:          0


 Test of Precision of the Numerical Integration Grid
 ===================================================

 Integral of the Total Core Density:                   0.00000000000000



 ========================
 Density Fitting (zlmFit)
 ========================
  
 ZlmFit Fit Quality: VERYGOOD       
  
 Max L-expansion:                        min:   0 max:   0
 Nr. of radial interpolation points:     min: 160 max: 160



 =====
 S C F  ***  ScaSCF  ***
 =====
  

 CYCLE    1
 SCF Error: norm([F,P])=      0.000000000000, max([F,P])=      0.000000000000
 orbitals (Q,E):
 ---------------
 S :1...5            ( 2.00   -12.4973)  ( 2.00    -3.1204)  ( 0.00    -1.3604)  ( 0.00    -0.2943)
                     ( 0.00    21.5464)
 P :1...3            ( 1.00    -3.1235)  ( 0.00    -1.3596)  ( 0.00    -0.7394)
 D :1...1            ( 0.00    -1.3333)
 F :1...1            ( 0.00     0.7500)

 CYCLE    2
  SDIIS (wt  0.000):  1.0000  0.0000
 A-DIIS (wt  1.000):  0.0000  1.0000
  DIIS coefficients:  0.0000  1.0000
 SCF Error: norm([F,P])=      3.206930624403, max([F,P])=      2.044237717286
 orbitals (Q,E):
 ---------------
 S :1...3            ( 2.00    -5.1374)  ( 2.00    -0.0371)  ( 0.00     0.4555)
 P :1...2            ( 1.00     0.0686)  ( 0.00     0.3929)
 D :1...1            ( 0.00     1.4209)
 F :1...1            ( 0.00     3.7855)

 CYCLE    3
  SDIIS (wt  0.000):  0.1983  0.8017
 A-DIIS (wt  1.000):  0.0000  1.0000
  DIIS coefficients:  0.0000  1.0000
 SCF Error: norm([F,P])=      1.040807263909, max([F,P])=      0.886703810621
 orbitals (Q,E):
 ---------------
 S :1...3            ( 2.00    -7.3692)  ( 2.00    -0.6224)  ( 0.00     0.0443)
 P :1...2            ( 1.00    -0.4031)  ( 0.00     0.0084)
 D :1...1            ( 0.00     0.7598)
 F :1...1            ( 0.00     3.0368)

 CYCLE    4
  SDIIS (wt  0.000): -0.0590  0.2096  0.8494
 A-DIIS (wt  1.000):  0.0000  0.0000  1.0000
  DIIS coefficients:  0.0000  0.0000  1.0000
 SCF Error: norm([F,P])=      0.442042017553, max([F,P])=      0.386566792489
 orbitals (Q,E):
 ---------------
 S :1...3            ( 2.00    -6.3214)  ( 2.00    -0.2478)  ( 0.00     0.2723)
 P :1...2            ( 1.00    -0.0468)  ( 0.00     0.1916)
 D :1...1            ( 0.00     1.1452)
 F :1...1            ( 0.00     3.4686)

 CYCLE    5
  SDIIS (wt  0.000): -0.0164 -0.0293  0.3638  0.6819
 A-DIIS (wt  1.000):  0.0000  0.0000  0.0966  0.9034
  DIIS coefficients:  0.0000  0.0000  0.0966  0.9034
 SCF Error: norm([F,P])=      0.215593907540, max([F,P])=      0.197107993768
 orbitals (Q,E):
 ---------------
 S :1...3            ( 2.00    -6.7835)  ( 2.00    -0.4032)  ( 0.00     0.1648)
 P :1...2            ( 1.00    -0.1843)  ( 0.00     0.0973)
 D :1...1            ( 0.00     0.9774)
 F :1...1            ( 0.00     3.2785)

 CYCLE    6
  SDIIS (wt  0.212):  0.0014 -0.0175 -0.0520  0.2997  0.7685
 A-DIIS (wt  0.788):  0.0000  0.0000  0.0000  0.0000  1.0000
  DIIS coefficients:  0.0003 -0.0037 -0.0110  0.0634  0.9510
 SCF Error: norm([F,P])=      0.087896467660, max([F,P])=      0.079060506992
 orbitals (Q,E):
 ---------------
 S :1...3            ( 2.00    -6.5865)  ( 2.00    -0.3297)  ( 0.00     0.2120)
 P :1...2            ( 1.00    -0.1166)  ( 0.00     0.1383)
 D :1...1            ( 0.00     1.0553)
 F :1...1            ( 0.00     3.3662)

 CYCLE    7
  SDIIS (wt  0.645): -0.0002  0.0016 -0.0012 -0.0706  0.2336  0.8367
 A-DIIS (wt  0.355):  0.0000  0.0000  0.0000  0.0000  0.0000  1.0000
  DIIS coefficients: -0.0001  0.0010 -0.0008 -0.0456  0.1508  0.8946
 SCF Error: norm([F,P])=      0.039810040971, max([F,P])=      0.036102929289
 orbitals (Q,E):
 ---------------
 S :1...3            ( 2.00    -6.6597)  ( 2.00    -0.3558)  ( 0.00     0.1943)
 P :1...2            ( 1.00    -0.1403)  ( 0.00     0.1227)
 D :1...1            ( 0.00     1.0274)
 F :1...1            ( 0.00     3.3347)

 CYCLE    8
  SDIIS (wt  0.936):  0.0000 -0.0000  0.0001  0.0045 -0.0468  0.0722  0.9699
 A-DIIS (wt  0.064):  0.0000  0.0000  0.0000  0.0000  0.0000  0.0000  1.0000
  DIIS coefficients:  0.0000 -0.0000  0.0001  0.0042 -0.0438  0.0676  0.9718
 SCF Error: norm([F,P])=      0.008085664981, max([F,P])=      0.007315306127
 orbitals (Q,E):
 ---------------
 S :1...3            ( 2.00    -6.6469)  ( 2.00    -0.3512)  ( 0.00     0.1973)
 P :1...2            ( 1.00    -0.1360)  ( 0.00     0.1254)
 D :1...1            ( 0.00     1.0323)
 F :1...1            ( 0.00     3.3402)

 CYCLE    9
  SDIIS (wt  1.000): -0.0000 -0.0000  0.0000 -0.0000  0.0014 -0.0057 -0.0076  1.0119
  DIIS coefficients: -0.0000 -0.0000  0.0000 -0.0000  0.0014 -0.0057 -0.0076  1.0119
 SCF Error: norm([F,P])=      0.000296891091, max([F,P])=      0.000268546514
 orbitals (Q,E):
 ---------------
 S :1...3            ( 2.00    -6.6473)  ( 2.00    -0.3513)  ( 0.00     0.1972)
 P :1...2            ( 1.00    -0.1362)  ( 0.00     0.1253)
 D :1...1            ( 0.00     1.0321)
 F :1...1            ( 0.00     3.3400)

 CYCLE   10
  SDIIS (wt  1.000): -0.0000 -0.0000  0.0000  0.0000 -0.0003 -0.0005  0.0184  0.9824
  DIIS coefficients: -0.0000 -0.0000  0.0000  0.0000 -0.0003 -0.0005  0.0184  0.9824
 SCF Error: norm([F,P])=      0.000000323230, max([F,P])=      0.000000256951
 orbitals (Q,E):
 ---------------
 S :1...3            ( 2.00    -6.6473)  ( 2.00    -0.3513)  ( 0.00     0.1972)
 P :1...2            ( 1.00    -0.1362)  ( 0.00     0.1253)
 D :1...1            ( 0.00     1.0321)
 F :1...1            ( 0.00     3.3400)

 CYCLE   11
  SDIIS (wt  1.000): -0.0000  0.0000  0.0002  0.0044  0.9954
  DIIS coefficients: -0.0000  0.0000  0.0002  0.0044  0.9954
 SCF Error: norm([F,P])=      0.000000003188, max([F,P])=      0.000000002647
 orbitals (Q,E):
 ---------------
 S :1...3            ( 2.00    -6.6473)  ( 2.00    -0.3513)  ( 0.00     0.1972)
 P :1...2            ( 1.00    -0.1362)  ( 0.00     0.1253)
 D :1...1            ( 0.00     1.0321)
 F :1...1            ( 0.00     3.3400)

 SCF CONVERGED

 CYCLE   12
1
 ***************************************************************************************************



                                                *******************
                                                *  R E S U L T S  *
                                                *******************
  
 *** Setting up for NEW gradients in Focky
 *** Using FIT density in Focky

 Orbital Energies, per Irrep and Spin:
 ======================================
                        Occup              E (au)              E (eV)       Diff (eV) with prev. cycle
                        -----      --------------------        ------       --------------------------
 S
               1        2.000     -0.66473159094863E+01      -180.883              -6.83E-09
               2        2.000     -0.35134921977183E+00        -9.561              -4.00E-09
               3        0.000      0.19724151702901E+00         5.367
               4        0.000      0.25814438752340E+01        70.245
               5        0.000      0.26826620261348E+02       729.989
 P
               1        1.000     -0.13617927732071E+00        -3.706              -3.70E-09
               2        0.000      0.12531170360136E+00         3.410
               3        0.000      0.16747264371451E+01        45.572
 D
               1        0.000      0.10321145268327E+01        28.085
 F
               1        0.000      0.33400309304585E+01        90.887


 Partially Occupied:
               1 P                -0.13617927732071E+00
  
 HOMO :        2 S                -0.35134921977183E+00
 LUMO :        2 P                 0.12531170360136E+00
  


 Orbital Energies, all Irreps
 ========================================

 Irrep        no.  (spin)   Occup              E (au)                E (eV)
 ---------------------------------------------------------------------------
 S             1             2.00       -0.66473159094863E+01      -180.8827
 S             2             2.00       -0.35134921977183E+00        -9.5607
 P             1             1.00       -0.13617927732071E+00        -3.7056
 P             2             0.00        0.12531170360136E+00         3.4099
 S             3             0.00        0.19724151702901E+00         5.3672
 D             1             0.00        0.10321145268327E+01        28.0853
 P             3             0.00        0.16747264371451E+01        45.5716
 S             4             0.00        0.25814438752340E+01        70.2447
 F             1             0.00        0.33400309304585E+01        90.8869
 S             5             0.00        0.26826620261348E+02       729.9895


 All Electron Calculation, thus no Orbital Energies of the Core Orbitals are calculated



 =======================================
 M U L L I K E N   P O P U L A T I O N S
 =======================================
  
 The survey below gives for each atom:
 a) the total charge (Z minus electrons)
 b) the net spin polarization (nr of electrons spin-A minus spin-B)
 c) for each spin the atomic electron valence density (integrated) per L-value.

 Atom              Charge    Spin density          S         P         D         F
 ----              ------    ------------       ------    ------    ------    ------
 1 B              -0.0000                       4.0000    1.0000    0.0000    0.0000

 Populations of individual BAS functions
 ----------------------------------------
 1 B            0.4730  1.5255 -0.1291  1.2093  0.9214  0.0290  0.0290  0.0290  0.1965  0.1965
                0.1965  0.1078  0.1078  0.1078  0.0000  0.0000  0.0000  0.0000  0.0000  0.0000
                0.0000  0.0000  0.0000  0.0000  0.0000  0.0000  0.0000  0.0000  0.0000  0.0000

 Gross Charges per Atom (Z minus electrons)
 ==========================================
            -0.0000
 Net Total: -0.00000000



 =======================================================================
 Electrostatic potential at the Nuclei due to electrons and other nuclei
 =======================================================================
  
         Atom                  Potential
         ----                  ---------
     1)   B                  11.37741465
 
 
 ========================
 No memory problems found
 ========================
 
 Maximum number of active allocate calls:         447
 
 *******************************************************************************

                             A D F   E X I T
 NORMAL TERMINATION



 =================
 Timing Statistics
 =================
  
 Total Used :                     CPU=        0.46      System=        0.02     Elapsed=        0.49

 Calls  Section                     ( Mean, Percentage )
 ---------------------------------------------------------------------------------------------------
     3  ><      ................      0.00    0.00             0.00    4.00             0.00    0.16
     1  INIT    ................      0.01    1.94             0.01   60.00             0.03    5.22
     1  GEOMET  ................      0.01    1.29             0.00    8.00             0.01    1.68
     1  INPUTA  ................      0.00    0.22             0.00    0.00             0.00    0.31
     1  MAINSY  ................      0.00    1.08             0.00    4.00             0.01    1.20
     1  SYMFIT  ................      0.00    0.00             0.00    4.00             0.00    0.16
     1  CORORT  ................      0.00    0.00             0.00    0.00             0.00    0.05
     1  SYMORB  ................      0.00    0.00             0.00    4.00             0.00    0.13
     1  CLSMAT  ................      0.00    1.08             0.00    0.00             0.01    1.06
     1  ORTHON  ................      0.00    0.43             0.00    0.00             0.00    0.30
     1  GENPT   ................      0.01    2.58             0.00    8.00             0.01    2.99
     1  PTBAS   ................      0.00    0.86             0.00    0.00             0.00    0.71
    12  FOCKY   ................      0.03   75.27             0.00    4.00             0.03   70.96
    12  FOCKTR  ................      0.00    1.08             0.00    4.00             0.00    2.01
    12  SDIIS   ................      0.00    4.52             0.00    0.00             0.00    3.84
     1  COREPS  ................      0.02    4.52             0.00    0.00             0.02    4.25
     1  POPAN   ................      0.00    1.08             0.00    0.00             0.01    1.07
     1  DEBYE   ................      0.00    0.22             0.00    0.00             0.00    0.11
     1  EXIT PROCEDURE .........      0.02    3.87             0.00    0.00             0.02    3.76


 Currently Open Files (EXIT00)
 ====================

 Unit    Access Format  Status   Type       Ident (file)
 -------------------------------------------------------
   3      SEQ    FORM   TRANSP  NORMAL      LOGFILE
                                          ( logfile )


 Buffered I/O statistics
 =======================
 Memory available:                     67108864
 Number of records fitting in memory:     16131
 Input :   0.1% of                        26729  *4k bytes
 Output:  13.8% of                         1360  *4k bytes
 Records from serial files evicted:           0
                    others evicted:           0
 Hash table lookups:      69030 with          0 conflicts (  0.00%)

 ***************************************************************************************************
 (LOGFILE)
 <Apr18-2019> <21:02:37>  ADF development version  RunTime: Apr18-2019 21:02:37  Nodes: 1  Procs: 1
 <Apr18-2019> <21:02:37>  Bromine (TZ2P)
 <Apr18-2019> <21:02:37>  RunType   : CREATE
 <Apr18-2019> <21:02:37>  Net Charge: 0 (Nuclei minus Electrons)
 <Apr18-2019> <21:02:37>  Symmetry  : ATOM
  Coordinates
    Atom         X           Y           Z   (Angstrom)
    1.Br        0.000000    0.000000    0.000000
 <Apr18-2019> <21:02:37>  >>>> CORORT
 <Apr18-2019> <21:02:37>  >>>> CLSMAT
 <Apr18-2019> <21:02:37>  >>>> ORTHON
 <Apr18-2019> <21:02:37>  >>>> GENPT
 <Apr18-2019> <21:02:37>  Block Length= 106
 <Apr18-2019> <21:02:37>  >>>> PTBAS
 <Apr18-2019> <21:02:37>  >>>> CYCLE
 <Apr18-2019> <21:02:37>              |Error|         MaxErr       Wt(A-DIIS)
 <Apr18-2019> <21:02:37>      1      0.00000000      0.00000000
 <Apr18-2019> <21:02:37>      2    133.92085404     33.03402569    100.0
 <Apr18-2019> <21:02:38>      3     49.33694520     17.76602120    100.0
 <Apr18-2019> <21:02:38>      4      9.26471608      2.19283661    100.0
 <Apr18-2019> <21:02:38>      5     10.96655660      3.67329895    100.0
 <Apr18-2019> <21:02:38>      6      1.94184959      0.48215098    100.0
 <Apr18-2019> <21:02:38>      7      1.82809734      0.46447338    100.0
 <Apr18-2019> <21:02:38>      8      0.12937093      0.03235610     31.7
 <Apr18-2019> <21:02:38>      9      0.02541899      0.00663825      5.7
 <Apr18-2019> <21:02:38>     10      0.00355980      0.00097766      0.0
 <Apr18-2019> <21:02:38>     11      0.00002892      0.00000854      0.0
 <Apr18-2019> <21:02:38>     12      0.00000050      0.00000016      0.0
 <Apr18-2019> <21:02:38>     13      0.00000000      0.00000000      0.0
 <Apr18-2019> <21:02:38>  SCF converged
 <Apr18-2019> <21:02:38>     14      0.00000000      0.00000000      0.0
 <Apr18-2019> <21:02:38>  >>>> POPAN
 <Apr18-2019> <21:02:38>  >>>> DEBYE
 <Apr18-2019> <21:02:38>  NORMAL TERMINATION
 <Apr18-2019> <21:02:38>  END
 <Apr18-2019> <21:02:38>  ADF development version  RunTime: Apr18-2019 21:02:38  Nodes: 1  Procs: 1
 <Apr18-2019> <21:02:38>  Boron (TZ2P)
 <Apr18-2019> <21:02:38>  RunType   : CREATE
 <Apr18-2019> <21:02:38>  Net Charge: 0 (Nuclei minus Electrons)
 <Apr18-2019> <21:02:38>  Symmetry  : ATOM
  Coordinates
    Atom         X           Y           Z   (Angstrom)
    1.B         0.000000    0.000000    0.000000
 <Apr18-2019> <21:02:38>  >>>> CORORT
 <Apr18-2019> <21:02:38>  >>>> CLSMAT
 <Apr18-2019> <21:02:38>  >>>> ORTHON
 <Apr18-2019> <21:02:38>  >>>> GENPT
 <Apr18-2019> <21:02:38>  Block Length=  76
 <Apr18-2019> <21:02:38>  >>>> PTBAS
 <Apr18-2019> <21:02:38>  >>>> CYCLE
 <Apr18-2019> <21:02:38>              |Error|         MaxErr       Wt(A-DIIS)
 <Apr18-2019> <21:02:38>      1      0.00000000      0.00000000
 <Apr18-2019> <21:02:38>      2      3.20693062      2.04423772    100.0
 <Apr18-2019> <21:02:38>      3      1.04080726      0.88670381    100.0
 <Apr18-2019> <21:02:38>      4      0.44204202      0.38656679    100.0
 <Apr18-2019> <21:02:38>      5      0.21559391      0.19710799    100.0
 <Apr18-2019> <21:02:38>      6      0.08789647      0.07906051     78.8
 <Apr18-2019> <21:02:38>      7      0.03981004      0.03610293     35.5
 <Apr18-2019> <21:02:38>      8      0.00808566      0.00731531      6.4
 <Apr18-2019> <21:02:38>      9      0.00029689      0.00026855      0.0
 <Apr18-2019> <21:02:38>     10      0.00000032      0.00000026      0.0
 <Apr18-2019> <21:02:39>     11      0.00000000      0.00000000      0.0
 <Apr18-2019> <21:02:39>  SCF converged
 <Apr18-2019> <21:02:39>     12      0.00000000      0.00000000      0.0
 <Apr18-2019> <21:02:39>  >>>> POPAN
 <Apr18-2019> <21:02:39>  >>>> DEBYE
 <Apr18-2019> <21:02:39>  NORMAL TERMINATION
 <Apr18-2019> <21:02:39>  END


 Parallel Execution: Process Information
 ==============================================================================
 Rank   Node Name                              NodeID   MyNodeRank  NodeMaster
    0   BAZIS-cn076                               0          0          0
    1   BAZIS-cn076                               0          1         -1
    2   BAZIS-cn076                               0          2         -1
    3   BAZIS-cn076                               0          3         -1
    4   BAZIS-cn076                               0          4         -1
    5   BAZIS-cn076                               0          5         -1
    6   BAZIS-cn076                               0          6         -1
    7   BAZIS-cn076                               0          7         -1
    8   BAZIS-cn076                               0          8         -1
    9   BAZIS-cn076                               0          9         -1
   10   BAZIS-cn076                               0         10         -1
   11   BAZIS-cn076                               0         11         -1
 ==============================================================================


May use up to 30736MB of RAM as shared memory on node 0


XC
  GGA BP86
END

ANALYTICALFREQ
END

SCF
  iterations 250
END

Geometry
  Iterations 300
  Optim Cartesian
  Convergence E=1e-4 grad=1e-4
End

SYMMETRY nosym
CHARGE 0

ZLMFIT
  Quality normal
END

BECKEGRID
  Quality good
End

ATOMS
B      -0.71677841      -1.00698688      -0.35138075
Br       0.79376153       0.24720084      -0.54791935
Br      -0.95809619      -2.47173138      -1.65128106
Br      -1.96713276      -0.81598772       1.16320167
END

Fragments
Br t21.Br
B t21.B
End
end input

 *******************************************************************************
 *                                                                             *
 *  -------------------------------------                                      *
 *   Amsterdam Density Functional  (ADF)         development version           *
 *  -------------------------------------                                      *
 *                                               r61132 2017-09-08             *
 *                                                                             *
 *                                                                             *
 *                              =================                              *
 *                              |               |                              *
 *                              |     A D F     |                              *
 *                              |               |                              *
 *                              =================                              *
 *                                                                             *
 *                                                                             *
 *   Online information and documentation:  https://www.scm.com/support/       *
 *   E-mail:  support@scm.com   info@scm.com                                   *
 *                                                                             *
 *   Scientific publications using ADF results must be properly referenced     *
 *   See the User Manuals (or the web site) for recommended citations          *
 *   The terms and conditions of the End User License Agreement apply to       *
 *   the use of ADF, https://www.scm.com/license-terms/                        *
 *                                                                             *
 **********************  x86_64_linux_intel / intelmpi  ************************
 
 Licensed to: VU/FEW (+ SARA) / ALGEMEEN / Amsterdam / THE NETHERLANDS
 SCM User ID: u7668
  
 ADF development version  RunTime: Apr18-2019 21:02:39  Nodes: 1  Procs: 12

 Temporary files are created in /local/datastore0/tcst25/186777/kid_0.3cEe1f


Communication costs MPI_COMM_WORLD:      2.539 usec per message,   0.0133 usec per 8-byte item
Communication costs for intra-node:      2.528 usec per message,   0.0134 usec per 8-byte item

 *** (NO TITLE) ***



 ===========================
 A T T A C H E D   F I L E S
 ===========================
  



 ===============================
 M O D E L   P A R A M E T E R S
 ===============================
  
 DENSITY FUNCTIONAL POTENTIAL (scf)
    LDA:                               VWN                                      
    Gradient Corrections:              Becke88 Perdew86                        == Not Default ==

 SPIN  (restricted / unrestr.)
    Molecule:                          Restricted                               
    Fragments:                         Restricted                               

 OTHER ASPECTS
    Relativistic Corrections:          ---                                      

    Nuclear Charge Density Model:      Point Charge Nuclei                      
    Core Treatment:                    Frozen Orbital(s)                        

    Hyperfine or Zeeman Interaction:   ---                                      


 Fragment File(s)
 ----------------
 B:
         file : t21.B
         jobid: ADF development version  RunTime: Apr18-2019 21:02:38  Nodes: 1  Procs: 1
         title: Boron (TZ2P)
 Br:
         file : t21.Br
         jobid: ADF development version  RunTime: Apr18-2019 21:02:37  Nodes: 1  Procs: 1
         title: Bromine (TZ2P)



                                   *********************************************
                                   *  R U N   T Y P E : GEOMETRY OPTIMIZATION  *
                                   *********************************************
  



 ===============
 G E O M E T R Y  ***  3D  Molecule  ***
 ===============
  

 ATOMS
 =====                            X Y Z                    CHARGE
                                (Angstrom)             Nucl     +Core       At.Mass
                       --------------------------    ----------------       -------
    1  B              -0.7168   -1.0070   -0.3514      5.00      5.00       11.0093
    2  Br              0.7938    0.2472   -0.5479     35.00     35.00       78.9183
    3  Br             -0.9581   -2.4717   -1.6513     35.00     35.00       78.9183
    4  Br             -1.9671   -0.8160    1.1632     35.00     35.00       78.9183


 FRAGMENTS
 =========                                     Atoms in this Fragment     Cart. coord.s (Angstrom)
                                               -------------------------------------------------------
    1  B                                                 1  B           -0.7168   -1.0070   -0.3514
    2  Br                                                2  Br           0.7938    0.2472   -0.5479
    3  Br                                                3  Br          -0.9581   -2.4717   -1.6513
    4  Br                                                4  Br          -1.9671   -0.8160    1.1632


 Interatomic Distance Matrix (Angstrom)
 --------------------------------------

   1)     0.000
   2)     1.973   0.000
   3)     1.973   3.417   0.000
   4)     1.973   3.418   3.418   0.000

 Min. Distance =    1.9732
 Max. Distance =    3.4177



 =====================================
 S Y M M E T R Y ,   E L E C T R O N S
 =====================================
  
 Symmetry: NOSYM

 Irreducible Representations, including subspecies
 -------------------------------------------------
 A


 Configuration of Valence Electrons
 ==================================
 ( determined in the SCF procedure )

 Total:   110

 Net Charge: 0 (Nuclei minus Electrons)

 Aufbau principle for MO occupations will be applied through SCF cycle no.     125
 Thereafter, the program will assign electrons to MOs that are spatially
 similar to the occupied MOs in a "reference" cycle ("KeepOrbitals").
 The reference cycle is always the PREVIOUS cycle: it will evolve with
 the SCF procedure.
1
 ***************************************************************************************************



                                      ****************************************
                                      *  B U I L D : (Fragments, Functions)  *
                                      ****************************************
  



 =======
 S F O s  ***  (Symmetrized Fragment Orbitals)  ***
 =======
  
 SFOs are linear combinations of (valence) Fragment Orbitals (FOs), such that the SFOs transform as the
 irreducible representations of the (molecular) symmetry group. Each SFO is therefore characterized by
 an irrep of the molecule and by a few (or only one) generating FOs.
 The SFOs constitute a symmetry-adapted basis for the Fock matrix. The MO eigenvector coefficients in
 this basis provide a direct interpretation of the MOs in terms of Frontier Orbital Theory.

 The SFOs are combined with auxiliary Core Functions (CFs) to ensure orthogonalization on the (frozen)
 Core Orbitals (COs). The Core-orthogonalized SFOs (CSFOs) constitute the true Fock basis.

 The FOs, and hence also the (C)SFOs are combinations of the elementary basis functions (BAS). The basis
 functions that participate in the description of the SFOs depend on the irrep. The indices of the
 involved functions are printed below for each irrep.
 (The complete list of primitive basis functions is printed in another section)

 Total nr. of (C)SFOs (summation over all irreps) :   194

 NOTE: a (C)SFO that is defined as a combination of more than one FO is usually NOT normalized.



                                       === A ===
 Nr. of SFOs :  194
 Cartesian basis functions that participate in this irrep (total number =   219) :
      1     2     3     4     5     6     9    12     7    10
     13     8    11    14    15    16    17    18    19    20
     21    22    23    24    25    26    27    28    29    30
     31    32    33    40    41    66    67    68    34    37
     42    45    69    72    75    35    38    43    46    70
     73    76    36    39    44    47    71    74    77    48
     54    60    78    49    55    61    79    50    56    62
     80    51    57    63    81    52    58    64    82    53
     59    65    83    84    85    86    87    88    89    90
     91    92    93    94    95    96   103   104   129   130
    131    97   100   105   108   132   135   138    98   101
    106   109   133   136   139    99   102   107   110   134
    137   140   111   117   123   141   112   118   124   142
    113   119   125   143   114   120   126   144   115   121
    127   145   116   122   128   146   147   148   149   150
    151   152   153   154   155   156   157   158   159   166
    167   192   193   194   160   163   168   171   195   198
    201   161   164   169   172   196   199   202   162   165
    170   173   197   200   203   174   180   186   204   175
    181   187   205   176   182   188   206   177   183   189
    207   178   184   190   208   179   185   191   209   210
    211   212   213   214   215   216   217   218   219

    SFO  (index         Fragment          Generating    Expansion in Fragment Orbitals
  indx  incl.CFs)   Occup   Orb.Energy   FragmentType  Coeff.   Orbital     on Fragment
 --------------------------------------------------------------------------------------
     1       1      2.000      -6.647 au  B             1.00      1 S               1
                        (    -180.883 eV)
     2       2      2.000      -0.351 au  B             1.00      2 S               1
                        (      -9.561 eV)
     3       3       --         0.197 au  B             1.00      3 S               1
                        (       5.367 eV)
     4       4       --         2.581 au  B             1.00      4 S               1
                        (      70.245 eV)
     5       5       --        26.827 au  B             1.00      5 S               1
                        (     729.989 eV)
     6       6      0.333      -0.136 au  B             1.00      1 P:x             1
                        (      -3.706 eV)
     7       7       --         0.125 au  B             1.00      2 P:x             1
                        (       3.410 eV)
     8       8       --         1.675 au  B             1.00      3 P:x             1
                        (      45.572 eV)
     9       9      0.333      -0.136 au  B             1.00      1 P:y             1
                        (      -3.706 eV)
    10      10       --         0.125 au  B             1.00      2 P:y             1
                        (       3.410 eV)
    11      11       --         1.675 au  B             1.00      3 P:y             1
                        (      45.572 eV)
    12      12      0.333      -0.136 au  B             1.00      1 P:z             1
                        (      -3.706 eV)
    13      13       --         0.125 au  B             1.00      2 P:z             1
                        (       3.410 eV)
    14      14       --         1.675 au  B             1.00      3 P:z             1
                        (      45.572 eV)
    15      15       --         1.032 au  B             1.00      1 D:z2            1
                        (      28.085 eV)
    16      16       --         1.032 au  B             1.00      1 D:x2-y2         1
                        (      28.085 eV)
    17      17       --         1.032 au  B             1.00      1 D:xy            1
                        (      28.085 eV)
    18      18       --         1.032 au  B             1.00      1 D:xz            1
                        (      28.085 eV)
    19      19       --         1.032 au  B             1.00      1 D:yz            1
                        (      28.085 eV)
    20      20       --         3.340 au  B             1.00      1 F:z3            1
                        (      90.887 eV)
    21      21       --         3.340 au  B             1.00      1 F:z             1
                        (      90.887 eV)
    22      22       --         3.340 au  B             1.00      1 F:xyz           1
                        (      90.887 eV)
    23      23       --         3.340 au  B             1.00      1 F:z2x           1
                        (      90.887 eV)
    24      24       --         3.340 au  B             1.00      1 F:z2y           1
                        (      90.887 eV)
    25      25       --         3.340 au  B             1.00      1 F:x             1
                        (      90.887 eV)
    26      26       --         3.340 au  B             1.00      1 F:y             1
                        (      90.887 eV)
    27      27      2.000    -481.029 au  Br            1.00      1 S               2
                        (  -13089.468 eV)
[...]
 <Apr18-2019> <21:02:38>      7      1.82809734      0.46447338    100.0
 <Apr18-2019> <21:02:38>      8      0.12937093      0.03235610     31.7
 <Apr18-2019> <21:02:38>      9      0.02541899      0.00663825      5.7
 <Apr18-2019> <21:02:38>     10      0.00355980      0.00097766      0.0
 <Apr18-2019> <21:02:38>     11      0.00002892      0.00000854      0.0
 <Apr18-2019> <21:02:38>     12      0.00000050      0.00000016      0.0
 <Apr18-2019> <21:02:38>     13      0.00000000      0.00000000      0.0
 <Apr18-2019> <21:02:38>  SCF converged
 <Apr18-2019> <21:02:38>     14      0.00000000      0.00000000      0.0
 <Apr18-2019> <21:02:38>  >>>> POPAN
 <Apr18-2019> <21:02:38>  >>>> DEBYE
 <Apr18-2019> <21:02:38>  NORMAL TERMINATION
 <Apr18-2019> <21:02:38>  END
 <Apr18-2019> <21:02:38>  ADF development version  RunTime: Apr18-2019 21:02:38  Nodes: 1  Procs: 1
 <Apr18-2019> <21:02:38>  Boron (TZ2P)
 <Apr18-2019> <21:02:38>  RunType   : CREATE
 <Apr18-2019> <21:02:38>  Net Charge: 0 (Nuclei minus Electrons)
 <Apr18-2019> <21:02:38>  Symmetry  : ATOM
  Coordinates
    Atom         X           Y           Z   (Angstrom)
    1.B         0.000000    0.000000    0.000000
 <Apr18-2019> <21:02:38>  >>>> CORORT
 <Apr18-2019> <21:02:38>  >>>> CLSMAT
 <Apr18-2019> <21:02:38>  >>>> ORTHON
 <Apr18-2019> <21:02:38>  >>>> GENPT
 <Apr18-2019> <21:02:38>  Block Length=  76
 <Apr18-2019> <21:02:38>  >>>> PTBAS
 <Apr18-2019> <21:02:38>  >>>> CYCLE
 <Apr18-2019> <21:02:38>              |Error|         MaxErr       Wt(A-DIIS)
 <Apr18-2019> <21:02:38>      1      0.00000000      0.00000000
 <Apr18-2019> <21:02:38>      2      3.20693062      2.04423772    100.0
 <Apr18-2019> <21:02:38>      3      1.04080726      0.88670381    100.0
 <Apr18-2019> <21:02:38>      4      0.44204202      0.38656679    100.0
 <Apr18-2019> <21:02:38>      5      0.21559391      0.19710799    100.0
 <Apr18-2019> <21:02:38>      6      0.08789647      0.07906051     78.8
 <Apr18-2019> <21:02:38>      7      0.03981004      0.03610293     35.5
 <Apr18-2019> <21:02:38>      8      0.00808566      0.00731531      6.4
 <Apr18-2019> <21:02:38>      9      0.00029689      0.00026855      0.0
 <Apr18-2019> <21:02:38>     10      0.00000032      0.00000026      0.0
 <Apr18-2019> <21:02:39>     11      0.00000000      0.00000000      0.0
 <Apr18-2019> <21:02:39>  SCF converged
 <Apr18-2019> <21:02:39>     12      0.00000000      0.00000000      0.0
 <Apr18-2019> <21:02:39>  >>>> POPAN
 <Apr18-2019> <21:02:39>  >>>> DEBYE
 <Apr18-2019> <21:02:39>  NORMAL TERMINATION
 <Apr18-2019> <21:02:39>  END
 <Apr18-2019> <21:02:39>  ADF development version  RunTime: Apr18-2019 21:02:39  Nodes: 1  Procs: 12
 <Apr18-2019> <21:02:39>  *** (NO TITLE) ***
 <Apr18-2019> <21:02:39>  RunType   : GEOMETRY OPTIMIZATION
 <Apr18-2019> <21:02:39>  Net Charge: 0 (Nuclei minus Electrons)
 <Apr18-2019> <21:02:39>  Symmetry  : NOSYM
 <Apr18-2019> <21:02:39>  >>>> FRAGM
  Coordinates in Geometry Cycle 1
    Atom         X           Y           Z   (Angstrom)
    1.B        -0.716778   -1.006987   -0.351381
    2.Br        0.793762    0.247201   -0.547919
    3.Br       -0.958096   -2.471731   -1.651281
    4.Br       -1.967133   -0.815988    1.163202
 <Apr18-2019> <21:02:39>  >>>> CORORT
 <Apr18-2019> <21:02:39>  >>>> CLSMAT
 <Apr18-2019> <21:02:39>  >>>> ORTHON
 <Apr18-2019> <21:02:39>  >>>> GENPT
 <Apr18-2019> <21:02:39>  Block Length= 128
 <Apr18-2019> <21:02:39>  >>>> PTBAS
 <Apr18-2019> <21:02:40>  >>>> CYCLE
 <Apr18-2019> <21:02:40>              |Error|         MaxErr       Wt(A-DIIS)
 <Apr18-2019> <21:02:40>      1      4.00437850      0.89549131
 <Apr18-2019> <21:02:40>      2      0.12263588      0.01974491    100.0
 <Apr18-2019> <21:02:40>      3      0.07272968      0.01560930    100.0
 <Apr18-2019> <21:02:40>      4      0.08336118      0.00966874    100.0
 <Apr18-2019> <21:02:40>      5      0.03423191      0.00435297      3.4
 <Apr18-2019> <21:02:41>      6      0.00432670      0.00063226      0.0
 <Apr18-2019> <21:02:41>      7      0.00045453      0.00008832      0.0
 <Apr18-2019> <21:02:41>      8      0.00007560      0.00001313      0.0
 <Apr18-2019> <21:02:41>      9      0.00002901      0.00000476      0.0
 <Apr18-2019> <21:02:41>     10      0.00000673      0.00000082      0.0
 <Apr18-2019> <21:02:41>  SCF converged
 <Apr18-2019> <21:02:41>     11      0.00000052      0.00000012      0.0
 <Apr18-2019> <21:02:41>  >>>> TOTEN
 <Apr18-2019> <21:02:42>  >>>> POPAN
 <Apr18-2019> <21:02:42>  >>>> DEBYE
 <Apr18-2019> <21:02:42>  >>>> ENGRAD
 <Apr18-2019> <21:02:42>  current energy                               -0.48500726 Hartree
 <Apr18-2019> <21:02:42>  energy change                      -0.48500726     0.00010000    F
 <Apr18-2019> <21:02:42>  constrained gradient max            0.03056399     0.00010000    F
 <Apr18-2019> <21:02:42>  constrained gradient rms            0.01966407     0.00006667    F
 <Apr18-2019> <21:02:42>  gradient max                        0.03056399
 <Apr18-2019> <21:02:42>  gradient rms                        0.01966407
 <Apr18-2019> <21:02:42>  cart. step max                      0.02093107     0.01000000    F
 <Apr18-2019> <21:02:42>  cart. step rms                      0.01285731     0.00666667    F
  Coordinates in Geometry Cycle 2
    Atom         X           Y           Z   (Angstrom)
    1.B        -0.711965   -1.011812   -0.346875
    2.Br        0.773176    0.232973   -0.546789
    3.Br       -0.956738   -2.451654   -1.636063
    4.Br       -1.952719   -0.817013    1.142347
 <Apr18-2019> <21:02:42>  >>>> CORORT
 <Apr18-2019> <21:02:42>  >>>> CLSMAT
 <Apr18-2019> <21:02:42>  >>>> ORTHON
 <Apr18-2019> <21:02:42>  >>>> GENPT
 <Apr18-2019> <21:02:42>  Block Length= 128
 <Apr18-2019> <21:02:42>  >>>> PTBAS
 <Apr18-2019> <21:02:42>  >>>> CYCLE
 <Apr18-2019> <21:02:42>              |Error|         MaxErr       Wt(A-DIIS)
 <Apr18-2019> <21:02:42>      1      0.13352392      0.02629523
 <Apr18-2019> <21:02:43>      2      0.04233820      0.00725591    100.0
 <Apr18-2019> <21:02:43>      3      0.01363982      0.00249992    100.0
 <Apr18-2019> <21:02:43>      4      0.03149755      0.00515121    100.0
 <Apr18-2019> <21:02:43>      5      0.00772732      0.00133850      0.3
 <Apr18-2019> <21:02:43>      6      0.00018060      0.00002954      0.0
 <Apr18-2019> <21:02:43>      7      0.00006705      0.00001070      0.0
 <Apr18-2019> <21:02:43>      8      0.00001841      0.00000270      0.0
 <Apr18-2019> <21:02:44>      9      0.00000800      0.00000157      0.0
 <Apr18-2019> <21:02:44>     10      0.00000167      0.00000020      0.0
 <Apr18-2019> <21:02:44>  SCF converged
 <Apr18-2019> <21:02:44>     11      0.00000029      0.00000004      0.0
 <Apr18-2019> <21:02:44>  >>>> TOTEN
 <Apr18-2019> <21:02:44>  >>>> POPAN
 <Apr18-2019> <21:02:44>  >>>> DEBYE
 <Apr18-2019> <21:02:44>  >>>> ENGRAD
 <Apr18-2019> <21:02:45>  current energy                               -0.48744139 Hartree
 <Apr18-2019> <21:02:45>  energy change                      -0.00243413     0.00010000    F
 <Apr18-2019> <21:02:45>  constrained gradient max            0.01791432     0.00010000    F
 <Apr18-2019> <21:02:45>  constrained gradient rms            0.01170072     0.00006667    F
 <Apr18-2019> <21:02:45>  gradient max                        0.01791432
 <Apr18-2019> <21:02:45>  gradient rms                        0.01170072
 <Apr18-2019> <21:02:45>  cart. step max                      0.02773639     0.01000000    F
 <Apr18-2019> <21:02:45>  cart. step rms                      0.01868472     0.00666667    F
  Coordinates in Geometry Cycle 3
    Atom         X           Y           Z   (Angstrom)
    1.B        -0.714409   -1.009137   -0.349412
    2.Br        0.745704    0.208483   -0.541996
    3.Br       -0.951465   -2.425133   -1.610506
    4.Br       -1.928076   -0.821718    1.114534
 <Apr18-2019> <21:02:45>  >>>> CORORT
 <Apr18-2019> <21:02:45>  >>>> CLSMAT
 <Apr18-2019> <21:02:45>  >>>> ORTHON
 <Apr18-2019> <21:02:45>  >>>> GENPT
 <Apr18-2019> <21:02:45>  Block Length= 128
 <Apr18-2019> <21:02:45>  >>>> PTBAS
 <Apr18-2019> <21:02:45>  >>>> CYCLE
 <Apr18-2019> <21:02:45>              |Error|         MaxErr       Wt(A-DIIS)
 <Apr18-2019> <21:02:45>      1      0.20987678      0.03871634
 <Apr18-2019> <21:02:45>      2      0.05935063      0.01001234    100.0
 <Apr18-2019> <21:02:45>      3      0.01987186      0.00351187    100.0
 <Apr18-2019> <21:02:45>      4      0.04510125      0.00723979    100.0
 <Apr18-2019> <21:02:46>      5      0.01086097      0.00182441      0.8
 <Apr18-2019> <21:02:46>      6      0.00033286      0.00005220      0.0
 <Apr18-2019> <21:02:46>      7      0.00006565      0.00001142      0.0
 <Apr18-2019> <21:02:46>      8      0.00002424      0.00000352      0.0
 <Apr18-2019> <21:02:46>      9      0.00001230      0.00000244      0.0
 <Apr18-2019> <21:02:46>     10      0.00000180      0.00000028      0.0
 <Apr18-2019> <21:02:46>  SCF converged
 <Apr18-2019> <21:02:47>     11      0.00000090      0.00000014      0.0
 <Apr18-2019> <21:02:47>  >>>> TOTEN
 <Apr18-2019> <21:02:47>  >>>> POPAN
 <Apr18-2019> <21:02:47>  >>>> DEBYE
 <Apr18-2019> <21:02:47>  >>>> ENGRAD
 <Apr18-2019> <21:02:47>  current energy                               -0.48864629 Hartree
 <Apr18-2019> <21:02:47>  energy change                      -0.00120490     0.00010000    F
 <Apr18-2019> <21:02:47>  constrained gradient max            0.00280321     0.00010000    F
 <Apr18-2019> <21:02:47>  constrained gradient rms            0.00199052     0.00006667    F
 <Apr18-2019> <21:02:47>  gradient max                        0.00280321
 <Apr18-2019> <21:02:47>  gradient rms                        0.00199052
 <Apr18-2019> <21:02:47>  cart. step max                      0.00363494     0.01000000    T
 <Apr18-2019> <21:02:47>  cart. step rms                      0.00254650     0.00666667    T
  Coordinates in Geometry Cycle 4
    Atom         X           Y           Z   (Angstrom)
    1.B        -0.711857   -1.011779   -0.346952
    2.Br        0.748185    0.212170   -0.543254
    3.Br       -0.952873   -2.427504   -1.614240
    4.Br       -1.931701   -0.820393    1.117066
 <Apr18-2019> <21:02:47>  >>>> CORORT
 <Apr18-2019> <21:02:47>  >>>> CLSMAT
 <Apr18-2019> <21:02:47>  >>>> ORTHON
 <Apr18-2019> <21:02:47>  >>>> GENPT
 <Apr18-2019> <21:02:47>  Block Length= 128
 <Apr18-2019> <21:02:47>  >>>> PTBAS
 <Apr18-2019> <21:02:47>  >>>> CYCLE
 <Apr18-2019> <21:02:48>              |Error|         MaxErr       Wt(A-DIIS)
 <Apr18-2019> <21:02:48>      1      0.02642795      0.00475465
 <Apr18-2019> <21:02:48>      2      0.00692586      0.00111160    100.0
 <Apr18-2019> <21:02:48>      3      0.01688632      0.00255999    100.0
 <Apr18-2019> <21:02:48>      4      0.00474817      0.00074488      0.0
 <Apr18-2019> <21:02:48>      5      0.00027345      0.00004105      0.0
 <Apr18-2019> <21:02:48>      6      0.00005128      0.00000719      0.0
 <Apr18-2019> <21:02:48>      7      0.00000514      0.00000061      0.0
 <Apr18-2019> <21:02:49>  SCF converged
 <Apr18-2019> <21:02:49>      8      0.00000338      0.00000052      0.0
 <Apr18-2019> <21:02:49>  >>>> TOTEN
 <Apr18-2019> <21:02:49>  >>>> POPAN
 <Apr18-2019> <21:02:49>  >>>> DEBYE
 <Apr18-2019> <21:02:49>  >>>> ENGRAD
 <Apr18-2019> <21:02:49>  current energy                               -0.48866980 Hartree
 <Apr18-2019> <21:02:49>  energy change                      -0.00002351     0.00010000    T
 <Apr18-2019> <21:02:49>  constrained gradient max            0.00037894     0.00010000    F
 <Apr18-2019> <21:02:49>  constrained gradient rms            0.00023019     0.00006667    F
 <Apr18-2019> <21:02:49>  gradient max                        0.00037894
 <Apr18-2019> <21:02:49>  gradient rms                        0.00023019
 <Apr18-2019> <21:02:49>  cart. step max                      0.00084016     0.01000000    T
 <Apr18-2019> <21:02:49>  cart. step rms                      0.00050783     0.00666667    T
  Coordinates in Geometry Cycle 5
    Atom         X           Y           Z   (Angstrom)
    1.B        -0.712465   -1.011162   -0.347538
    2.Br        0.749092    0.212555   -0.543129
    3.Br       -0.952788   -2.428427   -1.614718
    4.Br       -1.932085   -0.820471    1.118006
 <Apr18-2019> <21:02:49>  >>>> CORORT
 <Apr18-2019> <21:02:49>  >>>> CLSMAT
 <Apr18-2019> <21:02:49>  >>>> ORTHON
 <Apr18-2019> <21:02:49>  >>>> GENPT
 <Apr18-2019> <21:02:49>  Block Length= 128
 <Apr18-2019> <21:02:49>  >>>> PTBAS
 <Apr18-2019> <21:02:49>  >>>> CYCLE
 <Apr18-2019> <21:02:50>              |Error|         MaxErr       Wt(A-DIIS)
 <Apr18-2019> <21:02:50>      1      0.00580061      0.00118751
 <Apr18-2019> <21:02:50>      2      0.00151581      0.00026817    100.0
 <Apr18-2019> <21:02:50>      3      0.00370575      0.00058549    100.0
 <Apr18-2019> <21:02:50>      4      0.00104264      0.00017674      0.0
 <Apr18-2019> <21:02:50>      5      0.00006095      0.00000952      0.0
 <Apr18-2019> <21:02:50>      6      0.00001140      0.00000162      0.0
 <Apr18-2019> <21:02:51>      7      0.00000141      0.00000018      0.0
 <Apr18-2019> <21:02:51>  SCF converged
 <Apr18-2019> <21:02:51>      8      0.00000106      0.00000014      0.0
 <Apr18-2019> <21:02:51>  >>>> TOTEN
 <Apr18-2019> <21:02:51>  >>>> POPAN
 <Apr18-2019> <21:02:51>  >>>> DEBYE
 <Apr18-2019> <21:02:51>  >>>> ENGRAD
 <Apr18-2019> <21:02:51>  current energy                               -0.48866791 Hartree
 <Apr18-2019> <21:02:51>  energy change                       0.00000188     0.00010000    T
 <Apr18-2019> <21:02:51>  constrained gradient max            0.00026492     0.00010000    F
 <Apr18-2019> <21:02:51>  constrained gradient rms            0.00015934     0.00006667    F
 <Apr18-2019> <21:02:51>  gradient max                        0.00026492
 <Apr18-2019> <21:02:51>  gradient rms                        0.00015934
 <Apr18-2019> <21:02:51>  cart. step max                      0.00054750     0.01000000    T
 <Apr18-2019> <21:02:51>  cart. step rms                      0.00034448     0.00666667    T
  Coordinates in Geometry Cycle 6
    Atom         X           Y           Z   (Angstrom)
    1.B        -0.711856   -1.011782   -0.346955
    2.Br        0.748463    0.212405   -0.543258
    3.Br       -0.952931   -2.427805   -1.614541
    4.Br       -1.931922   -0.820323    1.117374
 <Apr18-2019> <21:02:51>  >>>> CORORT
 <Apr18-2019> <21:02:51>  >>>> CLSMAT
 <Apr18-2019> <21:02:51>  >>>> ORTHON
 <Apr18-2019> <21:02:51>  >>>> GENPT
 <Apr18-2019> <21:02:51>  Block Length= 128
 <Apr18-2019> <21:02:51>  >>>> PTBAS
 <Apr18-2019> <21:02:51>  >>>> CYCLE
 <Apr18-2019> <21:02:52>              |Error|         MaxErr       Wt(A-DIIS)
 <Apr18-2019> <21:02:52>      1      0.00375828      0.00077553
 <Apr18-2019> <21:02:52>      2      0.00089826      0.00016280    100.0
 <Apr18-2019> <21:02:52>      3      0.00030892      0.00006046    100.0
 <Apr18-2019> <21:02:52>      4      0.00066613      0.00011455      0.0
 <Apr18-2019> <21:02:52>      5      0.00004219      0.00000672      0.0
 <Apr18-2019> <21:02:53>      6      0.00000745      0.00000107      0.0
 <Apr18-2019> <21:02:53>      7      0.00000136      0.00000021      0.0
 <Apr18-2019> <21:02:53>  SCF converged
 <Apr18-2019> <21:02:53>      8      0.00000075      0.00000010      0.0
 <Apr18-2019> <21:02:53>  >>>> TOTEN
 <Apr18-2019> <21:02:53>  >>>> POPAN
 <Apr18-2019> <21:02:53>  >>>> DEBYE
 <Apr18-2019> <21:02:53>  >>>> ENGRAD
 <Apr18-2019> <21:02:53>  current energy                               -0.48866937 Hartree
 <Apr18-2019> <21:02:53>  energy change                      -0.00000146     0.00010000    T
 <Apr18-2019> <21:02:53>  constrained gradient max            0.00013589     0.00010000    F
 <Apr18-2019> <21:02:53>  constrained gradient rms            0.00008255     0.00006667    F
 <Apr18-2019> <21:02:53>  gradient max                        0.00013589
 <Apr18-2019> <21:02:53>  gradient rms                        0.00008255
 <Apr18-2019> <21:02:53>  cart. step max                      0.00019181     0.01000000    T
 <Apr18-2019> <21:02:53>  cart. step rms                      0.00012569     0.00666667    T
  Coordinates in Geometry Cycle 7
    Atom         X           Y           Z   (Angstrom)
    1.B        -0.711857   -1.011781   -0.346954
    2.Br        0.748603    0.212518   -0.543275
    3.Br       -0.952953   -2.427941   -1.614670
    4.Br       -1.932038   -0.820301    1.117519
 <Apr18-2019> <21:02:53>  >>>> CORORT
 <Apr18-2019> <21:02:53>  >>>> CLSMAT
 <Apr18-2019> <21:02:53>  >>>> ORTHON
 <Apr18-2019> <21:02:53>  >>>> GENPT
 <Apr18-2019> <21:02:53>  Block Length= 128
 <Apr18-2019> <21:02:53>  >>>> PTBAS
 <Apr18-2019> <21:02:54>  >>>> CYCLE
 <Apr18-2019> <21:02:54>              |Error|         MaxErr       Wt(A-DIIS)
 <Apr18-2019> <21:02:54>      1      0.00106148      0.00019944
 <Apr18-2019> <21:02:54>      2      0.00029209      0.00004941    100.0
 <Apr18-2019> <21:02:54>      3      0.00071639      0.00011080    100.0
 <Apr18-2019> <21:02:54>      4      0.00020263      0.00003308      0.0
 <Apr18-2019> <21:02:54>      5      0.00001065      0.00000161      0.0
 <Apr18-2019> <21:02:55>      6      0.00000206      0.00000029      0.0
 <Apr18-2019> <21:02:55>  SCF converged
 <Apr18-2019> <21:02:55>      7      0.00000032      0.00000004      0.0
 <Apr18-2019> <21:02:55>  >>>> TOTEN
 <Apr18-2019> <21:02:55>  >>>> POPAN
 <Apr18-2019> <21:02:55>  >>>> DEBYE
 <Apr18-2019> <21:02:55>  >>>> ENGRAD
 <Apr18-2019> <21:02:55>  current energy                               -0.48866905 Hartree
 <Apr18-2019> <21:02:55>  energy change                       0.00000033     0.00010000    T
 <Apr18-2019> <21:02:55>  constrained gradient max            0.00007528     0.00010000    T
 <Apr18-2019> <21:02:55>  constrained gradient rms            0.00003871     0.00006667    T
 <Apr18-2019> <21:02:55>  gradient max                        0.00007528
 <Apr18-2019> <21:02:55>  gradient rms                        0.00003871
 <Apr18-2019> <21:02:55>  cart. step max                      0.00049365     0.01000000    T
 <Apr18-2019> <21:02:55>  cart. step rms                      0.00027784     0.00666667    T
 <Apr18-2019> <21:02:55>  GEOMETRY CONVERGED
 <Apr18-2019> <21:02:55>  Calculating Energy Terms for Final Geometry
  Coordinates in Geometry Cycle 7
    Atom         X           Y           Z   (Angstrom)
    1.B        -0.711857   -1.011781   -0.346954
    2.Br        0.748603    0.212518   -0.543275
    3.Br       -0.952953   -2.427941   -1.614670
    4.Br       -1.932038   -0.820301    1.117519
 <Apr18-2019> <21:02:55>  >>>> CORORT
 <Apr18-2019> <21:02:55>  >>>> CLSMAT
 <Apr18-2019> <21:02:55>  >>>> ORTHON
 <Apr18-2019> <21:02:55>  >>>> GENPT
 <Apr18-2019> <21:02:55>  Block Length= 128
 <Apr18-2019> <21:02:55>  >>>> PTBAS
 <Apr18-2019> <21:02:55>  >>>> CYCLE
 <Apr18-2019> <21:02:56>              |Error|         MaxErr       Wt(A-DIIS)
 <Apr18-2019> <21:02:56>      1      0.00000025      0.00000004
 <Apr18-2019> <21:02:56>      2      0.00000045      0.00000008    100.0
 <Apr18-2019> <21:02:56>  SCF converged
 <Apr18-2019> <21:02:56>      3      0.00000020      0.00000003    100.0
 <Apr18-2019> <21:02:56>  >>>> TOTEN
 <Apr18-2019> <21:02:57>  >>>> POPAN
 <Apr18-2019> <21:02:57>  >>>> DEBYE
 <Apr18-2019> <21:02:57>  >>>> AMETS
 <Apr18-2019> <21:02:57>  >>>> POPUL
 <Apr18-2019> <21:02:57>   Bond Energy          -0.48866905 a.u.
 <Apr18-2019> <21:02:57>   Bond Energy         -13.29736133 eV
 <Apr18-2019> <21:02:57>   Bond Energy        -306.64       kcal/mol
 <Apr18-2019> <21:02:57>  >>>> ENHESS
 <Apr18-2019> <21:02:57>  === NUCLEUS:     1
 <Apr18-2019> <21:03:01>  === NUCLEUS:     2
 <Apr18-2019> <21:03:05>  === NUCLEUS:     3
 <Apr18-2019> <21:03:09>  === NUCLEUS:     4
 <Apr18-2019> <21:03:13>  >>>> CALC_HESS_PMAT
 <Apr18-2019> <21:03:13>  >>>> CALC_HESS_WMAT
 <Apr18-2019> <21:03:14>  NORMAL TERMINATION
 <Apr18-2019> <21:03:14>  END
