
Create F   file=TZ2P-F
XC
  GGA BP86
End
End Input

 *******************************************************************************
 *                                                                             *
 *  -------------------------------------                                      *
 *   Amsterdam Density Functional  (ADF)         development version           *
 *  -------------------------------------                                      *
 *                                               r61132 2017-09-08             *
 *                                                                             *
 *                                                                             *
 *                              =================                              *
 *                              |               |                              *
 *                              |     A D F     |                              *
 *                              |               |                              *
 *                              =================                              *
 *                                                                             *
 *                                                                             *
 *   Online information and documentation:  https://www.scm.com/support/       *
 *   E-mail:  support@scm.com   info@scm.com                                   *
 *                                                                             *
 *   Scientific publications using ADF results must be properly referenced     *
 *   See the User Manuals (or the web site) for recommended citations          *
 *   The terms and conditions of the End User License Agreement apply to       *
 *   the use of ADF, https://www.scm.com/license-terms/                        *
 *                                                                             *
 **********************  x86_64_linux_intel / intelmpi  ************************
 
 Licensed to: VU/FEW (+ SARA) / ALGEMEEN / Amsterdam / THE NETHERLANDS
 SCM User ID: u7668
  
 ADF development version  RunTime: Apr18-2019 21:57:02  Nodes: 1  Procs: 1

 Temporary files are created in /local/datastore0/tcst25/186810/kid_0.TNtIxg

 Fluorine (TZ2P)



 ===========================
 A T T A C H E D   F I L E S
 ===========================
  
 CREATE - Data File:    TZ2P-F
                        Fluorine (TZ2P)



 ===============================
 M O D E L   P A R A M E T E R S
 ===============================
  
 DENSITY FUNCTIONAL POTENTIAL (scf)
    LDA:                               VWN                                      
    Gradient Corrections:              Becke88 Perdew86                        == Not Default ==

 SPIN  (restricted / unrestr.)
    Molecule:                          Restricted                               

 OTHER ASPECTS
    Relativistic Corrections:          ---                                      

    Nuclear Charge Density Model:      Point Charge Nuclei                      
    Core Treatment:                    Frozen Orbital(s)                        

    Hyperfine or Zeeman Interaction:   ---                                      



 =====================================
 S Y M M E T R Y ,   E L E C T R O N S
 =====================================
  
 Symmetry: ATOM

 Irreducible Representations, including subspecies
 -------------------------------------------------
 S
 P:x  P:y  P:z
 D:z2  D:x2-y2  D:xy  D:xz  D:yz
 F:z3  F:z  F:xyz  F:z2x  F:z2y  F:x  F:y


 Configuration of Valence Electrons
 ==================================

          Occupation Numbers
          -------------------------------------------------
 S        2*2
 P        5
 D        0
 F        0
          -------------------------------------------------

 Total:   9

 Net Charge: 0 (Nuclei minus Electrons)

 Preset values for MO occupations will be applied through SCF cycle no. 1000000
 Thereafter, the program will assign electrons to MOs that are spatially
 similar to the occupied MOs in a "reference" cycle ("KeepOrbitals").
 The reference cycle is always the PREVIOUS cycle: it will evolve with
 the SCF procedure.



 ================================
 (Slater-type)  F U N C T I O N S  ***  (Basis and Fit)  ***
 ================================
  

 Atom Type    1  (F)
 ==============

 Valence Basis Sets:  10
 -----------------------
   1 S   10.880000
   1 S    7.700000
   2 S    3.240000
   2 S    1.940000
   2 S    0.740000
   2 P    4.540000
   2 P    2.300000
   2 P    1.240000
   3 D    2.000000
   4 F    3.000000


 BAS: List of all Elementary Cartesian Basis Functions
 =====================================================

 The numbering in the list below (to the right of the function characteristics) is referred
 to in print-outs of MO eigenvectors and Mulliken populations in the BAS representation
 (as contrasted to the SFO representation).

 Notes:
 1. The functions are characterized by a polynomial prefactor (powers of x,y,z and r) and
    an exponential decay factor alpha.
 2. Since the basis sets are specific for an atom TYPE, the individual functions occur on
    all atoms of that type.
 3. The word 'Core' in the left margin signals that it is a Core Function (CF) : not a
    degree of freedom in the valence set, but only used to ensure orthogonalization of
    the other valence basis functions on the frozen Core Orbitals.


 (power of) X  Y  Z  R     Alpha  on Atom
            ==========     =====     ==========

 F                                    1
                                  ---------------------------------------------------------------------------
            0  0  0  0    10.880      1
            0  0  0  0     7.700      2
            0  0  0  1     3.240      3
            0  0  0  1     1.940      4
            0  0  0  1     0.740      5
            1  0  0  0     4.540      6
            0  1  0  0     4.540      7
            0  0  1  0     4.540      8
            1  0  0  0     2.300      9
            0  1  0  0     2.300     10
            0  0  1  0     2.300     11
            1  0  0  0     1.240     12
            0  1  0  0     1.240     13
            0  0  1  0     1.240     14
            2  0  0  0     2.000     15
            1  1  0  0     2.000     16
            1  0  1  0     2.000     17
            0  2  0  0     2.000     18
            0  1  1  0     2.000     19
            0  0  2  0     2.000     20
            3  0  0  0     3.000     21
            2  1  0  0     3.000     22
            2  0  1  0     3.000     23
            1  2  0  0     3.000     24
            1  1  1  0     3.000     25
            1  0  2  0     3.000     26
            0  3  0  0     3.000     27
            0  2  1  0     3.000     28
            0  1  2  0     3.000     29
            0  0  3  0     3.000     30

 Total number of charge fitting functions (nprimf)        85
 Total number of Cartesian basis functions (naos)         30
 Total number of Cartesian core functions  (ncos)          0



 BAS: List of all Elementary Cartesian Basis Functions
 =====================================================

 The numbering in the list below (to the right of the function characteristics) is referred
 to in print-outs of MO eigenvectors and Mulliken populations in the BAS representation
 (as contrasted to the SFO representation).

 Notes:
 1. The functions are characterized by a polynomial prefactor (powers of x,y,z and r) and
    an exponential decay factor alpha.
 2. Since the basis sets are specific for an atom TYPE, the individual functions occur on
    all atoms of that type.
 3. The word 'Core' in the left margin signals that it is a Core Function (CF) : not a
    degree of freedom in the valence set, but only used to ensure orthogonalization of
    the other valence basis functions on the frozen Core Orbitals.


 (power of) X  Y  Z  R     Alpha  on Atom
            ==========     =====     ==========

 F                                    1
                                  ---------------------------------------------------------------------------
            0  0  0  0    10.880      1
            0  0  0  0     7.700      2
            0  0  0  1     3.240      3
            0  0  0  1     1.940      4
            0  0  0  1     0.740      5
            1  0  0  0     4.540      6
            0  1  0  0     4.540      7
            0  0  1  0     4.540      8
            1  0  0  0     2.300      9
            0  1  0  0     2.300     10
            0  0  1  0     2.300     11
            1  0  0  0     1.240     12
            0  1  0  0     1.240     13
            0  0  1  0     1.240     14
            2  0  0  0     2.000     15
            1  1  0  0     2.000     16
            1  0  1  0     2.000     17
            0  2  0  0     2.000     18
            0  1  1  0     2.000     19
            0  0  2  0     2.000     20
            3  0  0  0     3.000     21
            2  1  0  0     3.000     22
            2  0  1  0     3.000     23
            1  2  0  0     3.000     24
            1  1  1  0     3.000     25
            1  0  2  0     3.000     26
            0  3  0  0     3.000     27
            0  2  1  0     3.000     28
            0  1  2  0     3.000     29
            0  0  3  0     3.000     30
1
 ***************************************************************************************************



                                              ***********************
                                              *  T E C H N I C A L  *
                                              ***********************
  



 =============================================================
 P A R A L L E L I Z A T I O N  and  V E C T O R I Z A T I O N
 =============================================================
  
 Nr of parallel processes:                                1
 Maximum vector length in NumInt loops:                 128

 IO buffersize (Mb):                                     64.000000



 =====================
 S C F   U P D A T E S
 =====================
  
 Max. nr. of cycles:                               300
 Convergence criterion:                              0.0000000100
   secondary criterion:                              0.0000000100

 Mix parameter (when DIIS does not apply):           0.2000000000
 Special mix parameter for the first cycle:          1.0000000000
 Mixed ADIIS+DIIS will be used
    Max number of expansion vectors:                10
    Pure ADIIS when Max([F,P]) is above              0.1000000000
    Pure DIIS when Max([F,P]) is below               0.0010000000
 Automatic ElectronSmearing (in case of problematic SCF convergence) disabled



 =================
 P R E C I S I O N  ***  (General: NumInt, NeglectFunctionTails, ...)  ***
 =================
  

 NumInt:           Target precision:                12.0000000000
 -------           Initial precision:               10.0000000000
                   Min. precision (optimization):   10.0000000000

 Neglect Functions:          Basis functions:        0.1000000000E-13
 ------------------          Fit functions:          0.1000000000E-13



 ===========================
 L I N E A R   S C A L I N G
 ===========================
  

 Cut-off radii density fit:                        0.1000000000E-97
 Overlap cut-off criterion AO matrix elements:     0.1000000000E-97
 Cut-offs for Coulomb potential and fitted density:0.1000000000E-97
 Cut-off criterion for Coulomb multipole terms:    0.1000000000E-97
 Progressive Convergence parameter:                 0.000000000    
1
 ***************************************************************************************************



                                            ***************************
                                            *  C O M P U T A T I O N  *
                                            ***************************
  

 Number of elements of the density matrix on this node (used, total):       465       465



 ===========================================
 Numerical Integration : Fuzzy Cells (Becke)
 ===========================================
  
 Becke grid quality: VERYGOOD       
  
 Lebedev angular grid order:             min:  13 max:  41
 Nr. of radial points:                   min:  76 max:  76

 Total nr. of points:         76
 Nr. of blocks:                1
 Block length:                76
 Nr. of dummy points:          0


 Test of Precision of the Numerical Integration Grid
 ===================================================

 Integral of the Total Core Density:                   0.00000000000000



 ========================
 Density Fitting (zlmFit)
 ========================
  
 ZlmFit Fit Quality: VERYGOOD       
  
 Max L-expansion:                        min:   0 max:   0
 Nr. of radial interpolation points:     min: 170 max: 170



 =====
 S C F  ***  ScaSCF  ***
 =====
  

 CYCLE    1
 SCF Error: norm([F,P])=      0.000000000000, max([F,P])=      0.000000000000
 orbitals (Q,E):
 ---------------
 S :1...5            ( 2.00   -40.4878)  ( 2.00   -10.0106)  ( 0.00    -4.4145)  ( 0.00    -2.1243)
                     ( 0.00    34.3132)
 P :1...3            ( 5.00   -10.1248)  ( 0.00    -4.4262)  ( 0.00    -2.4124)
 D :1...1            ( 0.00    -4.0000)
 F :1...1            ( 0.00    -2.2500)

 CYCLE    2
  SDIIS (wt  0.000):  1.0000 -0.0000
 A-DIIS (wt  1.000):  0.0000  1.0000
  DIIS coefficients:  0.0000  1.0000
 SCF Error: norm([F,P])=     11.366807046874, max([F,P])=      4.786714477166
 orbitals (Q,E):
 ---------------
 S :1...3            ( 2.00   -18.8660)  ( 2.00    -0.0141)  ( 0.00     0.3218)
 P :1...2            ( 5.00     0.3783)  ( 0.00     1.5588)
 D :1...1            ( 0.00     1.6967)
 F :1...1            ( 0.00     4.1052)

 CYCLE    3
  SDIIS (wt  0.000):  0.2239  0.7761
 A-DIIS (wt  1.000):  0.4542  0.5458
  DIIS coefficients:  0.4542  0.5458
 SCF Error: norm([F,P])=      5.062506642022, max([F,P])=      3.116912349557
 orbitals (Q,E):
 ---------------
 S :1...3            ( 2.00   -24.7359)  ( 2.00    -1.7711)  ( 0.00    -0.0772)
 P :1...2            ( 5.00    -1.0618)  ( 0.00     0.1929)
 D :1...1            ( 0.00     0.6916)
 F :1...1            ( 0.00     2.8996)

 CYCLE    4
  SDIIS (wt  0.000): -0.0094  0.0979  0.9115
 A-DIIS (wt  1.000):  0.0000  0.0000  1.0000
  DIIS coefficients:  0.0000  0.0000  1.0000
 SCF Error: norm([F,P])=      0.915332743690, max([F,P])=      0.418036336499
 orbitals (Q,E):
 ---------------
 S :1...3            ( 2.00   -23.7112)  ( 2.00    -0.8095)  ( 0.00     0.0811)
 P :1...2            ( 5.00    -0.1423)  ( 0.00     0.5905)
 D :1...1            ( 0.00     1.2497)
 F :1...1            ( 0.00     3.5688)

 CYCLE    5
  SDIIS (wt  0.000):  0.0170 -0.0338  0.5367  0.4801
 A-DIIS (wt  1.000):  0.0000  0.0000  0.6344  0.3656
  DIIS coefficients:  0.0000  0.0000  0.6344  0.3656
 SCF Error: norm([F,P])=      1.439654470617, max([F,P])=      0.706558546879
 orbitals (Q,E):
 ---------------
 S :1...3            ( 2.00   -24.3297)  ( 2.00    -1.0726)  ( 0.00     0.0448)
 P :1...2            ( 5.00    -0.3850)  ( 0.00     0.4575)
 D :1...1            ( 0.00     1.1278)
 F :1...1            ( 0.00     3.4231)

 CYCLE    6
  SDIIS (wt  0.483):  0.0017  0.0034  0.0435 -0.0489  1.0002
 A-DIIS (wt  0.517):  0.0000  0.0000  0.0000  0.0000  1.0000
  DIIS coefficients:  0.0008  0.0017  0.0210 -0.0236  1.0001
 SCF Error: norm([F,P])=      0.109235069103, max([F,P])=      0.052218948592
 orbitals (Q,E):
 ---------------
 S :1...3            ( 2.00   -24.4107)  ( 2.00    -1.1166)  ( 0.00     0.0362)
 P :1...2            ( 5.00    -0.4289)  ( 0.00     0.4327)
 D :1...1            ( 0.00     1.1045)
 F :1...1            ( 0.00     3.3981)

 CYCLE    7
  SDIIS (wt  0.662): -0.0005  0.0003  0.0103  0.0176  0.2722  0.7000
 A-DIIS (wt  0.338):  0.0000  0.0000  0.0000  0.0000  0.3258  0.6742
  DIIS coefficients: -0.0003  0.0002  0.0068  0.0117  0.2903  0.6913
 SCF Error: norm([F,P])=      0.072774709458, max([F,P])=      0.034471293171
 orbitals (Q,E):
 ---------------
 S :1...3            ( 2.00   -24.3699)  ( 2.00    -1.1001)  ( 0.00     0.0383)
 P :1...2            ( 5.00    -0.4128)  ( 0.00     0.4396)
 D :1...1            ( 0.00     1.1115)
 F :1...1            ( 0.00     3.4065)

 CYCLE    8
  SDIIS (wt  0.986): -0.0000  0.0000 -0.0001  0.0005 -0.0030  0.0719  0.9307
 A-DIIS (wt  0.014):  0.0000  0.0000  0.0000  0.0000  0.0000  0.0000  1.0000
  DIIS coefficients: -0.0000  0.0000 -0.0001  0.0004 -0.0029  0.0708  0.9317
 SCF Error: norm([F,P])=      0.005098543025, max([F,P])=      0.002387341981
 orbitals (Q,E):
 ---------------
 S :1...3            ( 2.00   -24.3725)  ( 2.00    -1.1013)  ( 0.00     0.0381)
 P :1...2            ( 5.00    -0.4138)  ( 0.00     0.4390)
 D :1...1            ( 0.00     1.1110)
 F :1...1            ( 0.00     3.4060)

 CYCLE    9
  SDIIS (wt  1.000): -0.0000 -0.0000  0.0000  0.0000 -0.0003 -0.0039 -0.0267  1.0309
  DIIS coefficients: -0.0000 -0.0000  0.0000  0.0000 -0.0003 -0.0039 -0.0267  1.0309
 SCF Error: norm([F,P])=      0.000121120604, max([F,P])=      0.000057048180
 orbitals (Q,E):
 ---------------
 S :1...3            ( 2.00   -24.3724)  ( 2.00    -1.1012)  ( 0.00     0.0381)
 P :1...2            ( 5.00    -0.4138)  ( 0.00     0.4390)
 D :1...1            ( 0.00     1.1110)
 F :1...1            ( 0.00     3.4060)

 CYCLE   10
  SDIIS (wt  1.000): -0.0000  0.0000  0.0000 -0.0050  1.0049
  DIIS coefficients: -0.0000  0.0000  0.0000 -0.0050  1.0049
 SCF Error: norm([F,P])=      0.000000298793, max([F,P])=      0.000000129719
 orbitals (Q,E):
 ---------------
 S :1...3            ( 2.00   -24.3724)  ( 2.00    -1.1012)  ( 0.00     0.0381)
 P :1...2            ( 5.00    -0.4138)  ( 0.00     0.4390)
 D :1...1            ( 0.00     1.1110)
 F :1...1            ( 0.00     3.4060)

 CYCLE   11
  SDIIS (wt  1.000): -0.0000 -0.0000  0.0041  0.9959
  DIIS coefficients: -0.0000 -0.0000  0.0041  0.9959
 SCF Error: norm([F,P])=      0.000000001288, max([F,P])=      0.000000000637
 orbitals (Q,E):
 ---------------
 S :1...3            ( 2.00   -24.3724)  ( 2.00    -1.1012)  ( 0.00     0.0381)
 P :1...2            ( 5.00    -0.4138)  ( 0.00     0.4390)
 D :1...1            ( 0.00     1.1110)
 F :1...1            ( 0.00     3.4060)

 SCF CONVERGED

 CYCLE   12
1
 ***************************************************************************************************



                                                *******************
                                                *  R E S U L T S  *
                                                *******************
  
 *** Setting up for NEW gradients in Focky
 *** Using FIT density in Focky

 Orbital Energies, per Irrep and Spin:
 ======================================
                        Occup              E (au)              E (eV)       Diff (eV) with prev. cycle
                        -----      --------------------        ------       --------------------------
 S
               1        2.000     -0.24372431090650E+02      -663.208              -3.15E-10
               2        2.000     -0.11012301230106E+01       -29.966              -2.12E-10
               3        0.000      0.38053055497926E-01         1.035
               4        0.000      0.15769745383200E+01        42.912
               5        0.000      0.48393976780801E+02      1316.867
 P
               1        5.000     -0.41382455341580E+00       -11.261              -2.04E-10
               2        0.000      0.43895544717991E+00        11.945
               3        0.000      0.45765047100158E+01       124.533
 D
               1        0.000      0.11110247405645E+01        30.233
 F
               1        0.000      0.34059736565337E+01        92.681


 Partially Occupied:
               1 P                -0.41382455341580E+00
  
 HOMO :        2 S                -0.11012301230106E+01
 LUMO :        3 S                 0.38053055497926E-01
  


 Orbital Energies, all Irreps
 ========================================

 Irrep        no.  (spin)   Occup              E (au)                E (eV)
 ---------------------------------------------------------------------------
 S             1             2.00       -0.24372431090650E+02      -663.2076
 S             2             2.00       -0.11012301230106E+01       -29.9660
 P             1             5.00       -0.41382455341580E+00       -11.2607
 S             3             0.00        0.38053055497926E-01         1.0355
 P             2             0.00        0.43895544717991E+00        11.9446
 D             1             0.00        0.11110247405645E+01        30.2325
 S             4             0.00        0.15769745383200E+01        42.9117
 F             1             0.00        0.34059736565337E+01        92.6813
 P             3             0.00        0.45765047100158E+01       124.5330
 S             5             0.00        0.48393976780801E+02      1316.8671


 All Electron Calculation, thus no Orbital Energies of the Core Orbitals are calculated



 =======================================
 M U L L I K E N   P O P U L A T I O N S
 =======================================
  
 The survey below gives for each atom:
 a) the total charge (Z minus electrons)
 b) the net spin polarization (nr of electrons spin-A minus spin-B)
 c) for each spin the atomic electron valence density (integrated) per L-value.

 Atom              Charge    Spin density          S         P         D         F
 ----              ------    ------------       ------    ------    ------    ------
 1 F               0.0000                       4.0000    5.0000    0.0000    0.0000

 Populations of individual BAS functions
 ----------------------------------------
 1 F            0.5752  1.4002  1.1420  0.8859 -0.0033  0.3584  0.3584  0.3584  0.9321  0.9321
                0.9321  0.3762  0.3762  0.3762  0.0000  0.0000  0.0000  0.0000  0.0000  0.0000
                0.0000  0.0000  0.0000  0.0000  0.0000  0.0000  0.0000  0.0000  0.0000  0.0000

 Gross Charges per Atom (Z minus electrons)
 ==========================================
             0.0000
 Net Total:  0.00000000



 =======================================================================
 Electrostatic potential at the Nuclei due to electrons and other nuclei
 =======================================================================
  
         Atom                  Potential
         ----                  ---------
     1)   F                  26.50819361
 
 
 ========================
 No memory problems found
 ========================
 
 Maximum number of active allocate calls:         447
 
 *******************************************************************************

                             A D F   E X I T
 NORMAL TERMINATION



 =================
 Timing Statistics
 =================
  
 Total Used :                     CPU=        0.48      System=        0.03     Elapsed=        0.51

 Calls  Section                     ( Mean, Percentage )
 ---------------------------------------------------------------------------------------------------
     3  ><      ................      0.00    0.00             0.00    0.00             0.00    0.16
     1  INIT    ................      0.01    1.47             0.02   60.00             0.03    5.64
     1  GEOMET  ................      0.01    1.26             0.00    8.57             0.01    1.75
     1  INPUTA  ................      0.00    0.42             0.00    0.00             0.00    0.30
     1  MAINSY  ................      0.00    0.84             0.00    5.72             0.01    1.24
     1  SYMFIT  ................      0.00    0.21             0.00    0.00             0.00    0.17
     1  CORORT  ................      0.00    0.21             0.00    0.00             0.00    0.05
     1  SYMORB  ................      0.00    0.00             0.00    0.00             0.00    0.13
     1  CLSMAT  ................      0.00    0.84             0.00    2.86             0.01    1.03
     1  ORTHON  ................      0.00    0.42             0.00    0.00             0.00    0.29
     1  GENPT   ................      0.01    2.94             0.00    2.86             0.01    2.90
     1  PTBAS   ................      0.00    0.63             0.00    0.00             0.00    0.68
    12  FOCKY   ................      0.03   75.84             0.00   11.43             0.03   71.05
    12  FOCKTR  ................      0.00    1.68             0.00    2.86             0.00    1.91
    12  SDIIS   ................      0.00    3.78             0.00    2.86             0.00    3.70
     1  COREPS  ................      0.02    4.62             0.00    0.00             0.02    4.28
     1  POPAN   ................      0.00    1.05             0.00    0.00             0.01    1.02
     1  DEBYE   ................      0.00    0.00             0.00    0.00             0.00    0.11
     1  EXIT PROCEDURE .........      0.02    3.78             0.00    2.86             0.02    3.59


 Currently Open Files (EXIT00)
 ====================

 Unit    Access Format  Status   Type       Ident (file)
 -------------------------------------------------------
   3      SEQ    FORM   TRANSP  NORMAL      LOGFILE
                                          ( logfile )


 Buffered I/O statistics
 =======================
 Memory available:                     67108864
 Number of records fitting in memory:     16131
 Input :   0.1% of                        26750  *4k bytes
 Output:  13.7% of                         1369  *4k bytes
 Records from serial files evicted:           0
                    others evicted:           0
 Hash table lookups:      69057 with          0 conflicts (  0.00%)

 ***************************************************************************************************
 (LOGFILE)
 <Apr18-2019> <21:57:02>  ADF development version  RunTime: Apr18-2019 21:57:02  Nodes: 1  Procs: 1
 <Apr18-2019> <21:57:02>  Fluorine (TZ2P)
 <Apr18-2019> <21:57:02>  RunType   : CREATE
 <Apr18-2019> <21:57:02>  Net Charge: 0 (Nuclei minus Electrons)
 <Apr18-2019> <21:57:02>  Symmetry  : ATOM
  Coordinates
    Atom         X           Y           Z   (Angstrom)
    1.F         0.000000    0.000000    0.000000
 <Apr18-2019> <21:57:02>  >>>> CORORT
 <Apr18-2019> <21:57:02>  >>>> CLSMAT
 <Apr18-2019> <21:57:02>  >>>> ORTHON
 <Apr18-2019> <21:57:02>  >>>> GENPT
 <Apr18-2019> <21:57:02>  Block Length=  76
 <Apr18-2019> <21:57:02>  >>>> PTBAS
 <Apr18-2019> <21:57:02>  >>>> CYCLE
 <Apr18-2019> <21:57:02>              |Error|         MaxErr       Wt(A-DIIS)
 <Apr18-2019> <21:57:02>      1      0.00000000      0.00000000
 <Apr18-2019> <21:57:02>      2     11.36680705      4.78671448    100.0
 <Apr18-2019> <21:57:02>      3      5.06250664      3.11691235    100.0
 <Apr18-2019> <21:57:02>      4      0.91533274      0.41803634    100.0
 <Apr18-2019> <21:57:02>      5      1.43965447      0.70655855    100.0
 <Apr18-2019> <21:57:02>      6      0.10923507      0.05221895     51.7
 <Apr18-2019> <21:57:02>      7      0.07277471      0.03447129     33.8
 <Apr18-2019> <21:57:02>      8      0.00509854      0.00238734      1.4
 <Apr18-2019> <21:57:02>      9      0.00012112      0.00005705      0.0
 <Apr18-2019> <21:57:02>     10      0.00000030      0.00000013      0.0
 <Apr18-2019> <21:57:02>     11      0.00000000      0.00000000      0.0
 <Apr18-2019> <21:57:02>  SCF converged
 <Apr18-2019> <21:57:02>     12      0.00000000      0.00000000      0.0
 <Apr18-2019> <21:57:02>  >>>> POPAN
 <Apr18-2019> <21:57:02>  >>>> DEBYE
 <Apr18-2019> <21:57:02>  NORMAL TERMINATION
 <Apr18-2019> <21:57:02>  END

Create B   file=TZ2P-B
XC
  GGA BP86
End
End Input

 *******************************************************************************
 *                                                                             *
 *  -------------------------------------                                      *
 *   Amsterdam Density Functional  (ADF)         development version           *
 *  -------------------------------------                                      *
 *                                               r61132 2017-09-08             *
 *                                                                             *
 *                                                                             *
 *                              =================                              *
 *                              |               |                              *
 *                              |     A D F     |                              *
 *                              |               |                              *
 *                              =================                              *
 *                                                                             *
 *                                                                             *
 *   Online information and documentation:  https://www.scm.com/support/       *
 *   E-mail:  support@scm.com   info@scm.com                                   *
 *                                                                             *
 *   Scientific publications using ADF results must be properly referenced     *
 *   See the User Manuals (or the web site) for recommended citations          *
 *   The terms and conditions of the End User License Agreement apply to       *
 *   the use of ADF, https://www.scm.com/license-terms/                        *
 *                                                                             *
 **********************  x86_64_linux_intel / intelmpi  ************************
 
 Licensed to: VU/FEW (+ SARA) / ALGEMEEN / Amsterdam / THE NETHERLANDS
 SCM User ID: u7668
  
 ADF development version  RunTime: Apr18-2019 21:57:02  Nodes: 1  Procs: 1

 Temporary files are created in /local/datastore0/tcst25/186810/kid_0.ilEQFN

 Boron (TZ2P)



 ===========================
 A T T A C H E D   F I L E S
 ===========================
  
 CREATE - Data File:    TZ2P-B
                        Boron (TZ2P)



 ===============================
 M O D E L   P A R A M E T E R S
 ===============================
  
 DENSITY FUNCTIONAL POTENTIAL (scf)
    LDA:                               VWN                                      
    Gradient Corrections:              Becke88 Perdew86                        == Not Default ==

 SPIN  (restricted / unrestr.)
    Molecule:                          Restricted                               

 OTHER ASPECTS
    Relativistic Corrections:          ---                                      

    Nuclear Charge Density Model:      Point Charge Nuclei                      
    Core Treatment:                    Frozen Orbital(s)                        

    Hyperfine or Zeeman Interaction:   ---                                      



 =====================================
 S Y M M E T R Y ,   E L E C T R O N S
 =====================================
  
 Symmetry: ATOM

 Irreducible Representations, including subspecies
 -------------------------------------------------
 S
 P:x  P:y  P:z
 D:z2  D:x2-y2  D:xy  D:xz  D:yz
 F:z3  F:z  F:xyz  F:z2x  F:z2y  F:x  F:y


 Configuration of Valence Electrons
 ==================================

          Occupation Numbers
          -------------------------------------------------
 S        2*2
 P        1
 D        0
 F        0
          -------------------------------------------------

 Total:   5

 Net Charge: 0 (Nuclei minus Electrons)

 Preset values for MO occupations will be applied through SCF cycle no. 1000000
 Thereafter, the program will assign electrons to MOs that are spatially
 similar to the occupied MOs in a "reference" cycle ("KeepOrbitals").
 The reference cycle is always the PREVIOUS cycle: it will evolve with
 the SCF procedure.



 ================================
 (Slater-type)  F U N C T I O N S  ***  (Basis and Fit)  ***
 ================================
  

 Atom Type    1  (B)
 ==============

 Valence Basis Sets:  10
 -----------------------
   1 S    6.500000
   1 S    4.080000
   2 S    2.800000
   2 S    1.700000
   2 S    1.040000
   2 P    2.600000
   2 P    1.260000
   2 P    0.680000
   3 D    2.000000
   4 F    3.000000


 BAS: List of all Elementary Cartesian Basis Functions
 =====================================================

 The numbering in the list below (to the right of the function characteristics) is referred
 to in print-outs of MO eigenvectors and Mulliken populations in the BAS representation
 (as contrasted to the SFO representation).

 Notes:
 1. The functions are characterized by a polynomial prefactor (powers of x,y,z and r) and
    an exponential decay factor alpha.
 2. Since the basis sets are specific for an atom TYPE, the individual functions occur on
    all atoms of that type.
 3. The word 'Core' in the left margin signals that it is a Core Function (CF) : not a
    degree of freedom in the valence set, but only used to ensure orthogonalization of
    the other valence basis functions on the frozen Core Orbitals.


 (power of) X  Y  Z  R     Alpha  on Atom
            ==========     =====     ==========

 B                                    1
                                  ---------------------------------------------------------------------------
            0  0  0  0     6.500      1
            0  0  0  0     4.080      2
            0  0  0  1     2.800      3
            0  0  0  1     1.700      4
            0  0  0  1     1.040      5
            1  0  0  0     2.600      6
            0  1  0  0     2.600      7
            0  0  1  0     2.600      8
            1  0  0  0     1.260      9
            0  1  0  0     1.260     10
            0  0  1  0     1.260     11
            1  0  0  0     0.680     12
            0  1  0  0     0.680     13
            0  0  1  0     0.680     14
            2  0  0  0     2.000     15
            1  1  0  0     2.000     16
            1  0  1  0     2.000     17
            0  2  0  0     2.000     18
            0  1  1  0     2.000     19
            0  0  2  0     2.000     20
            3  0  0  0     3.000     21
            2  1  0  0     3.000     22
            2  0  1  0     3.000     23
            1  2  0  0     3.000     24
            1  1  1  0     3.000     25
            1  0  2  0     3.000     26
            0  3  0  0     3.000     27
            0  2  1  0     3.000     28
            0  1  2  0     3.000     29
            0  0  3  0     3.000     30

 Total number of charge fitting functions (nprimf)        84
 Total number of Cartesian basis functions (naos)         30
 Total number of Cartesian core functions  (ncos)          0



 BAS: List of all Elementary Cartesian Basis Functions
 =====================================================

 The numbering in the list below (to the right of the function characteristics) is referred
 to in print-outs of MO eigenvectors and Mulliken populations in the BAS representation
 (as contrasted to the SFO representation).

 Notes:
 1. The functions are characterized by a polynomial prefactor (powers of x,y,z and r) and
    an exponential decay factor alpha.
 2. Since the basis sets are specific for an atom TYPE, the individual functions occur on
    all atoms of that type.
 3. The word 'Core' in the left margin signals that it is a Core Function (CF) : not a
    degree of freedom in the valence set, but only used to ensure orthogonalization of
    the other valence basis functions on the frozen Core Orbitals.


 (power of) X  Y  Z  R     Alpha  on Atom
            ==========     =====     ==========

 B                                    1
                                  ---------------------------------------------------------------------------
            0  0  0  0     6.500      1
            0  0  0  0     4.080      2
            0  0  0  1     2.800      3
            0  0  0  1     1.700      4
            0  0  0  1     1.040      5
            1  0  0  0     2.600      6
            0  1  0  0     2.600      7
            0  0  1  0     2.600      8
            1  0  0  0     1.260      9
            0  1  0  0     1.260     10
            0  0  1  0     1.260     11
            1  0  0  0     0.680     12
            0  1  0  0     0.680     13
            0  0  1  0     0.680     14
            2  0  0  0     2.000     15
            1  1  0  0     2.000     16
            1  0  1  0     2.000     17
            0  2  0  0     2.000     18
            0  1  1  0     2.000     19
            0  0  2  0     2.000     20
            3  0  0  0     3.000     21
            2  1  0  0     3.000     22
            2  0  1  0     3.000     23
            1  2  0  0     3.000     24
            1  1  1  0     3.000     25
            1  0  2  0     3.000     26
            0  3  0  0     3.000     27
            0  2  1  0     3.000     28
            0  1  2  0     3.000     29
            0  0  3  0     3.000     30
1
 ***************************************************************************************************



                                              ***********************
                                              *  T E C H N I C A L  *
                                              ***********************
  



 =============================================================
 P A R A L L E L I Z A T I O N  and  V E C T O R I Z A T I O N
 =============================================================
  
 Nr of parallel processes:                                1
 Maximum vector length in NumInt loops:                 128

 IO buffersize (Mb):                                     64.000000



 =====================
 S C F   U P D A T E S
 =====================
  
 Max. nr. of cycles:                               300
 Convergence criterion:                              0.0000000100
   secondary criterion:                              0.0000000100

 Mix parameter (when DIIS does not apply):           0.2000000000
 Special mix parameter for the first cycle:          1.0000000000
 Mixed ADIIS+DIIS will be used
    Max number of expansion vectors:                10
    Pure ADIIS when Max([F,P]) is above              0.1000000000
    Pure DIIS when Max([F,P]) is below               0.0010000000
 Automatic ElectronSmearing (in case of problematic SCF convergence) disabled



 =================
 P R E C I S I O N  ***  (General: NumInt, NeglectFunctionTails, ...)  ***
 =================
  

 NumInt:           Target precision:                12.0000000000
 -------           Initial precision:               10.0000000000
                   Min. precision (optimization):   10.0000000000

 Neglect Functions:          Basis functions:        0.1000000000E-13
 ------------------          Fit functions:          0.1000000000E-13



 ===========================
 L I N E A R   S C A L I N G
 ===========================
  

 Cut-off radii density fit:                        0.1000000000E-97
 Overlap cut-off criterion AO matrix elements:     0.1000000000E-97
 Cut-offs for Coulomb potential and fitted density:0.1000000000E-97
 Cut-off criterion for Coulomb multipole terms:    0.1000000000E-97
 Progressive Convergence parameter:                 0.000000000    
1
 ***************************************************************************************************



                                            ***************************
                                            *  C O M P U T A T I O N  *
                                            ***************************
  

 Number of elements of the density matrix on this node (used, total):       465       465



 ===========================================
 Numerical Integration : Fuzzy Cells (Becke)
 ===========================================
  
 Becke grid quality: VERYGOOD       
  
 Lebedev angular grid order:             min:  13 max:  41
 Nr. of radial points:                   min:  76 max:  76

 Total nr. of points:         76
 Nr. of blocks:                1
 Block length:                76
 Nr. of dummy points:          0


 Test of Precision of the Numerical Integration Grid
 ===================================================

 Integral of the Total Core Density:                   0.00000000000000



 ========================
 Density Fitting (zlmFit)
 ========================
  
 ZlmFit Fit Quality: VERYGOOD       
  
 Max L-expansion:                        min:   0 max:   0
 Nr. of radial interpolation points:     min: 160 max: 160



 =====
 S C F  ***  ScaSCF  ***
 =====
  

 CYCLE    1
 SCF Error: norm([F,P])=      0.000000000000, max([F,P])=      0.000000000000
 orbitals (Q,E):
 ---------------
 S :1...5            ( 2.00   -12.4973)  ( 2.00    -3.1204)  ( 0.00    -1.3604)  ( 0.00    -0.2943)
                     ( 0.00    21.5464)
 P :1...3            ( 1.00    -3.1235)  ( 0.00    -1.3596)  ( 0.00    -0.7394)
 D :1...1            ( 0.00    -1.3333)
 F :1...1            ( 0.00     0.7500)

 CYCLE    2
  SDIIS (wt  0.000):  1.0000  0.0000
 A-DIIS (wt  1.000):  0.0000  1.0000
  DIIS coefficients:  0.0000  1.0000
 SCF Error: norm([F,P])=      3.206930624403, max([F,P])=      2.044237717286
 orbitals (Q,E):
 ---------------
 S :1...3            ( 2.00    -5.1374)  ( 2.00    -0.0371)  ( 0.00     0.4555)
 P :1...2            ( 1.00     0.0686)  ( 0.00     0.3929)
 D :1...1            ( 0.00     1.4209)
 F :1...1            ( 0.00     3.7855)

 CYCLE    3
  SDIIS (wt  0.000):  0.1983  0.8017
 A-DIIS (wt  1.000):  0.0000  1.0000
  DIIS coefficients:  0.0000  1.0000
 SCF Error: norm([F,P])=      1.040807263909, max([F,P])=      0.886703810621
 orbitals (Q,E):
 ---------------
 S :1...3            ( 2.00    -7.3692)  ( 2.00    -0.6224)  ( 0.00     0.0443)
 P :1...2            ( 1.00    -0.4031)  ( 0.00     0.0084)
 D :1...1            ( 0.00     0.7598)
 F :1...1            ( 0.00     3.0368)

 CYCLE    4
  SDIIS (wt  0.000): -0.0590  0.2096  0.8494
 A-DIIS (wt  1.000):  0.0000  0.0000  1.0000
  DIIS coefficients:  0.0000  0.0000  1.0000
 SCF Error: norm([F,P])=      0.442042017553, max([F,P])=      0.386566792489
 orbitals (Q,E):
 ---------------
 S :1...3            ( 2.00    -6.3214)  ( 2.00    -0.2478)  ( 0.00     0.2723)
 P :1...2            ( 1.00    -0.0468)  ( 0.00     0.1916)
 D :1...1            ( 0.00     1.1452)
 F :1...1            ( 0.00     3.4686)

 CYCLE    5
  SDIIS (wt  0.000): -0.0164 -0.0293  0.3638  0.6819
 A-DIIS (wt  1.000):  0.0000  0.0000  0.0966  0.9034
  DIIS coefficients:  0.0000  0.0000  0.0966  0.9034
 SCF Error: norm([F,P])=      0.215593907540, max([F,P])=      0.197107993768
 orbitals (Q,E):
 ---------------
 S :1...3            ( 2.00    -6.7835)  ( 2.00    -0.4032)  ( 0.00     0.1648)
 P :1...2            ( 1.00    -0.1843)  ( 0.00     0.0973)
 D :1...1            ( 0.00     0.9774)
 F :1...1            ( 0.00     3.2785)

 CYCLE    6
  SDIIS (wt  0.212):  0.0014 -0.0175 -0.0520  0.2997  0.7685
 A-DIIS (wt  0.788):  0.0000  0.0000  0.0000  0.0000  1.0000
  DIIS coefficients:  0.0003 -0.0037 -0.0110  0.0634  0.9510
 SCF Error: norm([F,P])=      0.087896467660, max([F,P])=      0.079060506992
 orbitals (Q,E):
 ---------------
 S :1...3            ( 2.00    -6.5865)  ( 2.00    -0.3297)  ( 0.00     0.2120)
 P :1...2            ( 1.00    -0.1166)  ( 0.00     0.1383)
 D :1...1            ( 0.00     1.0553)
 F :1...1            ( 0.00     3.3662)

 CYCLE    7
  SDIIS (wt  0.645): -0.0002  0.0016 -0.0012 -0.0706  0.2336  0.8367
 A-DIIS (wt  0.355):  0.0000  0.0000  0.0000  0.0000  0.0000  1.0000
  DIIS coefficients: -0.0001  0.0010 -0.0008 -0.0456  0.1508  0.8946
 SCF Error: norm([F,P])=      0.039810040971, max([F,P])=      0.036102929289
 orbitals (Q,E):
 ---------------
 S :1...3            ( 2.00    -6.6597)  ( 2.00    -0.3558)  ( 0.00     0.1943)
 P :1...2            ( 1.00    -0.1403)  ( 0.00     0.1227)
 D :1...1            ( 0.00     1.0274)
 F :1...1            ( 0.00     3.3347)

 CYCLE    8
  SDIIS (wt  0.936):  0.0000 -0.0000  0.0001  0.0045 -0.0468  0.0722  0.9699
 A-DIIS (wt  0.064):  0.0000  0.0000  0.0000  0.0000  0.0000  0.0000  1.0000
  DIIS coefficients:  0.0000 -0.0000  0.0001  0.0042 -0.0438  0.0676  0.9718
 SCF Error: norm([F,P])=      0.008085664981, max([F,P])=      0.007315306127
 orbitals (Q,E):
 ---------------
 S :1...3            ( 2.00    -6.6469)  ( 2.00    -0.3512)  ( 0.00     0.1973)
 P :1...2            ( 1.00    -0.1360)  ( 0.00     0.1254)
 D :1...1            ( 0.00     1.0323)
 F :1...1            ( 0.00     3.3402)

 CYCLE    9
  SDIIS (wt  1.000): -0.0000 -0.0000  0.0000 -0.0000  0.0014 -0.0057 -0.0076  1.0119
  DIIS coefficients: -0.0000 -0.0000  0.0000 -0.0000  0.0014 -0.0057 -0.0076  1.0119
 SCF Error: norm([F,P])=      0.000296891091, max([F,P])=      0.000268546514
 orbitals (Q,E):
 ---------------
 S :1...3            ( 2.00    -6.6473)  ( 2.00    -0.3513)  ( 0.00     0.1972)
 P :1...2            ( 1.00    -0.1362)  ( 0.00     0.1253)
 D :1...1            ( 0.00     1.0321)
 F :1...1            ( 0.00     3.3400)

 CYCLE   10
  SDIIS (wt  1.000): -0.0000 -0.0000  0.0000  0.0000 -0.0003 -0.0005  0.0184  0.9824
  DIIS coefficients: -0.0000 -0.0000  0.0000  0.0000 -0.0003 -0.0005  0.0184  0.9824
 SCF Error: norm([F,P])=      0.000000323230, max([F,P])=      0.000000256951
 orbitals (Q,E):
 ---------------
 S :1...3            ( 2.00    -6.6473)  ( 2.00    -0.3513)  ( 0.00     0.1972)
 P :1...2            ( 1.00    -0.1362)  ( 0.00     0.1253)
 D :1...1            ( 0.00     1.0321)
 F :1...1            ( 0.00     3.3400)

 CYCLE   11
  SDIIS (wt  1.000): -0.0000  0.0000  0.0002  0.0044  0.9954
  DIIS coefficients: -0.0000  0.0000  0.0002  0.0044  0.9954
 SCF Error: norm([F,P])=      0.000000003188, max([F,P])=      0.000000002647
 orbitals (Q,E):
 ---------------
 S :1...3            ( 2.00    -6.6473)  ( 2.00    -0.3513)  ( 0.00     0.1972)
 P :1...2            ( 1.00    -0.1362)  ( 0.00     0.1253)
 D :1...1            ( 0.00     1.0321)
 F :1...1            ( 0.00     3.3400)

 SCF CONVERGED

 CYCLE   12
1
 ***************************************************************************************************



                                                *******************
                                                *  R E S U L T S  *
                                                *******************
  
 *** Setting up for NEW gradients in Focky
 *** Using FIT density in Focky

 Orbital Energies, per Irrep and Spin:
 ======================================
                        Occup              E (au)              E (eV)       Diff (eV) with prev. cycle
                        -----      --------------------        ------       --------------------------
 S
               1        2.000     -0.66473159094863E+01      -180.883              -6.83E-09
               2        2.000     -0.35134921977183E+00        -9.561              -4.00E-09
               3        0.000      0.19724151702901E+00         5.367
               4        0.000      0.25814438752340E+01        70.245
               5        0.000      0.26826620261348E+02       729.989
 P
               1        1.000     -0.13617927732071E+00        -3.706              -3.70E-09
               2        0.000      0.12531170360136E+00         3.410
               3        0.000      0.16747264371451E+01        45.572
 D
               1        0.000      0.10321145268327E+01        28.085
 F
               1        0.000      0.33400309304585E+01        90.887


 Partially Occupied:
               1 P                -0.13617927732071E+00
  
 HOMO :        2 S                -0.35134921977183E+00
 LUMO :        2 P                 0.12531170360136E+00
  


 Orbital Energies, all Irreps
 ========================================

 Irrep        no.  (spin)   Occup              E (au)                E (eV)
 ---------------------------------------------------------------------------
 S             1             2.00       -0.66473159094863E+01      -180.8827
 S             2             2.00       -0.35134921977183E+00        -9.5607
 P             1             1.00       -0.13617927732071E+00        -3.7056
 P             2             0.00        0.12531170360136E+00         3.4099
 S             3             0.00        0.19724151702901E+00         5.3672
 D             1             0.00        0.10321145268327E+01        28.0853
 P             3             0.00        0.16747264371451E+01        45.5716
 S             4             0.00        0.25814438752340E+01        70.2447
 F             1             0.00        0.33400309304585E+01        90.8869
 S             5             0.00        0.26826620261348E+02       729.9895


 All Electron Calculation, thus no Orbital Energies of the Core Orbitals are calculated



 =======================================
 M U L L I K E N   P O P U L A T I O N S
 =======================================
  
 The survey below gives for each atom:
 a) the total charge (Z minus electrons)
 b) the net spin polarization (nr of electrons spin-A minus spin-B)
 c) for each spin the atomic electron valence density (integrated) per L-value.

 Atom              Charge    Spin density          S         P         D         F
 ----              ------    ------------       ------    ------    ------    ------
 1 B              -0.0000                       4.0000    1.0000    0.0000    0.0000

 Populations of individual BAS functions
 ----------------------------------------
 1 B            0.4730  1.5255 -0.1291  1.2093  0.9214  0.0290  0.0290  0.0290  0.1965  0.1965
                0.1965  0.1078  0.1078  0.1078  0.0000  0.0000  0.0000  0.0000  0.0000  0.0000
                0.0000  0.0000  0.0000  0.0000  0.0000  0.0000  0.0000  0.0000  0.0000  0.0000

 Gross Charges per Atom (Z minus electrons)
 ==========================================
            -0.0000
 Net Total: -0.00000000



 =======================================================================
 Electrostatic potential at the Nuclei due to electrons and other nuclei
 =======================================================================
  
         Atom                  Potential
         ----                  ---------
     1)   B                  11.37741465
 
 
 ========================
 No memory problems found
 ========================
 
 Maximum number of active allocate calls:         447
 
 *******************************************************************************

                             A D F   E X I T
 NORMAL TERMINATION



 =================
 Timing Statistics
 =================
  
 Total Used :                     CPU=        0.46      System=        0.03     Elapsed=        0.49

 Calls  Section                     ( Mean, Percentage )
 ---------------------------------------------------------------------------------------------------
     3  ><      ................      0.00    0.22             0.00    0.00             0.00    0.16
     1  INIT    ................      0.01    2.16             0.01   46.43             0.03    5.18
     1  GEOMET  ................      0.00    0.86             0.00   14.29             0.01    1.69
     1  INPUTA  ................      0.00    0.43             0.00    0.00             0.00    0.31
     1  MAINSY  ................      0.00    1.08             0.00    3.57             0.01    1.21
     1  SYMFIT  ................      0.00    0.00             0.00    0.00             0.00    0.16
     1  CORORT  ................      0.00    0.22             0.00    0.00             0.00    0.06
     1  SYMORB  ................      0.00    0.00             0.00    0.00             0.00    0.14
     1  CLSMAT  ................      0.01    1.29             0.00    0.00             0.01    1.06
     1  ORTHON  ................      0.00    0.22             0.00    0.00             0.00    0.33
     1  GENPT   ................      0.01    3.23             0.00    0.00             0.01    3.00
     1  PTBAS   ................      0.00    0.65             0.00    0.00             0.00    0.70
    12  FOCKY   ................      0.03   74.57             0.00   14.28             0.03   70.82
    12  FOCKTR  ................      0.00    1.94             0.00    3.57             0.00    2.03
    12  SDIIS   ................      0.00    4.09             0.00    7.14             0.00    3.99
     1  COREPS  ................      0.02    4.31             0.00    3.57             0.02    4.25
     1  POPAN   ................      0.00    0.86             0.00    3.57             0.01    1.06
     1  DEBYE   ................      0.00    0.22             0.00    0.00             0.00    0.11
     1  EXIT PROCEDURE .........      0.02    3.66             0.00    3.57             0.02    3.74


 Currently Open Files (EXIT00)
 ====================

 Unit    Access Format  Status   Type       Ident (file)
 -------------------------------------------------------
   3      SEQ    FORM   TRANSP  NORMAL      LOGFILE
                                          ( logfile )


 Buffered I/O statistics
 =======================
 Memory available:                     67108864
 Number of records fitting in memory:     16131
 Input :   0.1% of                        26729  *4k bytes
 Output:  13.8% of                         1360  *4k bytes
 Records from serial files evicted:           0
                    others evicted:           0
 Hash table lookups:      69030 with          0 conflicts (  0.00%)

 ***************************************************************************************************
 (LOGFILE)
 <Apr18-2019> <21:57:02>  ADF development version  RunTime: Apr18-2019 21:57:02  Nodes: 1  Procs: 1
 <Apr18-2019> <21:57:02>  Fluorine (TZ2P)
 <Apr18-2019> <21:57:02>  RunType   : CREATE
 <Apr18-2019> <21:57:02>  Net Charge: 0 (Nuclei minus Electrons)
 <Apr18-2019> <21:57:02>  Symmetry  : ATOM
  Coordinates
    Atom         X           Y           Z   (Angstrom)
    1.F         0.000000    0.000000    0.000000
 <Apr18-2019> <21:57:02>  >>>> CORORT
 <Apr18-2019> <21:57:02>  >>>> CLSMAT
 <Apr18-2019> <21:57:02>  >>>> ORTHON
 <Apr18-2019> <21:57:02>  >>>> GENPT
 <Apr18-2019> <21:57:02>  Block Length=  76
 <Apr18-2019> <21:57:02>  >>>> PTBAS
 <Apr18-2019> <21:57:02>  >>>> CYCLE
 <Apr18-2019> <21:57:02>              |Error|         MaxErr       Wt(A-DIIS)
 <Apr18-2019> <21:57:02>      1      0.00000000      0.00000000
 <Apr18-2019> <21:57:02>      2     11.36680705      4.78671448    100.0
 <Apr18-2019> <21:57:02>      3      5.06250664      3.11691235    100.0
 <Apr18-2019> <21:57:02>      4      0.91533274      0.41803634    100.0
 <Apr18-2019> <21:57:02>      5      1.43965447      0.70655855    100.0
 <Apr18-2019> <21:57:02>      6      0.10923507      0.05221895     51.7
 <Apr18-2019> <21:57:02>      7      0.07277471      0.03447129     33.8
 <Apr18-2019> <21:57:02>      8      0.00509854      0.00238734      1.4
 <Apr18-2019> <21:57:02>      9      0.00012112      0.00005705      0.0
 <Apr18-2019> <21:57:02>     10      0.00000030      0.00000013      0.0
 <Apr18-2019> <21:57:02>     11      0.00000000      0.00000000      0.0
 <Apr18-2019> <21:57:02>  SCF converged
 <Apr18-2019> <21:57:02>     12      0.00000000      0.00000000      0.0
 <Apr18-2019> <21:57:02>  >>>> POPAN
 <Apr18-2019> <21:57:02>  >>>> DEBYE
 <Apr18-2019> <21:57:02>  NORMAL TERMINATION
 <Apr18-2019> <21:57:02>  END
 <Apr18-2019> <21:57:02>  ADF development version  RunTime: Apr18-2019 21:57:02  Nodes: 1  Procs: 1
 <Apr18-2019> <21:57:02>  Boron (TZ2P)
 <Apr18-2019> <21:57:02>  RunType   : CREATE
 <Apr18-2019> <21:57:02>  Net Charge: 0 (Nuclei minus Electrons)
 <Apr18-2019> <21:57:02>  Symmetry  : ATOM
  Coordinates
    Atom         X           Y           Z   (Angstrom)
    1.B         0.000000    0.000000    0.000000
 <Apr18-2019> <21:57:02>  >>>> CORORT
 <Apr18-2019> <21:57:02>  >>>> CLSMAT
 <Apr18-2019> <21:57:02>  >>>> ORTHON
 <Apr18-2019> <21:57:02>  >>>> GENPT
 <Apr18-2019> <21:57:02>  Block Length=  76
 <Apr18-2019> <21:57:02>  >>>> PTBAS
 <Apr18-2019> <21:57:02>  >>>> CYCLE
 <Apr18-2019> <21:57:02>              |Error|         MaxErr       Wt(A-DIIS)
 <Apr18-2019> <21:57:02>      1      0.00000000      0.00000000
 <Apr18-2019> <21:57:02>      2      3.20693062      2.04423772    100.0
 <Apr18-2019> <21:57:02>      3      1.04080726      0.88670381    100.0
 <Apr18-2019> <21:57:02>      4      0.44204202      0.38656679    100.0
 <Apr18-2019> <21:57:02>      5      0.21559391      0.19710799    100.0
 <Apr18-2019> <21:57:02>      6      0.08789647      0.07906051     78.8
 <Apr18-2019> <21:57:02>      7      0.03981004      0.03610293     35.5
 <Apr18-2019> <21:57:02>      8      0.00808566      0.00731531      6.4
 <Apr18-2019> <21:57:02>      9      0.00029689      0.00026855      0.0
 <Apr18-2019> <21:57:02>     10      0.00000032      0.00000026      0.0
 <Apr18-2019> <21:57:02>     11      0.00000000      0.00000000      0.0
 <Apr18-2019> <21:57:03>  SCF converged
 <Apr18-2019> <21:57:03>     12      0.00000000      0.00000000      0.0
 <Apr18-2019> <21:57:03>  >>>> POPAN
 <Apr18-2019> <21:57:03>  >>>> DEBYE
 <Apr18-2019> <21:57:03>  NORMAL TERMINATION
 <Apr18-2019> <21:57:03>  END


 Parallel Execution: Process Information
 ==============================================================================
 Rank   Node Name                              NodeID   MyNodeRank  NodeMaster
    0   BAZIS-cn076                               0          0          0
    1   BAZIS-cn076                               0          1         -1
    2   BAZIS-cn076                               0          2         -1
    3   BAZIS-cn076                               0          3         -1
    4   BAZIS-cn076                               0          4         -1
    5   BAZIS-cn076                               0          5         -1
    6   BAZIS-cn076                               0          6         -1
    7   BAZIS-cn076                               0          7         -1
    8   BAZIS-cn076                               0          8         -1
    9   BAZIS-cn076                               0          9         -1
   10   BAZIS-cn076                               0         10         -1
   11   BAZIS-cn076                               0         11         -1
 ==============================================================================


May use up to 30736MB of RAM as shared memory on node 0


XC
  GGA BP86
END

ANALYTICALFREQ
END

SCF
  iterations 250
END

SYMMETRY nosym
CHARGE 0

ZLMFIT
  Quality normal
END

BECKEGRID
  Quality good
End

ATOMS
1.B         0.683685   -1.440540    3.085774
2.F        -0.233729   -2.470905    3.024870
3.F         0.904704   -0.947963    4.356757
4.F         1.832091   -1.655131    2.349472
END

Fragments
F t21.F
B t21.B
End
end input

 *******************************************************************************
 *                                                                             *
 *  -------------------------------------                                      *
 *   Amsterdam Density Functional  (ADF)         development version           *
 *  -------------------------------------                                      *
 *                                               r61132 2017-09-08             *
 *                                                                             *
 *                                                                             *
 *                              =================                              *
 *                              |               |                              *
 *                              |     A D F     |                              *
 *                              |               |                              *
 *                              =================                              *
 *                                                                             *
 *                                                                             *
 *   Online information and documentation:  https://www.scm.com/support/       *
 *   E-mail:  support@scm.com   info@scm.com                                   *
 *                                                                             *
 *   Scientific publications using ADF results must be properly referenced     *
 *   See the User Manuals (or the web site) for recommended citations          *
 *   The terms and conditions of the End User License Agreement apply to       *
 *   the use of ADF, https://www.scm.com/license-terms/                        *
 *                                                                             *
 **********************  x86_64_linux_intel / intelmpi  ************************
 
 Licensed to: VU/FEW (+ SARA) / ALGEMEEN / Amsterdam / THE NETHERLANDS
 SCM User ID: u7668
  
 ADF development version  RunTime: Apr18-2019 21:57:03  Nodes: 1  Procs: 12

 Temporary files are created in /local/datastore0/tcst25/186810/kid_0.n2e0Fm


Communication costs MPI_COMM_WORLD:      2.684 usec per message,   0.0133 usec per 8-byte item
Communication costs for intra-node:      2.689 usec per message,   0.0133 usec per 8-byte item

 *** (NO TITLE) ***



 ===========================
 A T T A C H E D   F I L E S
 ===========================
  



 ===============================
 M O D E L   P A R A M E T E R S
 ===============================
  
 DENSITY FUNCTIONAL POTENTIAL (scf)
    LDA:                               VWN                                      
    Gradient Corrections:              Becke88 Perdew86                        == Not Default ==

 SPIN  (restricted / unrestr.)
    Molecule:                          Restricted                               
    Fragments:                         Restricted                               

 OTHER ASPECTS
    Relativistic Corrections:          ---                                      

    Nuclear Charge Density Model:      Point Charge Nuclei                      
    Core Treatment:                    Frozen Orbital(s)                        

    Hyperfine or Zeeman Interaction:   ---                                      


 Fragment File(s)
 ----------------
 B:
         file : t21.B
         jobid: ADF development version  RunTime: Apr18-2019 21:57:02  Nodes: 1  Procs: 1
         title: Boron (TZ2P)
 F:
         file : t21.F
         jobid: ADF development version  RunTime: Apr18-2019 21:57:02  Nodes: 1  Procs: 1
         title: Fluorine (TZ2P)



                                        ************************************
                                        *  R U N   T Y P E : SINGLE POINT  *
                                        ************************************
  



 ===============
 G E O M E T R Y  ***  3D  Molecule  ***
 ===============
  

 ATOMS
 =====                            X Y Z                    CHARGE
                                (Angstrom)             Nucl     +Core       At.Mass
                       --------------------------    ----------------       -------
    1  B               0.6837   -1.4405    3.0858      5.00      5.00       11.0093
    2  F              -0.2337   -2.4709    3.0249      9.00      9.00       18.9984
    3  F               0.9047   -0.9480    4.3568      9.00      9.00       18.9984
    4  F               1.8321   -1.6551    2.3495      9.00      9.00       18.9984


 FRAGMENTS
 =========                                     Atoms in this Fragment     Cart. coord.s (Angstrom)
                                               -------------------------------------------------------
    1  B                                                 1  B            0.6837   -1.4405    3.0858
    2  F                                                 2  F           -0.2337   -2.4709    3.0249
    3  F                                                 3  F            0.9047   -0.9480    4.3568
    4  F                                                 4  F            1.8321   -1.6551    2.3495


 Interatomic Distance Matrix (Angstrom)
 --------------------------------------

   1)     0.000
   2)     1.381   0.000
   3)     1.381   2.321   0.000
   4)     1.381   2.321   2.321   0.000

 Min. Distance =    1.3809
 Max. Distance =    2.3215



 =====================================
 S Y M M E T R Y ,   E L E C T R O N S
 =====================================
  
 Symmetry: NOSYM

 Irreducible Representations, including subspecies
 -------------------------------------------------
 A


 Configuration of Valence Electrons
 ==================================
 ( determined in the SCF procedure )

 Total:   32

 Net Charge: 0 (Nuclei minus Electrons)

 Aufbau principle for MO occupations will be applied through SCF cycle no.     125
 Thereafter, the program will assign electrons to MOs that are spatially
 similar to the occupied MOs in a "reference" cycle ("KeepOrbitals").
 The reference cycle is always the PREVIOUS cycle: it will evolve with
 the SCF procedure.
1
 ***************************************************************************************************



                                      ****************************************
                                      *  B U I L D : (Fragments, Functions)  *
                                      ****************************************
  



 =======
 S F O s  ***  (Symmetrized Fragment Orbitals)  ***
 =======
  
 SFOs are linear combinations of (valence) Fragment Orbitals (FOs), such that the SFOs transform as the
 irreducible representations of the (molecular) symmetry group. Each SFO is therefore characterized by
 an irrep of the molecule and by a few (or only one) generating FOs.
 The SFOs constitute a symmetry-adapted basis for the Fock matrix. The MO eigenvector coefficients in
 this basis provide a direct interpretation of the MOs in terms of Frontier Orbital Theory.

 The SFOs are combined with auxiliary Core Functions (CFs) to ensure orthogonalization on the (frozen)
 Core Orbitals (COs). The Core-orthogonalized SFOs (CSFOs) constitute the true Fock basis.

 The FOs, and hence also the (C)SFOs are combinations of the elementary basis functions (BAS). The basis
 functions that participate in the description of the SFOs depend on the irrep. The indices of the
 involved functions are printed below for each irrep.
 (The complete list of primitive basis functions is printed in another section)

 Total nr. of (C)SFOs (summation over all irreps) :   104

 NOTE: a (C)SFO that is defined as a combination of more than one FO is usually NOT normalized.



                                       === A ===
 Nr. of SFOs :  104
 Cartesian basis functions that participate in this irrep (total number =   120) :
      1     2     3     4     5     6     9    12     7    10
     13     8    11    14    15    16    17    18    19    20
     21    22    23    24    25    26    27    28    29    30
     31    32    33    34    35    36    39    42    37    40
     43    38    41    44    45    46    47    48    49    50
     51    52    53    54    55    56    57    58    59    60
     61    62    63    64    65    66    69    72    67    70
     73    68    71    74    75    76    77    78    79    80
     81    82    83    84    85    86    87    88    89    90
     91    92    93    94    95    96    99   102    97   100
    103    98   101   104   105   106   107   108   109   110
    111   112   113   114   115   116   117   118   119   120

    SFO  (index         Fragment          Generating    Expansion in Fragment Orbitals
  indx  incl.CFs)   Occup   Orb.Energy   FragmentType  Coeff.   Orbital     on Fragment
 --------------------------------------------------------------------------------------
     1       1      2.000      -6.647 au  B             1.00      1 S               1
                        (    -180.883 eV)
     2       2      2.000      -0.351 au  B             1.00      2 S               1
                        (      -9.561 eV)
     3       3       --         0.197 au  B             1.00      3 S               1
                        (       5.367 eV)
     4       4       --         2.581 au  B             1.00      4 S               1
                        (      70.245 eV)
     5       5       --        26.827 au  B             1.00      5 S               1
                        (     729.989 eV)
     6       6      0.333      -0.136 au  B             1.00      1 P:x             1
                        (      -3.706 eV)
     7       7       --         0.125 au  B             1.00      2 P:x             1
                        (       3.410 eV)
     8       8       --         1.675 au  B             1.00      3 P:x             1
                        (      45.572 eV)
     9       9      0.333      -0.136 au  B             1.00      1 P:y             1
                        (      -3.706 eV)
    10      10       --         0.125 au  B             1.00      2 P:y             1
                        (       3.410 eV)
    11      11       --         1.675 au  B             1.00      3 P:y             1
                        (      45.572 eV)
    12      12      0.333      -0.136 au  B             1.00      1 P:z             1
                        (      -3.706 eV)
    13      13       --         0.125 au  B             1.00      2 P:z             1
                        (       3.410 eV)
    14      14       --         1.675 au  B             1.00      3 P:z             1
                        (      45.572 eV)
    15      15       --         1.032 au  B             1.00      1 D:z2            1
                        (      28.085 eV)
    16      16       --         1.032 au  B             1.00      1 D:x2-y2         1
                        (      28.085 eV)
    17      17       --         1.032 au  B             1.00      1 D:xy            1
                        (      28.085 eV)
    18      18       --         1.032 au  B             1.00      1 D:xz            1
                        (      28.085 eV)
    19      19       --         1.032 au  B             1.00      1 D:yz            1
                        (      28.085 eV)
    20      20       --         3.340 au  B             1.00      1 F:z3            1
                        (      90.887 eV)
    21      21       --         3.340 au  B             1.00      1 F:z             1
                        (      90.887 eV)
    22      22       --         3.340 au  B             1.00      1 F:xyz           1
                        (      90.887 eV)
    23      23       --         3.340 au  B             1.00      1 F:z2x           1
                        (      90.887 eV)
    24      24       --         3.340 au  B             1.00      1 F:z2y           1
                        (      90.887 eV)
    25      25       --         3.340 au  B             1.00      1 F:x             1
                        (      90.887 eV)
    26      26       --         3.340 au  B             1.00      1 F:y             1
                        (      90.887 eV)
    27      27      2.000     -24.372 au  F             1.00      1 S               2
                        (    -663.208 eV)
    28      28      2.000      -1.101 au  F             1.00      2 S               2
                        (     -29.966 eV)
    29      29       --         0.038 au  F             1.00      3 S               2
                        (       1.035 eV)
    30      30       --         1.577 au  F             1.00      4 S               2
                        (      42.912 eV)
    31      31       --        48.394 au  F             1.00      5 S               2
                        (    1316.867 eV)
    32      32      1.667      -0.414 au  F             1.00      1 P:x             2
                        (     -11.261 eV)
    33      33       --         0.439 au  F             1.00      2 P:x             2
                        (      11.945 eV)
    34      34       --         4.577 au  F             1.00      3 P:x             2
                        (     124.533 eV)
    35      35      1.667      -0.414 au  F             1.00      1 P:y             2
                        (     -11.261 eV)
    36      36       --         0.439 au  F             1.00      2 P:y             2
                        (      11.945 eV)
    37      37       --         4.577 au  F             1.00      3 P:y             2
                        (     124.533 eV)
    38      38      1.667      -0.414 au  F             1.00      1 P:z             2
                        (     -11.261 eV)
    39      39       --         0.439 au  F             1.00      2 P:z             2
                        (      11.945 eV)
    40      40       --         4.577 au  F             1.00      3 P:z             2
                        (     124.533 eV)
    41      41       --         1.111 au  F             1.00      1 D:z2            2
                        (      30.233 eV)
    42      42       --         1.111 au  F             1.00      1 D:x2-y2         2
                        (      30.233 eV)
    43      43       --         1.111 au  F             1.00      1 D:xy            2
                        (      30.233 eV)
    44      44       --         1.111 au  F             1.00      1 D:xz            2
                        (      30.233 eV)
    45      45       --         1.111 au  F             1.00      1 D:yz            2
                        (      30.233 eV)
    46      46       --         3.406 au  F             1.00      1 F:z3            2
                        (      92.681 eV)
    47      47       --         3.406 au  F             1.00      1 F:z             2
                        (      92.681 eV)
    48      48       --         3.406 au  F             1.00      1 F:xyz           2
                        (      92.681 eV)
    49      49       --         3.406 au  F             1.00      1 F:z2x           2
                        (      92.681 eV)
    50      50       --         3.406 au  F             1.00      1 F:z2y           2
                        (      92.681 eV)
    51      51       --         3.406 au  F             1.00      1 F:x             2
                        (      92.681 eV)
    52      52       --         3.406 au  F             1.00      1 F:y             2
                        (      92.681 eV)
    53      53      2.000     -24.372 au  F             1.00      1 S               3
                        (    -663.208 eV)
    54      54      2.000      -1.101 au  F             1.00      2 S               3
                        (     -29.966 eV)
    55      55       --         0.038 au  F             1.00      3 S               3
                        (       1.035 eV)
    56      56       --         1.577 au  F             1.00      4 S               3
                        (      42.912 eV)
    57      57       --        48.394 au  F             1.00      5 S               3
                        (    1316.867 eV)
    58      58      1.667      -0.414 au  F             1.00      1 P:x             3
                        (     -11.261 eV)
    59      59       --         0.439 au  F             1.00      2 P:x             3
                        (      11.945 eV)
    60      60       --         4.577 au  F             1.00      3 P:x             3
                        (     124.533 eV)
    61      61      1.667      -0.414 au  F             1.00      1 P:y             3
                        (     -11.261 eV)
    62      62       --         0.439 au  F             1.00      2 P:y             3
                        (      11.945 eV)
    63      63       --         4.577 au  F             1.00      3 P:y             3
                        (     124.533 eV)
    64      64      1.667      -0.414 au  F             1.00      1 P:z             3
                        (     -11.261 eV)
    65      65       --         0.439 au  F             1.00      2 P:z             3
                        (      11.945 eV)
    66      66       --         4.577 au  F             1.00      3 P:z             3
                        (     124.533 eV)
    67      67       --         1.111 au  F             1.00      1 D:z2            3
                        (      30.233 eV)
    68      68       --         1.111 au  F             1.00      1 D:x2-y2         3
                        (      30.233 eV)
    69      69       --         1.111 au  F             1.00      1 D:xy            3
                        (      30.233 eV)
    70      70       --         1.111 au  F             1.00      1 D:xz            3
                        (      30.233 eV)
    71      71       --         1.111 au  F             1.00      1 D:yz            3
                        (      30.233 eV)
    72      72       --         3.406 au  F             1.00      1 F:z3            3
                        (      92.681 eV)
    73      73       --         3.406 au  F             1.00      1 F:z             3
                        (      92.681 eV)
    74      74       --         3.406 au  F             1.00      1 F:xyz           3
                        (      92.681 eV)
    75      75       --         3.406 au  F             1.00      1 F:z2x           3
                        (      92.681 eV)
    76      76       --         3.406 au  F             1.00      1 F:z2y           3
                        (      92.681 eV)
    77      77       --         3.406 au  F             1.00      1 F:x             3
                        (      92.681 eV)
    78      78       --         3.406 au  F             1.00      1 F:y             3
                        (      92.681 eV)
    79      79      2.000     -24.372 au  F             1.00      1 S               4
                        (    -663.208 eV)
    80      80      2.000      -1.101 au  F             1.00      2 S               4
                        (     -29.966 eV)
    81      81       --         0.038 au  F             1.00      3 S               4
                        (       1.035 eV)
    82      82       --         1.577 au  F             1.00      4 S               4
                        (      42.912 eV)
    83      83       --        48.394 au  F             1.00      5 S               4
                        (    1316.867 eV)
    84      84      1.667      -0.414 au  F             1.00      1 P:x             4
                        (     -11.261 eV)
    85      85       --         0.439 au  F             1.00      2 P:x             4
                        (      11.945 eV)
    86      86       --         4.577 au  F             1.00      3 P:x             4
                        (     124.533 eV)
    87      87      1.667      -0.414 au  F             1.00      1 P:y             4
                        (     -11.261 eV)
    88      88       --         0.439 au  F             1.00      2 P:y             4
                        (      11.945 eV)
    89      89       --         4.577 au  F             1.00      3 P:y             4
                        (     124.533 eV)
    90      90      1.667      -0.414 au  F             1.00      1 P:z             4
                        (     -11.261 eV)
    91      91       --         0.439 au  F             1.00      2 P:z             4
                        (      11.945 eV)
    92      92       --         4.577 au  F             1.00      3 P:z             4
                        (     124.533 eV)
    93      93       --         1.111 au  F             1.00      1 D:z2            4
                        (      30.233 eV)
    94      94       --         1.111 au  F             1.00      1 D:x2-y2         4
                        (      30.233 eV)
[...]
    4       3          3       0.45304487D-03
    4       3          4       0.17685848D-03
    4       3          5       0.34859388D-04
    4       3          6       0.37679134D-05
*** CPKS converged.
----------------------------------------------

====================  end of solving CPKS equations  ====================

 ***************************************************************************************************



                                     ******************************************
                                     *  F R E Q U E N C Y    A N A L Y S I S  *
                                     ******************************************
  


 Atomic Masses:
 ---------------
    1. B              11.00930500
    2. F              18.99840300
    3. F              18.99840300
    4. F              18.99840300



 ======================================
 Normal Modes in Symmetry Displacements  ***  (cartesians, not mass-weighted)  ***
 ======================================
  


                                       === A ===

 Symmetry Displacements


                          1                             2                             3
              ------------------------      ------------------------      ------------------------
    1.B          0.274  -0.002   0.001         0.000   0.275  -0.002         0.000   0.000   0.274
    2.F         -0.043  -0.015   0.010         0.007  -0.065   0.008         0.002  -0.003  -0.051
    3.F         -0.054   0.001  -0.001        -0.007  -0.042  -0.006        -0.010   0.016  -0.063
    4.F         -0.062   0.015  -0.009        -0.000  -0.052  -0.000         0.008  -0.013  -0.045


                          4                             5                             6
              ------------------------      ------------------------      ------------------------
    1.B          0.000   0.000   0.000         0.000   0.000   0.000         0.000   0.000   0.000
    2.F          0.158   0.089  -0.009         0.000   0.074   0.118         0.000   0.000   0.000
    3.F         -0.049  -0.022   0.011        -0.086  -0.100  -0.077         0.065  -0.049  -0.140
    4.F         -0.110  -0.067  -0.002         0.086   0.026  -0.041        -0.065   0.049   0.140


 Frequencies and Normal Modes
 ============================

             1           2           3           4           5           6

          459.0822    459.1975    650.8004    812.3506   1138.5807   1138.7964
        ----------  ----------  ----------  ----------  ----------  ----------
   1   -0.17875286 -0.16597009 -0.31621434 -0.32947392  0.84837510 -0.11052813
   2   -0.17659750  0.03414240  0.52225751  0.54450325  0.30348913 -0.55344852
   3   -0.10962844  0.21554071 -0.32649507 -0.34002902 -0.33612604 -0.77866831
   4   -0.70537602  0.12896978  0.48089324 -0.46133509 -0.10011669  0.17804421
   5    0.03560733 -0.93379899  0.17034682 -0.16352723 -0.19836830 -0.17788308
   6    0.65270141  0.19030679  0.51027463 -0.48966538  0.16062380 -0.10868213


 Intensities
 ===========

               Frequency       Dipole Strength        Absorption Intensity (degeneracy not counted)
                 cm-1           1e-40 esu2 cm2          km/mole
              ----------          ----------          ----------
              459.082155           50.435156            5.803659
              459.197481           50.446775            5.806454
              650.800420          234.244895           38.211671
              812.350638          209.416797           42.641562
             1138.580746         1397.732227          398.901697
             1138.796386         1397.540380          398.922485



 Zero-Point Energy :      0.010614 a.u.
 ===================      0.288809 eV
                                                   hartree              eV         kcal/mol           kJ/mol
                                      --------------------     -----------       ----------      -----------
              Bond Energy:              -0.818113635037323        -22.2620          -513.37         -2147.96
              Zero-Point Energy:         0.010613545460775          0.2888             6.66            27.87
              Enthalpy (T=0K):          -0.807500089576548        -21.9732          -506.71         -2120.09



 ===========================
 Vibrations and Normal Modes  ***  (cartesian coordinates, NOT mass-weighted)  ***
 ===========================
  
 The headers on the normal mode eigenvectors below give the Frequency in cm-1
 (a negative value means an imaginary frequency, no output for (almost-)zero frequencies)


                       459.082                       459.197                       650.800
              ------------------------      ------------------------      ------------------------
    1.B         -0.209  -0.205  -0.127        -0.194   0.041   0.251        -0.332   0.553  -0.348
    2.F         -0.449  -0.195   0.057         0.121  -0.249  -0.528         0.356   0.106   0.127
    3.F          0.364  -0.063  -0.400         0.397   0.354   0.139         0.045  -0.310  -0.237
    4.F          0.206   0.377   0.417        -0.405  -0.129   0.244        -0.209  -0.117   0.312


                       812.351                      1138.581                      1138.796
              ------------------------      ------------------------      ------------------------
    1.B         -0.343   0.571  -0.359        -0.813  -0.286   0.321         0.106   0.531   0.743
    2.F         -0.211  -0.313   0.013         0.179   0.193  -0.018        -0.097  -0.149  -0.041
    3.F          0.084   0.083   0.359         0.041   0.010  -0.035        -0.059  -0.104  -0.293
    4.F          0.325  -0.101  -0.163         0.251  -0.038  -0.132         0.094  -0.055  -0.097




 List of All Frequencies:


 Intensities
 ===========

               Frequency       Dipole Strength        Absorption Intensity (degeneracy not counted)
                 cm-1           1e-40 esu2 cm2          km/mole
              ----------          ----------          ----------
              459.082155           50.435156            5.803659
              459.197481           50.446775            5.806454
              650.800420          234.244895           38.211671
              812.350638          209.416797           42.641562
             1138.580746         1397.732227          398.901697
             1138.796386         1397.540380          398.922485



 ============================
 Statistical Thermal Analysis  ***  ideal gas assumed  ***
 ============================
  
 Pressure:                  1.000000 atm.
 Temperature:             298.150000 K



 Moments of Inertia (and direction vectors)
 ==========================================

         186.4582        186.4608        365.6344
 ------------------------------------------------
          -0.0947          0.8864          0.4532
           0.4892          0.4379         -0.7543
           0.8670         -0.1503          0.4751


 The rotational contribution to the molecular entropy includes
 a term, dependent on the symmetry number sigma. The results 
 reported below were computed using sigma = 3, determined from
 the point group symmetry of the input geometry (C(3V)). 
 If this is not the correct symmetry, please contact SCM to report a bug.
 Contributions from frequencies below 20 1/cm are not included in
 the vibrational sums. Their contributions, if any, are reported separately.


     Temp                                                       Transl     Rotat    Vibrat     Total
     ----                                                       ------     -----    ------     -----

     298.15   Entropy (cal/mole-K):                             38.569    21.873     2.211    62.653
              Internal Energy (Kcal/mole):                       0.889     0.889     7.140     8.917
              Constant Volume Heat Capacity (cal/mole-K):        2.981     2.981     4.735    10.697

              Summary of energy terms
                                                   hartree              eV         kcal/mol           kJ/mol
                                      --------------------     -----------       ----------      -----------
              Bond Energy:              -0.818113635037323        -22.2620          -513.37         -2147.96
              Internal Energy:           0.014210164856697          0.3867             8.92            37.31
              pV/n = RT:                 0.000944186013486          0.0257             0.59             2.48
              Enthalpy H:               -0.802959284167140        -21.8496          -503.86         -2108.17
              -T*S:                     -0.029768487451790         -0.8100           -18.68           -78.16
              Gibbs free energy:        -0.832727771618930        -22.6597          -522.54         -2186.33
 

 ***************************************************************************************************
 


====================================================================
*** DONE CALCULATING ANALYTICAL SECOND DERIVATIVES OF THE ENERGY ***
====================================================================

 
 
 ========================
 No memory problems found
 ========================
 
 Maximum number of active allocate calls:        1176
 
 *******************************************************************************

                             A D F   E X I T
 NORMAL TERMINATION



 =================
 Timing Statistics
 =================
  
 Total Used :                     CPU=       12.62      System=        0.47     Elapsed=       13.15

 Calls  Section                     ( Mean, Percentage )
 ---------------------------------------------------------------------------------------------------
     3  ><      ................      0.00    0.01             0.00    0.00             0.00    0.01
     1  INIT    ................      0.48    3.84             0.02    4.50             0.51    3.84
     1  GEOMET  ................      0.03    0.21             0.01    1.28             0.03    0.25
     1  FRAGM   ................      0.01    0.07             0.01    2.14             0.02    0.14
     1  INPUTA  ................      0.00    0.00             0.00    0.00             0.00    0.00
     1  ATDEN   ................      0.01    0.06             0.00    0.00             0.01    0.06
     1  MAINSY  ................      0.01    0.06             0.00    0.86             0.01    0.09
     1  SYMFIT  ................      0.00    0.02             0.00    0.00             0.00    0.02
     1  CORORT  ................      0.00    0.00             0.00    0.00             0.00    0.00
     1  SYMORB  ................      0.00    0.03             0.00    0.21             0.00    0.03
     1  CLSMAT  ................      0.01    0.06             0.00    0.64             0.01    0.08
     1  ORTHON  ................      0.01    0.05             0.00    0.86             0.01    0.08
     1  GENPT   ................      0.06    0.51             0.00    0.64             0.07    0.51
     1  PTBAS   ................      0.03    0.25             0.00    0.21             0.03    0.25
    12  FOCKY   ................      0.11   10.69             0.00    4.71             0.11   10.43
    12  FOCKTR  ................      0.00    0.17             0.00    1.28             0.00    0.23
    12  SDIIS   ................      0.00    0.19             0.00    0.43             0.00    0.25
     1  COREPS  ................      0.10    0.76             0.00    0.21             0.10    0.74
     1  TOTEN   ................      0.27    2.12             0.00    1.07             0.27    2.07
     1  POPAN   ................      0.00    0.01             0.00    0.43             0.00    0.03
     1  DEBYE   ................      0.00    0.02             0.00    0.21             0.00    0.03
     1  INPUTE  ................      0.00    0.00             0.00    0.00             0.00    0.00
     1  SYMORE  ................      0.00    0.01             0.00    0.00             0.00    0.01
     1  METS    ................      0.00    0.01             0.00    0.00             0.00    0.00
     1  CETS    ................      0.00    0.02             0.00    0.21             0.00    0.03
     2  ELNRGY  ................      0.06    0.95             0.00    0.21             0.06    0.92
     1  POPUL   ................      0.01    0.09             0.00    0.21             0.01    0.09
     1  ENGRAD  ................      0.00    0.01             0.00    0.00             0.00    0.01
     1  ENHESS  ................     10.05   79.65             0.37   78.37            10.47   79.62
     1  EXIT PROCEDURE .........      0.02    0.14             0.01    1.28             0.02    0.18


 Currently Open Files (EXIT00)
 ====================

 Unit    Access Format  Status   Type       Ident (file)
 -------------------------------------------------------
   3      SEQ    FORM   TRANSP  NORMAL      LOGFILE
                                          ( logfile )


 Buffered I/O statistics
 =======================
 Memory available:                     67108864
 Number of records fitting in memory:     16131
 Input :   0.4% of                       206671  *4k bytes
 Output:   7.0% of                         8382  *4k bytes
 Records from serial files evicted:           0
                    others evicted:           0
 Hash table lookups:     545782 with          0 conflicts (  0.00%)

 ***************************************************************************************************
 (LOGFILE)
 <Apr18-2019> <21:57:02>  ADF development version  RunTime: Apr18-2019 21:57:02  Nodes: 1  Procs: 1
 <Apr18-2019> <21:57:02>  Fluorine (TZ2P)
 <Apr18-2019> <21:57:02>  RunType   : CREATE
 <Apr18-2019> <21:57:02>  Net Charge: 0 (Nuclei minus Electrons)
 <Apr18-2019> <21:57:02>  Symmetry  : ATOM
  Coordinates
    Atom         X           Y           Z   (Angstrom)
    1.F         0.000000    0.000000    0.000000
 <Apr18-2019> <21:57:02>  >>>> CORORT
 <Apr18-2019> <21:57:02>  >>>> CLSMAT
 <Apr18-2019> <21:57:02>  >>>> ORTHON
 <Apr18-2019> <21:57:02>  >>>> GENPT
 <Apr18-2019> <21:57:02>  Block Length=  76
 <Apr18-2019> <21:57:02>  >>>> PTBAS
 <Apr18-2019> <21:57:02>  >>>> CYCLE
 <Apr18-2019> <21:57:02>              |Error|         MaxErr       Wt(A-DIIS)
 <Apr18-2019> <21:57:02>      1      0.00000000      0.00000000
 <Apr18-2019> <21:57:02>      2     11.36680705      4.78671448    100.0
 <Apr18-2019> <21:57:02>      3      5.06250664      3.11691235    100.0
 <Apr18-2019> <21:57:02>      4      0.91533274      0.41803634    100.0
 <Apr18-2019> <21:57:02>      5      1.43965447      0.70655855    100.0
 <Apr18-2019> <21:57:02>      6      0.10923507      0.05221895     51.7
 <Apr18-2019> <21:57:02>      7      0.07277471      0.03447129     33.8
 <Apr18-2019> <21:57:02>      8      0.00509854      0.00238734      1.4
 <Apr18-2019> <21:57:02>      9      0.00012112      0.00005705      0.0
 <Apr18-2019> <21:57:02>     10      0.00000030      0.00000013      0.0
 <Apr18-2019> <21:57:02>     11      0.00000000      0.00000000      0.0
 <Apr18-2019> <21:57:02>  SCF converged
 <Apr18-2019> <21:57:02>     12      0.00000000      0.00000000      0.0
 <Apr18-2019> <21:57:02>  >>>> POPAN
 <Apr18-2019> <21:57:02>  >>>> DEBYE
 <Apr18-2019> <21:57:02>  NORMAL TERMINATION
 <Apr18-2019> <21:57:02>  END
 <Apr18-2019> <21:57:02>  ADF development version  RunTime: Apr18-2019 21:57:02  Nodes: 1  Procs: 1
 <Apr18-2019> <21:57:02>  Boron (TZ2P)
 <Apr18-2019> <21:57:02>  RunType   : CREATE
 <Apr18-2019> <21:57:02>  Net Charge: 0 (Nuclei minus Electrons)
 <Apr18-2019> <21:57:02>  Symmetry  : ATOM
  Coordinates
    Atom         X           Y           Z   (Angstrom)
    1.B         0.000000    0.000000    0.000000
 <Apr18-2019> <21:57:02>  >>>> CORORT
 <Apr18-2019> <21:57:02>  >>>> CLSMAT
 <Apr18-2019> <21:57:02>  >>>> ORTHON
 <Apr18-2019> <21:57:02>  >>>> GENPT
 <Apr18-2019> <21:57:02>  Block Length=  76
 <Apr18-2019> <21:57:02>  >>>> PTBAS
 <Apr18-2019> <21:57:02>  >>>> CYCLE
 <Apr18-2019> <21:57:02>              |Error|         MaxErr       Wt(A-DIIS)
 <Apr18-2019> <21:57:02>      1      0.00000000      0.00000000
 <Apr18-2019> <21:57:02>      2      3.20693062      2.04423772    100.0
 <Apr18-2019> <21:57:02>      3      1.04080726      0.88670381    100.0
 <Apr18-2019> <21:57:02>      4      0.44204202      0.38656679    100.0
 <Apr18-2019> <21:57:02>      5      0.21559391      0.19710799    100.0
 <Apr18-2019> <21:57:02>      6      0.08789647      0.07906051     78.8
 <Apr18-2019> <21:57:02>      7      0.03981004      0.03610293     35.5
 <Apr18-2019> <21:57:02>      8      0.00808566      0.00731531      6.4
 <Apr18-2019> <21:57:02>      9      0.00029689      0.00026855      0.0
 <Apr18-2019> <21:57:02>     10      0.00000032      0.00000026      0.0
 <Apr18-2019> <21:57:02>     11      0.00000000      0.00000000      0.0
 <Apr18-2019> <21:57:03>  SCF converged
 <Apr18-2019> <21:57:03>     12      0.00000000      0.00000000      0.0
 <Apr18-2019> <21:57:03>  >>>> POPAN
 <Apr18-2019> <21:57:03>  >>>> DEBYE
 <Apr18-2019> <21:57:03>  NORMAL TERMINATION
 <Apr18-2019> <21:57:03>  END
 <Apr18-2019> <21:57:03>  ADF development version  RunTime: Apr18-2019 21:57:03  Nodes: 1  Procs: 12
 <Apr18-2019> <21:57:03>  *** (NO TITLE) ***
 <Apr18-2019> <21:57:03>  RunType   : SINGLE POINT
 <Apr18-2019> <21:57:03>  Net Charge: 0 (Nuclei minus Electrons)
 <Apr18-2019> <21:57:03>  Symmetry  : NOSYM
 <Apr18-2019> <21:57:03>  >>>> FRAGM
  Coordinates
    Atom         X           Y           Z   (Angstrom)
    1.B         0.683685   -1.440540    3.085774
    2.F        -0.233729   -2.470905    3.024870
    3.F         0.904704   -0.947963    4.356757
    4.F         1.832091   -1.655131    2.349472
 <Apr18-2019> <21:57:03>  >>>> CORORT
 <Apr18-2019> <21:57:03>  >>>> CLSMAT
 <Apr18-2019> <21:57:03>  >>>> ORTHON
 <Apr18-2019> <21:57:03>  >>>> GENPT
 <Apr18-2019> <21:57:03>  Block Length= 128
 <Apr18-2019> <21:57:03>  >>>> PTBAS
 <Apr18-2019> <21:57:03>  >>>> CYCLE
 <Apr18-2019> <21:57:04>              |Error|         MaxErr       Wt(A-DIIS)
 <Apr18-2019> <21:57:04>      1      3.49472127      1.46694648
 <Apr18-2019> <21:57:04>      2      0.76710753      0.13121357    100.0
 <Apr18-2019> <21:57:04>      3      0.33000838      0.05844027    100.0
 <Apr18-2019> <21:57:04>      4      0.72734333      0.12126076    100.0
 <Apr18-2019> <21:57:04>      5      0.17557526      0.03084942     30.2
 <Apr18-2019> <21:57:04>      6      0.02965089      0.00556559      4.6
 <Apr18-2019> <21:57:04>      7      0.00325949      0.00059663      0.0
 <Apr18-2019> <21:57:04>      8      0.00013057      0.00002509      0.0
 <Apr18-2019> <21:57:05>      9      0.00011279      0.00002772      0.0
 <Apr18-2019> <21:57:05>     10      0.00001059      0.00000195      0.0
 <Apr18-2019> <21:57:05>     11      0.00000087      0.00000016      0.0
 <Apr18-2019> <21:57:05>  SCF converged
 <Apr18-2019> <21:57:05>     12      0.00000004      0.00000001      0.0
 <Apr18-2019> <21:57:05>  >>>> TOTEN
 <Apr18-2019> <21:57:05>  >>>> POPAN
 <Apr18-2019> <21:57:05>  >>>> DEBYE
 <Apr18-2019> <21:57:05>  >>>> AMETS
 <Apr18-2019> <21:57:05>   Bond Energy          -0.81811364 a.u.
 <Apr18-2019> <21:57:05>   Bond Energy         -22.26200471 eV
 <Apr18-2019> <21:57:05>   Bond Energy        -513.37       kcal/mol
 <Apr18-2019> <21:57:05>  >>>> POPUL
 <Apr18-2019> <21:57:05>  >>>> ENGRAD
 <Apr18-2019> <21:57:05>  >>>> ENHESS
 <Apr18-2019> <21:57:05>  === NUCLEUS:     1
 <Apr18-2019> <21:57:08>  === NUCLEUS:     2
 <Apr18-2019> <21:57:11>  === NUCLEUS:     3
 <Apr18-2019> <21:57:13>  === NUCLEUS:     4
 <Apr18-2019> <21:57:16>  >>>> CALC_HESS_PMAT
 <Apr18-2019> <21:57:16>  >>>> CALC_HESS_WMAT
 <Apr18-2019> <21:57:16>  NORMAL TERMINATION
 <Apr18-2019> <21:57:16>  END
