
Create Br   file=TZ2P-Br
XC
  GGA blyp
  DISPERSION Grimme3 BJDAMP
End
End Input

 *******************************************************************************
 *                                                                             *
 *  -------------------------------------                                      *
 *   Amsterdam Density Functional  (ADF)         development version           *
 *  -------------------------------------                                      *
 *                                               r61132 2017-09-08             *
 *                                                                             *
 *                                                                             *
 *                              =================                              *
 *                              |               |                              *
 *                              |     A D F     |                              *
 *                              |               |                              *
 *                              =================                              *
 *                                                                             *
 *                                                                             *
 *   Online information and documentation:  https://www.scm.com/support/       *
 *   E-mail:  support@scm.com   info@scm.com                                   *
 *                                                                             *
 *   Scientific publications using ADF results must be properly referenced     *
 *   See the User Manuals (or the web site) for recommended citations          *
 *   The terms and conditions of the End User License Agreement apply to       *
 *   the use of ADF, https://www.scm.com/license-terms/                        *
 *                                                                             *
 **********************  x86_64_linux_intel / intelmpi  ************************
 
 Licensed to: VU/FEW (+ SARA) / ALGEMEEN / Amsterdam / THE NETHERLANDS
 SCM User ID: u7668
  
 ADF development version  RunTime: Apr18-2019 14:06:44  Nodes: 1  Procs: 1

 Temporary files are created in /local/datastore0/tcst25/186719/kid_0.Gwe49X

 Bromine (TZ2P)



 ===========================
 A T T A C H E D   F I L E S
 ===========================
  
 CREATE - Data File:    TZ2P-Br
                        Bromine (TZ2P)



 ===============================
 M O D E L   P A R A M E T E R S
 ===============================
  
 DENSITY FUNCTIONAL POTENTIAL (scf)
    LDA:                               Exchange only                           == Not Default ==
    Gradient Corrections:              Becke88 LYP                             == Not Default ==

 SPIN  (restricted / unrestr.)
    Molecule:                          Restricted                               

 OTHER ASPECTS
    Relativistic Corrections:          ---                                      

    Nuclear Charge Density Model:      Point Charge Nuclei                      
    Core Treatment:                    Frozen Orbital(s)                        

    Hyperfine or Zeeman Interaction:   ---                                      

 Settings for Grimme 3 dispersion correction

      damping                        BJ
      s6                          1.000
      a1                          0.430
      s8                          2.700
      a2                          4.236

 Other (technical) parameters

      alpha                      14.000
      version                         4
 



 =====================================
 S Y M M E T R Y ,   E L E C T R O N S
 =====================================
  
 Symmetry: ATOM

 Irreducible Representations, including subspecies
 -------------------------------------------------
 S
 P:x  P:y  P:z
 D:z2  D:x2-y2  D:xy  D:xz  D:yz
 F:z3  F:z  F:xyz  F:z2x  F:z2y  F:x  F:y


 Configuration of Valence Electrons
 ==================================

          Occupation Numbers
          -------------------------------------------------
 S        4*2
 P        2*6 5
 D        10
 F        0
          -------------------------------------------------

 Total:   35

 Net Charge: 0 (Nuclei minus Electrons)

 Preset values for MO occupations will be applied through SCF cycle no. 1000000
 Thereafter, the program will assign electrons to MOs that are spatially
 similar to the occupied MOs in a "reference" cycle ("KeepOrbitals").
 The reference cycle is always the PREVIOUS cycle: it will evolve with
 the SCF procedure.



 ================================
 (Slater-type)  F U N C T I O N S  ***  (Basis and Fit)  ***
 ================================
  

 Atom Type    1  (Br)
 ==============

 Valence Basis Sets:  20
 -----------------------
   1 S   41.300000
   1 S   32.800000
   2 S   13.900000
   2 P   19.450000
   2 P   13.100000
   3 S    7.200000
   3 S    4.950000
   3 P    7.900000
   3 P    5.050000
   3 D   10.900000
   3 D    6.050000
   3 D    3.500000
   4 S    4.500000
   4 S    2.800000
   4 S    1.800000
   4 P    3.250000
   4 P    1.950000
   4 P    1.200000
   4 D    1.800000
   4 F    1.800000


 BAS: List of all Elementary Cartesian Basis Functions
 =====================================================

 The numbering in the list below (to the right of the function characteristics) is referred
 to in print-outs of MO eigenvectors and Mulliken populations in the BAS representation
 (as contrasted to the SFO representation).

 Notes:
 1. The functions are characterized by a polynomial prefactor (powers of x,y,z and r) and
    an exponential decay factor alpha.
 2. Since the basis sets are specific for an atom TYPE, the individual functions occur on
    all atoms of that type.
 3. The word 'Core' in the left margin signals that it is a Core Function (CF) : not a
    degree of freedom in the valence set, but only used to ensure orthogonalization of
    the other valence basis functions on the frozen Core Orbitals.


 (power of) X  Y  Z  R     Alpha  on Atom
            ==========     =====     ==========

 Br                                   1
                                  ---------------------------------------------------------------------------
            0  0  0  0    41.300      1
            0  0  0  0    32.800      2
            0  0  0  1    13.900      3
            1  0  0  0    19.450      4
            0  1  0  0    19.450      5
            0  0  1  0    19.450      6
            1  0  0  0    13.100      7
            0  1  0  0    13.100      8
            0  0  1  0    13.100      9
            0  0  0  2     7.200     10
            0  0  0  2     4.950     11
            1  0  0  1     7.900     12
            0  1  0  1     7.900     13
            0  0  1  1     7.900     14
            1  0  0  1     5.050     15
            0  1  0  1     5.050     16
            0  0  1  1     5.050     17
            2  0  0  0    10.900     18
            1  1  0  0    10.900     19
            1  0  1  0    10.900     20
            0  2  0  0    10.900     21
            0  1  1  0    10.900     22
            0  0  2  0    10.900     23
            2  0  0  0     6.050     24
            1  1  0  0     6.050     25
            1  0  1  0     6.050     26
            0  2  0  0     6.050     27
            0  1  1  0     6.050     28
            0  0  2  0     6.050     29
            2  0  0  0     3.500     30
            1  1  0  0     3.500     31
            1  0  1  0     3.500     32
            0  2  0  0     3.500     33
            0  1  1  0     3.500     34
            0  0  2  0     3.500     35
            0  0  0  3     4.500     36
            0  0  0  3     2.800     37
            0  0  0  3     1.800     38
            1  0  0  2     3.250     39
            0  1  0  2     3.250     40
            0  0  1  2     3.250     41
            1  0  0  2     1.950     42
            0  1  0  2     1.950     43
            0  0  1  2     1.950     44
            1  0  0  2     1.200     45
            0  1  0  2     1.200     46
            0  0  1  2     1.200     47
            2  0  0  1     1.800     48
            1  1  0  1     1.800     49
            1  0  1  1     1.800     50
            0  2  0  1     1.800     51
            0  1  1  1     1.800     52
            0  0  2  1     1.800     53
            3  0  0  0     1.800     54
            2  1  0  0     1.800     55
            2  0  1  0     1.800     56
            1  2  0  0     1.800     57
            1  1  1  0     1.800     58
            1  0  2  0     1.800     59
            0  3  0  0     1.800     60
            0  2  1  0     1.800     61
            0  1  2  0     1.800     62
            0  0  3  0     1.800     63

 Total number of charge fitting functions (nprimf)       170
 Total number of Cartesian basis functions (naos)         63
 Total number of Cartesian core functions  (ncos)          0



 BAS: List of all Elementary Cartesian Basis Functions
 =====================================================

 The numbering in the list below (to the right of the function characteristics) is referred
 to in print-outs of MO eigenvectors and Mulliken populations in the BAS representation
 (as contrasted to the SFO representation).

 Notes:
 1. The functions are characterized by a polynomial prefactor (powers of x,y,z and r) and
    an exponential decay factor alpha.
 2. Since the basis sets are specific for an atom TYPE, the individual functions occur on
    all atoms of that type.
 3. The word 'Core' in the left margin signals that it is a Core Function (CF) : not a
    degree of freedom in the valence set, but only used to ensure orthogonalization of
    the other valence basis functions on the frozen Core Orbitals.


 (power of) X  Y  Z  R     Alpha  on Atom
            ==========     =====     ==========

 Br                                   1
                                  ---------------------------------------------------------------------------
            0  0  0  0    41.300      1
            0  0  0  0    32.800      2
            0  0  0  1    13.900      3
            1  0  0  0    19.450      4
            0  1  0  0    19.450      5
            0  0  1  0    19.450      6
            1  0  0  0    13.100      7
            0  1  0  0    13.100      8
            0  0  1  0    13.100      9
            0  0  0  2     7.200     10
            0  0  0  2     4.950     11
            1  0  0  1     7.900     12
            0  1  0  1     7.900     13
            0  0  1  1     7.900     14
            1  0  0  1     5.050     15
            0  1  0  1     5.050     16
            0  0  1  1     5.050     17
            2  0  0  0    10.900     18
            1  1  0  0    10.900     19
            1  0  1  0    10.900     20
            0  2  0  0    10.900     21
            0  1  1  0    10.900     22
            0  0  2  0    10.900     23
            2  0  0  0     6.050     24
            1  1  0  0     6.050     25
            1  0  1  0     6.050     26
            0  2  0  0     6.050     27
            0  1  1  0     6.050     28
            0  0  2  0     6.050     29
            2  0  0  0     3.500     30
            1  1  0  0     3.500     31
            1  0  1  0     3.500     32
            0  2  0  0     3.500     33
            0  1  1  0     3.500     34
            0  0  2  0     3.500     35
            0  0  0  3     4.500     36
            0  0  0  3     2.800     37
            0  0  0  3     1.800     38
            1  0  0  2     3.250     39
            0  1  0  2     3.250     40
            0  0  1  2     3.250     41
            1  0  0  2     1.950     42
            0  1  0  2     1.950     43
            0  0  1  2     1.950     44
            1  0  0  2     1.200     45
            0  1  0  2     1.200     46
            0  0  1  2     1.200     47
            2  0  0  1     1.800     48
            1  1  0  1     1.800     49
            1  0  1  1     1.800     50
            0  2  0  1     1.800     51
            0  1  1  1     1.800     52
            0  0  2  1     1.800     53
            3  0  0  0     1.800     54
            2  1  0  0     1.800     55
            2  0  1  0     1.800     56
            1  2  0  0     1.800     57
            1  1  1  0     1.800     58
            1  0  2  0     1.800     59
            0  3  0  0     1.800     60
            0  2  1  0     1.800     61
            0  1  2  0     1.800     62
            0  0  3  0     1.800     63
1
 ***************************************************************************************************



                                              ***********************
                                              *  T E C H N I C A L  *
                                              ***********************
  



 =============================================================
 P A R A L L E L I Z A T I O N  and  V E C T O R I Z A T I O N
 =============================================================
  
 Nr of parallel processes:                                1
 Maximum vector length in NumInt loops:                 128

 IO buffersize (Mb):                                     64.000000



 =====================
 S C F   U P D A T E S
 =====================
  
 Max. nr. of cycles:                               300
 Convergence criterion:                              0.0000000100
   secondary criterion:                              0.0000000100

 Mix parameter (when DIIS does not apply):           0.2000000000
 Special mix parameter for the first cycle:          1.0000000000
 Mixed ADIIS+DIIS will be used
    Max number of expansion vectors:                10
    Pure ADIIS when Max([F,P]) is above              0.1000000000
    Pure DIIS when Max([F,P]) is below               0.0010000000
 Automatic ElectronSmearing (in case of problematic SCF convergence) disabled



 =================
 P R E C I S I O N  ***  (General: NumInt, NeglectFunctionTails, ...)  ***
 =================
  

 NumInt:           Target precision:                12.0000000000
 -------           Initial precision:               10.0000000000
                   Min. precision (optimization):   10.0000000000

 Neglect Functions:          Basis functions:        0.1000000000E-13
 ------------------          Fit functions:          0.1000000000E-13



 ===========================
 L I N E A R   S C A L I N G
 ===========================
  

 Cut-off radii density fit:                        0.1000000000E-97
 Overlap cut-off criterion AO matrix elements:     0.1000000000E-97
 Cut-offs for Coulomb potential and fitted density:0.1000000000E-97
 Cut-off criterion for Coulomb multipole terms:    0.1000000000E-97
 Progressive Convergence parameter:                 0.000000000    
1
 ***************************************************************************************************



                                            ***************************
                                            *  C O M P U T A T I O N  *
                                            ***************************
  

 Number of elements of the density matrix on this node (used, total):      2016      2016



 ===========================================
 Numerical Integration : Fuzzy Cells (Becke)
 ===========================================
  
 Becke grid quality: VERYGOOD       
  
 Lebedev angular grid order:             min:  13 max:  41
 Nr. of radial points:                   min: 106 max: 106

 Total nr. of points:        106
 Nr. of blocks:                1
 Block length:               106
 Nr. of dummy points:          0


 Test of Precision of the Numerical Integration Grid
 ===================================================

 Integral of the Total Core Density:                   0.00000000000000



 ========================
 Density Fitting (zlmFit)
 ========================
  
 ZlmFit Fit Quality: VERYGOOD       
  
 Max L-expansion:                        min:   0 max:   0
 Nr. of radial interpolation points:     min: 240 max: 240



 =====
 S C F  ***  ScaSCF  ***
 =====
  

 CYCLE    1
 SCF Error: norm([F,P])=      0.000000000000, max([F,P])=      0.000000000000
 orbitals (Q,E):
 ---------------
 S :1...8            ( 2.00  -612.4786)  ( 2.00  -152.6714)  ( 2.00   -67.1618)  ( 2.00   -37.3471)
                     ( 0.00   -23.4672)  ( 0.00   -15.4322)  ( 0.00    -9.8352)  ( 0.00   627.8721)
 P :1...7            ( 6.00  -153.0715)  ( 6.00   -67.2002)  ( 5.00   -36.6918)  ( 0.00   -21.5714)
                     ( 0.00   -12.7861)  ( 0.00    -7.3590)  ( 0.00    16.5106)
 D :1...4            (10.00   -67.9473)  ( 0.00   -38.1263)  ( 0.00   -23.3212)  ( 0.00   -12.4393)
 F :1...1            ( 0.00   -14.1300)

 CYCLE    2
  SDIIS (wt  0.000):  1.0000 -0.0000
 A-DIIS (wt  1.000):  0.0000  1.0000
  DIIS coefficients:  0.0000  1.0000
 SCF Error: norm([F,P])=    133.903788591766, max([F,P])=     33.002638835768
 orbitals (Q,E):
 ---------------
 S :1...5            ( 2.00  -440.6623)  ( 2.00   -34.4608)  ( 2.00    -0.4838)  ( 2.00     0.2836)
                     ( 0.00     1.7588)
 P :1...4            ( 6.00   -26.4444)  ( 6.00     0.0834)  ( 5.00     0.3720)  ( 0.00     1.4169)
 D :1...2            (10.00     0.6774)  ( 0.00     3.4882)
 F :1...1            ( 0.00     1.3965)

 CYCLE    3
  SDIIS (wt  0.000):  0.1412  0.8588
 A-DIIS (wt  1.000):  0.4812  0.5188
  DIIS coefficients:  0.4812  0.5188
 SCF Error: norm([F,P])=     49.629143697465, max([F,P])=     17.595188807560
 orbitals (Q,E):
 ---------------
 S :1...5            ( 2.00  -480.8932)  ( 2.00   -64.7226)  ( 2.00   -13.6294)  ( 2.00    -3.4868)
                     ( 0.00    -0.5582)
 P :1...4            ( 6.00   -58.1726)  ( 6.00   -11.4786)  ( 5.00    -2.7508)  ( 0.00    -0.3243)
 D :1...2            (10.00    -7.6458)  ( 0.00    -1.4985)
 F :1...1            ( 0.00    -0.1774)

 CYCLE    4
  SDIIS (wt  0.000):  0.0224 -0.0021  0.9797
 A-DIIS (wt  1.000):  0.0000  0.0000  1.0000
  DIIS coefficients:  0.0000  0.0000  1.0000
 SCF Error: norm([F,P])=      9.092094844053, max([F,P])=      2.124855053538
 orbitals (Q,E):
 ---------------
 S :1...5            ( 2.00  -477.9553)  ( 2.00   -58.6455)  ( 2.00    -6.0025)  ( 2.00    -0.0887)
                     ( 0.00     0.6741)
 P :1...4            ( 6.00   -52.5726)  ( 6.00    -3.9206)  ( 5.00     0.0754)  ( 0.00     0.4470)
 D :1...2            (10.00    -0.2229)  ( 0.00     0.6460)
 F :1...1            ( 0.00     1.2104)

 CYCLE    5
  SDIIS (wt  0.000):  0.0181 -0.0308  0.6039  0.4089
 A-DIIS (wt  1.000):  0.0000  0.0000  0.5822  0.4178
  DIIS coefficients:  0.0000  0.0000  0.5822  0.4178
 SCF Error: norm([F,P])=     11.701584191545, max([F,P])=      3.988425979038
 orbitals (Q,E):
 ---------------
 S :1...5            ( 2.00  -481.8352)  ( 2.00   -62.3102)  ( 2.00    -8.5155)  ( 2.00    -0.7697)
                     ( 0.00     0.1875)
 P :1...4            ( 6.00   -56.2897)  ( 6.00    -6.4201)  ( 5.00    -0.3523)  ( 0.00     0.1239)
 D :1...2            (10.00    -2.6384)  ( 0.00     0.1906)
 F :1...1            ( 0.00     0.7840)

 CYCLE    6
  SDIIS (wt  0.000): -0.0026 -0.0016  0.0582  0.1076  0.8383
 A-DIIS (wt  1.000):  0.0000  0.0000  0.0000  0.0000  1.0000
  DIIS coefficients:  0.0000  0.0000  0.0000  0.0000  1.0000
 SCF Error: norm([F,P])=      1.823540048332, max([F,P])=      0.456619293025
 orbitals (Q,E):
 ---------------
 S :1...5            ( 2.00  -480.3974)  ( 2.00   -61.3034)  ( 2.00    -8.2095)  ( 2.00    -0.6754)
                     ( 0.00     0.2537)
 P :1...4            ( 6.00   -55.2073)  ( 6.00    -6.1080)  ( 5.00    -0.2621)  ( 0.00     0.1463)
 D :1...2            (10.00    -2.3134)  ( 0.00     0.2796)
 F :1...1            ( 0.00     0.8617)

 CYCLE    7
  SDIIS (wt  0.000): -0.0001  0.0001  0.0162 -0.0122  0.4359  0.5600
 A-DIIS (wt  1.000):  0.0000  0.0000  0.0000  0.0000  0.5218  0.4782
  DIIS coefficients:  0.0000  0.0000  0.0000  0.0000  0.5218  0.4782
 SCF Error: norm([F,P])=      1.607695839970, max([F,P])=      0.415842628956
 orbitals (Q,E):
 ---------------
 S :1...5            ( 2.00  -481.0075)  ( 2.00   -61.7929)  ( 2.00    -8.4313)  ( 2.00    -0.7171)
                     ( 0.00     0.2346)
 P :1...4            ( 6.00   -55.7193)  ( 6.00    -6.3308)  ( 5.00    -0.2925)  ( 0.00     0.1353)
 D :1...2            (10.00    -2.5382)  ( 0.00     0.2584)
 F :1...1            ( 0.00     0.8462)

 CYCLE    8
  SDIIS (wt  0.813): -0.0000  0.0000  0.0003 -0.0007  0.1156  0.1336  0.7512
 A-DIIS (wt  0.187):  0.0000  0.0000  0.0000  0.0000  0.0000  0.0000  1.0000
  DIIS coefficients: -0.0000  0.0000  0.0003 -0.0005  0.0941  0.1086  0.7976
 SCF Error: norm([F,P])=      0.065754007621, max([F,P])=      0.019467288040
 orbitals (Q,E):
 ---------------
 S :1...5            ( 2.00  -480.9996)  ( 2.00   -61.7672)  ( 2.00    -8.3915)  ( 2.00    -0.6991)
                     ( 0.00     0.2415)
 P :1...4            ( 6.00   -55.6965)  ( 6.00    -6.2914)  ( 5.00    -0.2791)  ( 0.00     0.1389)
 D :1...2            (10.00    -2.4995)  ( 0.00     0.2673)
 F :1...1            ( 0.00     0.8551)

 CYCLE    9
  SDIIS (wt  0.928): -0.0000 -0.0000 -0.0004  0.0001  0.0270  0.0241  0.3726  0.5766
 A-DIIS (wt  0.072):  0.0000  0.0000  0.0000  0.0000  0.0000  0.0000  0.1253  0.8747
  DIIS coefficients: -0.0000 -0.0000 -0.0004  0.0001  0.0251  0.0224  0.3549  0.5979
 SCF Error: norm([F,P])=      0.026013191770, max([F,P])=      0.008091160141
 orbitals (Q,E):
 ---------------
 S :1...5            ( 2.00  -481.0129)  ( 2.00   -61.7801)  ( 2.00    -8.4039)  ( 2.00    -0.7064)
                     ( 0.00     0.2380)
 P :1...4            ( 6.00   -55.7094)  ( 6.00    -6.3038)  ( 5.00    -0.2850)  ( 0.00     0.1366)
 D :1...2            (10.00    -2.5117)  ( 0.00     0.2628)
 F :1...1            ( 0.00     0.8506)

 CYCLE   10
  SDIIS (wt  1.000): -0.0000  0.0000 -0.0000 -0.0000  0.0019  0.0015  0.0216  0.0490  0.9260
  DIIS coefficients: -0.0000  0.0000 -0.0000 -0.0000  0.0019  0.0015  0.0216  0.0490  0.9260
 SCF Error: norm([F,P])=      0.000463673934, max([F,P])=      0.000100374140
 orbitals (Q,E):
 ---------------
 S :1...5            ( 2.00  -481.0128)  ( 2.00   -61.7801)  ( 2.00    -8.4038)  ( 2.00    -0.7064)
                     ( 0.00     0.2380)
 P :1...4            ( 6.00   -55.7094)  ( 6.00    -6.3036)  ( 5.00    -0.2850)  ( 0.00     0.1366)
 D :1...2            (10.00    -2.5116)  ( 0.00     0.2628)
 F :1...1            ( 0.00     0.8506)

 CYCLE   11
  SDIIS (wt  1.000): -0.0000  0.0000 -0.0000 -0.0000  0.0000  0.0000  0.0003  0.0002 -0.0123  1.0118
  DIIS coefficients: -0.0000  0.0000 -0.0000 -0.0000  0.0000  0.0000  0.0003  0.0002 -0.0123  1.0118
 SCF Error: norm([F,P])=      0.000010859570, max([F,P])=      0.000002783508
 orbitals (Q,E):
 ---------------
 S :1...5            ( 2.00  -481.0127)  ( 2.00   -61.7800)  ( 2.00    -8.4038)  ( 2.00    -0.7064)
                     ( 0.00     0.2380)
 P :1...4            ( 6.00   -55.7094)  ( 6.00    -6.3036)  ( 5.00    -0.2850)  ( 0.00     0.1366)
 D :1...2            (10.00    -2.5116)  ( 0.00     0.2628)
 F :1...1            ( 0.00     0.8506)

 CYCLE   12
  SDIIS (wt  1.000): -0.0000  0.0000  0.0000 -0.0114  1.0114
  DIIS coefficients: -0.0000  0.0000  0.0000 -0.0114  1.0114
 SCF Error: norm([F,P])=      0.000000253930, max([F,P])=      0.000000059057
 orbitals (Q,E):
 ---------------
 S :1...5            ( 2.00  -481.0127)  ( 2.00   -61.7800)  ( 2.00    -8.4038)  ( 2.00    -0.7064)
                     ( 0.00     0.2380)
 P :1...4            ( 6.00   -55.7094)  ( 6.00    -6.3036)  ( 5.00    -0.2850)  ( 0.00     0.1366)
 D :1...2            (10.00    -2.5116)  ( 0.00     0.2628)
 F :1...1            ( 0.00     0.8506)

 CYCLE   13
  SDIIS (wt  1.000):  0.0000 -0.0000 -0.0002  0.0471  0.9531
  DIIS coefficients:  0.0000 -0.0000 -0.0002  0.0471  0.9531
 SCF Error: norm([F,P])=      0.000000008155, max([F,P])=      0.000000002198
 orbitals (Q,E):
 ---------------
 S :1...5            ( 2.00  -481.0127)  ( 2.00   -61.7800)  ( 2.00    -8.4038)  ( 2.00    -0.7064)
                     ( 0.00     0.2380)
 P :1...4            ( 6.00   -55.7094)  ( 6.00    -6.3036)  ( 5.00    -0.2850)  ( 0.00     0.1366)
 D :1...2            (10.00    -2.5116)  ( 0.00     0.2628)
 F :1...1            ( 0.00     0.8506)

 SCF CONVERGED

 CYCLE   14
1
 ***************************************************************************************************



                                                *******************
                                                *  R E S U L T S  *
                                                *******************
  
 *** Setting up for NEW gradients in Focky
 *** Using FIT density in Focky

 Orbital Energies, per Irrep and Spin:
 ======================================
                        Occup              E (au)              E (eV)       Diff (eV) with prev. cycle
                        -----      --------------------        ------       --------------------------
 S
               1        2.000     -0.48101274587878E+03    -13089.023              -3.04E-09
               2        2.000     -0.61780048652771E+02     -1681.121              -1.34E-09
               3        2.000     -0.84037718795878E+01      -228.678              -2.41E-09
               4        2.000     -0.70640809652969E+00       -19.222              -2.95E-09
               5        0.000      0.23797090184223E+00         6.476
               6        0.000      0.24655941619106E+01        67.092
               7        0.000      0.14293653166501E+02       388.950
               8        0.000      0.74647931329125E+03     20312.736
 P
               1        6.000     -0.55709370544448E+02     -1515.929              -1.52E-09
               2        6.000     -0.63036166135521E+01      -171.530              -2.40E-09
               3        5.000     -0.28498840632730E+00        -7.755              -2.43E-09
               4        0.000      0.13662305746043E+00         3.718
               5        0.000      0.12150701661255E+01        33.064
               6        0.000      0.88352207867398E+01       240.419
               7        0.000      0.10087703617678E+03      2745.004
 D
               1       10.000     -0.25115984206637E+01       -68.344              -2.32E-09
               2        0.000      0.26280809227207E+00         7.151
               3        0.000      0.26773687643252E+01        72.855
               4        0.000      0.20605889125446E+02       560.715
 F
               1        0.000      0.85063213392399E+00        23.147


 Partially Occupied:
               3 P                -0.28498840632730E+00
  
 HOMO :        4 S                -0.70640809652969E+00
 LUMO :        4 P                 0.13662305746043E+00
  


 Orbital Energies, all Irreps
 ========================================

 Irrep        no.  (spin)   Occup              E (au)                E (eV)
 ---------------------------------------------------------------------------
 S             1             2.00       -0.48101274587878E+03    -13089.0228
 S             2             2.00       -0.61780048652771E+02     -1681.1207
 P             1             6.00       -0.55709370544448E+02     -1515.9291
 S             3             2.00       -0.84037718795878E+01      -228.6783
 P             2             6.00       -0.63036166135521E+01      -171.5301
 D             1            10.00       -0.25115984206637E+01       -68.3441
 S             4             2.00       -0.70640809652969E+00       -19.2223
 P             3             5.00       -0.28498840632730E+00        -7.7549
 P             4             0.00        0.13662305746043E+00         3.7177
 S             5             0.00        0.23797090184223E+00         6.4755
 D             2             0.00        0.26280809227207E+00         7.1514
 F             1             0.00        0.85063213392399E+00        23.1469
 P             5             0.00        0.12150701661255E+01        33.0637
 S             6             0.00        0.24655941619106E+01        67.0922
 D             3             0.00        0.26773687643252E+01        72.8549
 P             6             0.00        0.88352207867398E+01       240.4186
 S             7             0.00        0.14293653166501E+02       388.9501
 D             4             0.00        0.20605889125446E+02       560.7148
 P             7             0.00        0.10087703617678E+03      2745.0038
 S             8             0.00        0.74647931329125E+03     20312.7356


 All Electron Calculation, thus no Orbital Energies of the Core Orbitals are calculated



 =======================================
 M U L L I K E N   P O P U L A T I O N S
 =======================================
  
 The survey below gives for each atom:
 a) the total charge (Z minus electrons)
 b) the net spin polarization (nr of electrons spin-A minus spin-B)
 c) for each spin the atomic electron valence density (integrated) per L-value.

 Atom              Charge    Spin density          S         P         D         F
 ----              ------    ------------       ------    ------    ------    ------
 1 Br              0.0000                       8.0000   17.0000   10.0000    0.0000

 Populations of individual BAS functions
 ----------------------------------------
 1 Br           0.3604  1.5689  2.0728  0.7136  0.7136  0.7136  1.2644  1.2644  1.2644  1.4494
                0.5676  1.1356  1.1356  1.1356  0.8920  0.8920  0.8920  0.2683  0.4025  0.4025
                0.2683  0.4025  0.2683  0.7743  1.1615  1.1615  0.7743  1.1615  0.7743  0.2907
                0.4361  0.4361  0.2907  0.4361  0.2907  0.2958  1.2583  0.4268  0.5585  0.5585
                0.5585  0.8946  0.8946  0.8946  0.2080  0.2080  0.2080 -0.0001 -0.0001 -0.0001
               -0.0001 -0.0001 -0.0001  0.0000  0.0000  0.0000  0.0000  0.0000  0.0000  0.0000
                0.0000  0.0000  0.0000

 Gross Charges per Atom (Z minus electrons)
 ==========================================
             0.0000
 Net Total:  0.00000000



 =======================================================================
 Electrostatic potential at the Nuclei due to electrons and other nuclei
 =======================================================================
  
         Atom                  Potential
         ----                  ---------
     1)   Br                175.92949555
 
 
 ========================
 No memory problems found
 ========================
 
 Maximum number of active allocate calls:         447
 
 *******************************************************************************

                             A D F   E X I T
 NORMAL TERMINATION



 =================
 Timing Statistics
 =================
  
 Total Used :                     CPU=        0.82      System=        0.04     Elapsed=        0.85

 Calls  Section                     ( Mean, Percentage )
 ---------------------------------------------------------------------------------------------------
     3  ><      ................      0.00    0.00             0.00    0.00             0.00    0.09
     1  INIT    ................      0.01    1.10             0.02   44.45             0.03    3.07
     1  GEOMET  ................      0.01    0.74             0.00    8.33             0.01    1.00
     1  INPUTA  ................      0.00    0.25             0.00    0.00             0.00    0.19
     1  MAINSY  ................      0.00    0.37             0.00    8.33             0.01    0.70
     1  SYMFIT  ................      0.00    0.00             0.00    2.78             0.00    0.09
     1  CORORT  ................      0.00    0.00             0.00    0.00             0.00    0.03
     1  SYMORB  ................      0.00    0.12             0.00    0.00             0.00    0.08
     1  CLSMAT  ................      0.00    0.61             0.00    0.00             0.01    0.62
     1  ORTHON  ................      0.00    0.25             0.00    0.00             0.00    0.19
     1  GENPT   ................      0.02    3.06             0.00    0.00             0.02    2.93
     1  PTBAS   ................      0.00    0.12             0.00    5.55             0.00    0.43
    14  FOCKY   ................      0.05   82.48             0.00    8.33             0.05   78.91
    14  FOCKTR  ................      0.00    1.47             0.00    2.78             0.00    1.48
    14  SDIIS   ................      0.00    2.33             0.00    5.56             0.00    2.79
     1  COREPS  ................      0.03    4.29             0.00    2.78             0.04    4.28
     1  POPAN   ................      0.00    0.61             0.00    0.00             0.01    0.62
     1  DEBYE   ................      0.00    0.12             0.00    0.00             0.00    0.10
     1  EXIT PROCEDURE .........      0.02    2.08             0.00   11.11             0.02    2.40


 Currently Open Files (EXIT00)
 ====================

 Unit    Access Format  Status   Type       Ident (file)
 -------------------------------------------------------
   3      SEQ    FORM   TRANSP  NORMAL      LOGFILE
                                          ( logfile )


 Buffered I/O statistics
 =======================
 Memory available:                     67108864
 Number of records fitting in memory:     16131
 Input :   0.1% of                        29683  *4k bytes
 Output:  11.9% of                         1574  *4k bytes
 Records from serial files evicted:           0
                    others evicted:           0
 Hash table lookups:      77061 with          0 conflicts (  0.00%)

 ***************************************************************************************************
 (LOGFILE)
 <Apr18-2019> <14:06:44>  ADF development version  RunTime: Apr18-2019 14:06:44  Nodes: 1  Procs: 1
 <Apr18-2019> <14:06:44>  Bromine (TZ2P)
 <Apr18-2019> <14:06:44>  RunType   : CREATE
 <Apr18-2019> <14:06:44>  Net Charge: 0 (Nuclei minus Electrons)
 <Apr18-2019> <14:06:44>  Symmetry  : ATOM
  Coordinates
    Atom         X           Y           Z   (Angstrom)
    1.Br        0.000000    0.000000    0.000000
 <Apr18-2019> <14:06:44>  >>>> CORORT
 <Apr18-2019> <14:06:44>  >>>> CLSMAT
 <Apr18-2019> <14:06:44>  >>>> ORTHON
 <Apr18-2019> <14:06:44>  >>>> GENPT
 <Apr18-2019> <14:06:44>  Block Length= 106
 <Apr18-2019> <14:06:44>  >>>> PTBAS
 <Apr18-2019> <14:06:44>  >>>> CYCLE
 <Apr18-2019> <14:06:44>              |Error|         MaxErr       Wt(A-DIIS)
 <Apr18-2019> <14:06:44>      1      0.00000000      0.00000000
 <Apr18-2019> <14:06:44>      2    133.90378859     33.00263884    100.0
 <Apr18-2019> <14:06:44>      3     49.62914370     17.59518881    100.0
 <Apr18-2019> <14:06:44>      4      9.09209484      2.12485505    100.0
 <Apr18-2019> <14:06:44>      5     11.70158419      3.98842598    100.0
 <Apr18-2019> <14:06:44>      6      1.82354005      0.45661929    100.0
 <Apr18-2019> <14:06:44>      7      1.60769584      0.41584263    100.0
 <Apr18-2019> <14:06:44>      8      0.06575401      0.01946729     18.7
 <Apr18-2019> <14:06:44>      9      0.02601319      0.00809116      7.2
 <Apr18-2019> <14:06:44>     10      0.00046367      0.00010037      0.0
 <Apr18-2019> <14:06:44>     11      0.00001086      0.00000278      0.0
 <Apr18-2019> <14:06:45>     12      0.00000025      0.00000006      0.0
 <Apr18-2019> <14:06:45>     13      0.00000001      0.00000000      0.0
 <Apr18-2019> <14:06:45>  SCF converged
 <Apr18-2019> <14:06:45>     14      0.00000000      0.00000000      0.0
 <Apr18-2019> <14:06:45>  >>>> POPAN
 <Apr18-2019> <14:06:45>  >>>> DEBYE
 <Apr18-2019> <14:06:45>  NORMAL TERMINATION
 <Apr18-2019> <14:06:45>  END

Create H   file=TZ2P-H
XC
  GGA blyp
  DISPERSION Grimme3 BJDAMP
End
End Input

 *******************************************************************************
 *                                                                             *
 *  -------------------------------------                                      *
 *   Amsterdam Density Functional  (ADF)         development version           *
 *  -------------------------------------                                      *
 *                                               r61132 2017-09-08             *
 *                                                                             *
 *                                                                             *
 *                              =================                              *
 *                              |               |                              *
 *                              |     A D F     |                              *
 *                              |               |                              *
 *                              =================                              *
 *                                                                             *
 *                                                                             *
 *   Online information and documentation:  https://www.scm.com/support/       *
 *   E-mail:  support@scm.com   info@scm.com                                   *
 *                                                                             *
 *   Scientific publications using ADF results must be properly referenced     *
 *   See the User Manuals (or the web site) for recommended citations          *
 *   The terms and conditions of the End User License Agreement apply to       *
 *   the use of ADF, https://www.scm.com/license-terms/                        *
 *                                                                             *
 **********************  x86_64_linux_intel / intelmpi  ************************
 
 Licensed to: VU/FEW (+ SARA) / ALGEMEEN / Amsterdam / THE NETHERLANDS
 SCM User ID: u7668
  
 ADF development version  RunTime: Apr18-2019 14:06:45  Nodes: 1  Procs: 1

 Temporary files are created in /local/datastore0/tcst25/186719/kid_0.zHtzaX

 Hydrogen (TZ2P)



 ===========================
 A T T A C H E D   F I L E S
 ===========================
  
 CREATE - Data File:    TZ2P-H
                        Hydrogen (TZ2P)



 ===============================
 M O D E L   P A R A M E T E R S
 ===============================
  
 DENSITY FUNCTIONAL POTENTIAL (scf)
    LDA:                               Exchange only                           == Not Default ==
    Gradient Corrections:              Becke88 LYP                             == Not Default ==

 SPIN  (restricted / unrestr.)
    Molecule:                          Restricted                               

 OTHER ASPECTS
    Relativistic Corrections:          ---                                      

    Nuclear Charge Density Model:      Point Charge Nuclei                      
    Core Treatment:                    Frozen Orbital(s)                        

    Hyperfine or Zeeman Interaction:   ---                                      

 Settings for Grimme 3 dispersion correction

      damping                        BJ
      s6                          1.000
      a1                          0.430
      s8                          2.700
      a2                          4.236

 Other (technical) parameters

      alpha                      14.000
      version                         4
 



 =====================================
 S Y M M E T R Y ,   E L E C T R O N S
 =====================================
  
 Symmetry: ATOM

 Irreducible Representations, including subspecies
 -------------------------------------------------
 S
 P:x  P:y  P:z
 D:z2  D:x2-y2  D:xy  D:xz  D:yz
 F:z3  F:z  F:xyz  F:z2x  F:z2y  F:x  F:y


 Configuration of Valence Electrons
 ==================================

          Occupation Numbers
          -------------------------------------------------
 S        1
 P        0
 D        0
 F        0
          -------------------------------------------------

 Total:   1

 Net Charge: 0 (Nuclei minus Electrons)

 Preset values for MO occupations will be applied through SCF cycle no. 1000000
 Thereafter, the program will assign electrons to MOs that are spatially
 similar to the occupied MOs in a "reference" cycle ("KeepOrbitals").
 The reference cycle is always the PREVIOUS cycle: it will evolve with
 the SCF procedure.



 ================================
 (Slater-type)  F U N C T I O N S  ***  (Basis and Fit)  ***
 ================================
  

 Atom Type    1  (H)
 ==============

 Valence Basis Sets:   5
 -----------------------
   1 S    0.690000
   1 S    0.920000
   1 S    1.580000
   2 P    1.250000
   3 D    2.500000


 BAS: List of all Elementary Cartesian Basis Functions
 =====================================================

 The numbering in the list below (to the right of the function characteristics) is referred
 to in print-outs of MO eigenvectors and Mulliken populations in the BAS representation
 (as contrasted to the SFO representation).

 Notes:
 1. The functions are characterized by a polynomial prefactor (powers of x,y,z and r) and
    an exponential decay factor alpha.
 2. Since the basis sets are specific for an atom TYPE, the individual functions occur on
    all atoms of that type.
 3. The word 'Core' in the left margin signals that it is a Core Function (CF) : not a
    degree of freedom in the valence set, but only used to ensure orthogonalization of
    the other valence basis functions on the frozen Core Orbitals.


 (power of) X  Y  Z  R     Alpha  on Atom
            ==========     =====     ==========

 H                                    1
                                  ---------------------------------------------------------------------------
            0  0  0  0     0.690      1
            0  0  0  0     0.920      2
            0  0  0  0     1.580      3
            1  0  0  0     1.250      4
            0  1  0  0     1.250      5
            0  0  1  0     1.250      6
            2  0  0  0     2.500      7
            1  1  0  0     2.500      8
            1  0  1  0     2.500      9
            0  2  0  0     2.500     10
            0  1  1  0     2.500     11
            0  0  2  0     2.500     12

 Total number of charge fitting functions (nprimf)        50
 Total number of Cartesian basis functions (naos)         12
 Total number of Cartesian core functions  (ncos)          0



 BAS: List of all Elementary Cartesian Basis Functions
 =====================================================

 The numbering in the list below (to the right of the function characteristics) is referred
 to in print-outs of MO eigenvectors and Mulliken populations in the BAS representation
 (as contrasted to the SFO representation).

 Notes:
 1. The functions are characterized by a polynomial prefactor (powers of x,y,z and r) and
    an exponential decay factor alpha.
 2. Since the basis sets are specific for an atom TYPE, the individual functions occur on
    all atoms of that type.
 3. The word 'Core' in the left margin signals that it is a Core Function (CF) : not a
    degree of freedom in the valence set, but only used to ensure orthogonalization of
    the other valence basis functions on the frozen Core Orbitals.


 (power of) X  Y  Z  R     Alpha  on Atom
            ==========     =====     ==========

 H                                    1
                                  ---------------------------------------------------------------------------
            0  0  0  0     0.690      1
            0  0  0  0     0.920      2
            0  0  0  0     1.580      3
            1  0  0  0     1.250      4
            0  1  0  0     1.250      5
            0  0  1  0     1.250      6
            2  0  0  0     2.500      7
            1  1  0  0     2.500      8
            1  0  1  0     2.500      9
            0  2  0  0     2.500     10
            0  1  1  0     2.500     11
            0  0  2  0     2.500     12
1
 ***************************************************************************************************



                                              ***********************
                                              *  T E C H N I C A L  *
                                              ***********************
  



 =============================================================
 P A R A L L E L I Z A T I O N  and  V E C T O R I Z A T I O N
 =============================================================
  
 Nr of parallel processes:                                1
 Maximum vector length in NumInt loops:                 128

 IO buffersize (Mb):                                     64.000000



 =====================
 S C F   U P D A T E S
 =====================
  
 Max. nr. of cycles:                               300
 Convergence criterion:                              0.0000000100
   secondary criterion:                              0.0000000100

 Mix parameter (when DIIS does not apply):           0.2000000000
 Special mix parameter for the first cycle:          1.0000000000
 Mixed ADIIS+DIIS will be used
    Max number of expansion vectors:                10
    Pure ADIIS when Max([F,P]) is above              0.1000000000
    Pure DIIS when Max([F,P]) is below               0.0010000000
 Automatic ElectronSmearing (in case of problematic SCF convergence) disabled



 =================
 P R E C I S I O N  ***  (General: NumInt, NeglectFunctionTails, ...)  ***
 =================
  

 NumInt:           Target precision:                12.0000000000
 -------           Initial precision:               10.0000000000
                   Min. precision (optimization):   10.0000000000

 Neglect Functions:          Basis functions:        0.1000000000E-13
 ------------------          Fit functions:          0.1000000000E-13



 ===========================
 L I N E A R   S C A L I N G
 ===========================
  

 Cut-off radii density fit:                        0.1000000000E-97
 Overlap cut-off criterion AO matrix elements:     0.1000000000E-97
 Cut-offs for Coulomb potential and fitted density:0.1000000000E-97
 Cut-off criterion for Coulomb multipole terms:    0.1000000000E-97
 Progressive Convergence parameter:                 0.000000000    
1
 ***************************************************************************************************



                                            ***************************
                                            *  C O M P U T A T I O N  *
                                            ***************************
  

 Number of elements of the density matrix on this node (used, total):        78        78



 ===========================================
 Numerical Integration : Fuzzy Cells (Becke)
 ===========================================
  
 Becke grid quality: VERYGOOD       
  
 Lebedev angular grid order:             min:  13 max:  41
 Nr. of radial points:                   min:  64 max:  64

 Total nr. of points:         64
 Nr. of blocks:                1
 Block length:                64
 Nr. of dummy points:          0


 Test of Precision of the Numerical Integration Grid
 ===================================================

 Integral of the Total Core Density:                   0.00000000000000



 ========================
 Density Fitting (zlmFit)
 ========================
  
 ZlmFit Fit Quality: VERYGOOD       
  
 Max L-expansion:                        min:   0 max:   0
 Nr. of radial interpolation points:     min: 130 max: 130



 =====
 S C F  ***  ScaSCF  ***
 =====
  

 CYCLE    1
 SCF Error: norm([F,P])=      0.000000000000, max([F,P])=      0.000000000000
 orbitals (Q,E):
 ---------------
 S :1...3            ( 1.00    -0.5000)  ( 0.00    -0.0900)  ( 0.00     1.2939)
 P :1...1            ( 0.00     0.1562)
 D :1...1            ( 0.00     2.2917)

 CYCLE    2
 SCF Error: norm([F,P])=      0.031002856008, max([F,P])=      0.026444239384
 orbitals (Q,E):
 ---------------
 S :1...2            ( 1.00    -0.2236)  ( 0.00     0.0977)
 P :1...1            ( 0.00     0.4190)
 D :1...1            ( 0.00     2.5863)

 CYCLE    3
  SDIIS (wt  0.000):  0.2055  0.7945
 A-DIIS (wt  1.000):  0.0000  1.0000
  DIIS coefficients:  0.0000  1.0000
 SCF Error: norm([F,P])=      0.009580013340, max([F,P])=      0.009328518993
 orbitals (Q,E):
 ---------------
 S :1...2            ( 1.00    -0.2440)  ( 0.00     0.0860)
 P :1...1            ( 0.00     0.4030)
 D :1...1            ( 0.00     2.5655)

 CYCLE    4
  SDIIS (wt  0.987):  0.1949  0.8051
 A-DIIS (wt  0.013):  0.0000  1.0000
  DIIS coefficients:  0.1923  0.8077
 SCF Error: norm([F,P])=      0.002320932075, max([F,P])=      0.002286403159
 orbitals (Q,E):
 ---------------
 S :1...2            ( 1.00    -0.2400)  ( 0.00     0.0880)
 P :1...1            ( 0.00     0.4062)
 D :1...1            ( 0.00     2.5697)

 CYCLE    5
  SDIIS (wt  1.000):  0.0132  0.9868
  DIIS coefficients:  0.0132  0.9868
 SCF Error: norm([F,P])=      0.000031553206, max([F,P])=      0.000029840661
 orbitals (Q,E):
 ---------------
 S :1...2            ( 1.00    -0.2400)  ( 0.00     0.0880)
 P :1...1            ( 0.00     0.4062)
 D :1...1            ( 0.00     2.5697)

 CYCLE    6
  SDIIS (wt  1.000): -0.0314  1.0314
  DIIS coefficients: -0.0314  1.0314
 SCF Error: norm([F,P])=      0.000000959925, max([F,P])=      0.000000913629
 orbitals (Q,E):
 ---------------
 S :1...2            ( 1.00    -0.2400)  ( 0.00     0.0880)
 P :1...1            ( 0.00     0.4062)
 D :1...1            ( 0.00     2.5697)

 CYCLE    7
  SDIIS (wt  1.000):  0.0045  0.9955
  DIIS coefficients:  0.0045  0.9955
 SCF Error: norm([F,P])=      0.000000004387, max([F,P])=      0.000000004212
 orbitals (Q,E):
 ---------------
 S :1...2            ( 1.00    -0.2400)  ( 0.00     0.0880)
 P :1...1            ( 0.00     0.4062)
 D :1...1            ( 0.00     2.5697)

 SCF CONVERGED

 CYCLE    8
1
 ***************************************************************************************************



                                                *******************
                                                *  R E S U L T S  *
                                                *******************
  
 *** Setting up for NEW gradients in Focky
 *** Using FIT density in Focky

 Orbital Energies, per Irrep and Spin:
 ======================================
                        Occup              E (au)              E (eV)       Diff (eV) with prev. cycle
                        -----      --------------------        ------       --------------------------
 S
               1        1.000     -0.24003723730291E+00        -6.532              -1.36E-09
               2        0.000      0.87974178151410E-01         2.394
               3        0.000      0.15021841144445E+01        40.877
 P
               1        0.000      0.40615190499536E+00        11.052
 D
               1        0.000      0.25696970808913E+01        69.925


 Partially Occupied:
               1 S                -0.24003723730291E+00
  
 LUMO :        2 S                 0.87974178151410E-01
  


 Orbital Energies, all Irreps
 ========================================

 Irrep        no.  (spin)   Occup              E (au)                E (eV)
 ---------------------------------------------------------------------------
 S             1             1.00       -0.24003723730291E+00        -6.5317
 S             2             0.00        0.87974178151410E-01         2.3939
 P             1             0.00        0.40615190499536E+00        11.0520
 S             3             0.00        0.15021841144445E+01        40.8765
 D             1             0.00        0.25696970808913E+01        69.9250


 All Electron Calculation, thus no Orbital Energies of the Core Orbitals are calculated



 =======================================
 M U L L I K E N   P O P U L A T I O N S
 =======================================
  
 The survey below gives for each atom:
 a) the total charge (Z minus electrons)
 b) the net spin polarization (nr of electrons spin-A minus spin-B)
 c) for each spin the atomic electron valence density (integrated) per L-value.

 Atom              Charge    Spin density          S         P         D         F
 ----              ------    ------------       ------    ------    ------    ------
 1 H              -0.0000                       1.0000    0.0000    0.0000    0.0000

 Populations of individual BAS functions
 ----------------------------------------
 1 H            0.2458  0.6250  0.1292  0.0000  0.0000  0.0000  0.0000  0.0000  0.0000  0.0000
                0.0000  0.0000

 Gross Charges per Atom (Z minus electrons)
 ==========================================
            -0.0000
 Net Total: -0.00000000



 =======================================================================
 Electrostatic potential at the Nuclei due to electrons and other nuclei
 =======================================================================
  
         Atom                  Potential
         ----                  ---------
     1)   H                   0.94873442
 
 
 ========================
 No memory problems found
 ========================
 
 Maximum number of active allocate calls:         363
 
 *******************************************************************************

                             A D F   E X I T
 NORMAL TERMINATION



 =================
 Timing Statistics
 =================
  
 Total Used :                     CPU=        0.30      System=        0.02     Elapsed=        0.33

 Calls  Section                     ( Mean, Percentage )
 ---------------------------------------------------------------------------------------------------
     3  ><      ................      0.00    0.00             0.00    4.17             0.00    0.24
     1  INIT    ................      0.01    2.99             0.01   62.50             0.03    7.89
     1  GEOMET  ................      0.01    1.99             0.00    8.33             0.01    2.56
     1  INPUTA  ................      0.00    0.66             0.00    0.00             0.00    0.45
     1  MAINSY  ................      0.00    1.00             0.00    8.33             0.01    1.73
     1  SYMFIT  ................      0.00    0.00             0.00    4.16             0.00    0.24
     1  CORORT  ................      0.00    0.00             0.00    0.00             0.00    0.08
     1  SYMORB  ................      0.00    0.33             0.00    0.00             0.00    0.16
     1  CLSMAT  ................      0.00    1.33             0.00    0.00             0.00    1.20
     1  ORTHON  ................      0.00    0.33             0.00    0.00             0.00    0.38
     1  GENPT   ................      0.01    3.32             0.00    0.00             0.01    2.97
     1  PTBAS   ................      0.00    1.00             0.00    0.00             0.00    1.03
     8  FOCKY   ................      0.03   68.11             0.00   12.50             0.03   64.09
     8  FOCKTR  ................      0.00    1.99             0.00    0.00             0.00    1.69
     8  SDIIS   ................      0.00    4.65             0.00    0.00             0.00    3.89
     1  COREPS  ................      0.01    4.98             0.00    0.00             0.02    4.80
     1  POPAN   ................      0.00    1.33             0.00    0.00             0.00    1.15
     1  DEBYE   ................      0.00    0.33             0.00    0.00             0.00    0.15
     1  EXIT PROCEDURE .........      0.02    5.65             0.00    0.00             0.02    5.31


 Currently Open Files (EXIT00)
 ====================

 Unit    Access Format  Status   Type       Ident (file)
 -------------------------------------------------------
   3      SEQ    FORM   TRANSP  NORMAL      LOGFILE
                                          ( logfile )


 Buffered I/O statistics
 =======================
 Memory available:                     67108864
 Number of records fitting in memory:     16131
 Input :   0.2% of                        17484  *4k bytes
 Output:  15.2% of                         1046  *4k bytes
 Records from serial files evicted:           0
                    others evicted:           0
 Hash table lookups:      44693 with          0 conflicts (  0.00%)

 ***************************************************************************************************
 (LOGFILE)
 <Apr18-2019> <14:06:44>  ADF development version  RunTime: Apr18-2019 14:06:44  Nodes: 1  Procs: 1
 <Apr18-2019> <14:06:44>  Bromine (TZ2P)
 <Apr18-2019> <14:06:44>  RunType   : CREATE
 <Apr18-2019> <14:06:44>  Net Charge: 0 (Nuclei minus Electrons)
 <Apr18-2019> <14:06:44>  Symmetry  : ATOM
  Coordinates
    Atom         X           Y           Z   (Angstrom)
    1.Br        0.000000    0.000000    0.000000
 <Apr18-2019> <14:06:44>  >>>> CORORT
 <Apr18-2019> <14:06:44>  >>>> CLSMAT
 <Apr18-2019> <14:06:44>  >>>> ORTHON
 <Apr18-2019> <14:06:44>  >>>> GENPT
 <Apr18-2019> <14:06:44>  Block Length= 106
 <Apr18-2019> <14:06:44>  >>>> PTBAS
 <Apr18-2019> <14:06:44>  >>>> CYCLE
 <Apr18-2019> <14:06:44>              |Error|         MaxErr       Wt(A-DIIS)
 <Apr18-2019> <14:06:44>      1      0.00000000      0.00000000
 <Apr18-2019> <14:06:44>      2    133.90378859     33.00263884    100.0
 <Apr18-2019> <14:06:44>      3     49.62914370     17.59518881    100.0
 <Apr18-2019> <14:06:44>      4      9.09209484      2.12485505    100.0
 <Apr18-2019> <14:06:44>      5     11.70158419      3.98842598    100.0
 <Apr18-2019> <14:06:44>      6      1.82354005      0.45661929    100.0
 <Apr18-2019> <14:06:44>      7      1.60769584      0.41584263    100.0
 <Apr18-2019> <14:06:44>      8      0.06575401      0.01946729     18.7
 <Apr18-2019> <14:06:44>      9      0.02601319      0.00809116      7.2
 <Apr18-2019> <14:06:44>     10      0.00046367      0.00010037      0.0
 <Apr18-2019> <14:06:44>     11      0.00001086      0.00000278      0.0
 <Apr18-2019> <14:06:45>     12      0.00000025      0.00000006      0.0
 <Apr18-2019> <14:06:45>     13      0.00000001      0.00000000      0.0
 <Apr18-2019> <14:06:45>  SCF converged
 <Apr18-2019> <14:06:45>     14      0.00000000      0.00000000      0.0
 <Apr18-2019> <14:06:45>  >>>> POPAN
 <Apr18-2019> <14:06:45>  >>>> DEBYE
 <Apr18-2019> <14:06:45>  NORMAL TERMINATION
 <Apr18-2019> <14:06:45>  END
 <Apr18-2019> <14:06:45>  ADF development version  RunTime: Apr18-2019 14:06:45  Nodes: 1  Procs: 1
 <Apr18-2019> <14:06:45>  Hydrogen (TZ2P)
 <Apr18-2019> <14:06:45>  RunType   : CREATE
 <Apr18-2019> <14:06:45>  Net Charge: 0 (Nuclei minus Electrons)
 <Apr18-2019> <14:06:45>  Symmetry  : ATOM
  Coordinates
    Atom         X           Y           Z   (Angstrom)
    1.H         0.000000    0.000000    0.000000
 <Apr18-2019> <14:06:45>  >>>> CORORT
 <Apr18-2019> <14:06:45>  >>>> CLSMAT
 <Apr18-2019> <14:06:45>  >>>> ORTHON
 <Apr18-2019> <14:06:45>  >>>> GENPT
 <Apr18-2019> <14:06:45>  Block Length=  64
 <Apr18-2019> <14:06:45>  >>>> PTBAS
 <Apr18-2019> <14:06:45>  >>>> CYCLE
 <Apr18-2019> <14:06:45>              |Error|         MaxErr       Wt(A-DIIS)
 <Apr18-2019> <14:06:45>      1      0.00000000      0.00000000
 <Apr18-2019> <14:06:45>      2      0.03100286      0.02644424
 <Apr18-2019> <14:06:45>      3      0.00958001      0.00932852    100.0
 <Apr18-2019> <14:06:45>      4      0.00232093      0.00228640      1.3
 <Apr18-2019> <14:06:45>      5      0.00003155      0.00002984      0.0
 <Apr18-2019> <14:06:45>      6      0.00000096      0.00000091      0.0
 <Apr18-2019> <14:06:45>      7      0.00000000      0.00000000      0.0
 <Apr18-2019> <14:06:45>  SCF converged
 <Apr18-2019> <14:06:45>      8      0.00000000      0.00000000      0.0
 <Apr18-2019> <14:06:45>  >>>> POPAN
 <Apr18-2019> <14:06:45>  >>>> DEBYE
 <Apr18-2019> <14:06:45>  NORMAL TERMINATION
 <Apr18-2019> <14:06:45>  END

Create F   file=TZ2P-F
XC
  GGA blyp
  DISPERSION Grimme3 BJDAMP
End
End Input

 *******************************************************************************
 *                                                                             *
 *  -------------------------------------                                      *
 *   Amsterdam Density Functional  (ADF)         development version           *
 *  -------------------------------------                                      *
 *                                               r61132 2017-09-08             *
 *                                                                             *
 *                                                                             *
 *                              =================                              *
 *                              |               |                              *
 *                              |     A D F     |                              *
 *                              |               |                              *
 *                              =================                              *
 *                                                                             *
 *                                                                             *
 *   Online information and documentation:  https://www.scm.com/support/       *
 *   E-mail:  support@scm.com   info@scm.com                                   *
 *                                                                             *
 *   Scientific publications using ADF results must be properly referenced     *
 *   See the User Manuals (or the web site) for recommended citations          *
 *   The terms and conditions of the End User License Agreement apply to       *
 *   the use of ADF, https://www.scm.com/license-terms/                        *
 *                                                                             *
 **********************  x86_64_linux_intel / intelmpi  ************************
 
 Licensed to: VU/FEW (+ SARA) / ALGEMEEN / Amsterdam / THE NETHERLANDS
 SCM User ID: u7668
  
 ADF development version  RunTime: Apr18-2019 14:06:45  Nodes: 1  Procs: 1

 Temporary files are created in /local/datastore0/tcst25/186719/kid_0.EAevin

 Fluorine (TZ2P)



 ===========================
 A T T A C H E D   F I L E S
 ===========================
  
 CREATE - Data File:    TZ2P-F
                        Fluorine (TZ2P)



 ===============================
 M O D E L   P A R A M E T E R S
 ===============================
  
 DENSITY FUNCTIONAL POTENTIAL (scf)
    LDA:                               Exchange only                           == Not Default ==
    Gradient Corrections:              Becke88 LYP                             == Not Default ==

 SPIN  (restricted / unrestr.)
    Molecule:                          Restricted                               

 OTHER ASPECTS
    Relativistic Corrections:          ---                                      

    Nuclear Charge Density Model:      Point Charge Nuclei                      
    Core Treatment:                    Frozen Orbital(s)                        

    Hyperfine or Zeeman Interaction:   ---                                      

 Settings for Grimme 3 dispersion correction

      damping                        BJ
      s6                          1.000
      a1                          0.430
      s8                          2.700
      a2                          4.236

 Other (technical) parameters

      alpha                      14.000
      version                         4
 



 =====================================
 S Y M M E T R Y ,   E L E C T R O N S
 =====================================
  
 Symmetry: ATOM

 Irreducible Representations, including subspecies
 -------------------------------------------------
 S
 P:x  P:y  P:z
 D:z2  D:x2-y2  D:xy  D:xz  D:yz
 F:z3  F:z  F:xyz  F:z2x  F:z2y  F:x  F:y


 Configuration of Valence Electrons
 ==================================

          Occupation Numbers
          -------------------------------------------------
 S        2*2
 P        5
 D        0
 F        0
          -------------------------------------------------

 Total:   9

 Net Charge: 0 (Nuclei minus Electrons)

 Preset values for MO occupations will be applied through SCF cycle no. 1000000
 Thereafter, the program will assign electrons to MOs that are spatially
 similar to the occupied MOs in a "reference" cycle ("KeepOrbitals").
 The reference cycle is always the PREVIOUS cycle: it will evolve with
 the SCF procedure.



 ================================
 (Slater-type)  F U N C T I O N S  ***  (Basis and Fit)  ***
 ================================
  

 Atom Type    1  (F)
 ==============

 Valence Basis Sets:  10
 -----------------------
   1 S   10.880000
   1 S    7.700000
   2 S    3.240000
   2 S    1.940000
   2 S    0.740000
   2 P    4.540000
   2 P    2.300000
   2 P    1.240000
   3 D    2.000000
   4 F    3.000000


 BAS: List of all Elementary Cartesian Basis Functions
 =====================================================

 The numbering in the list below (to the right of the function characteristics) is referred
 to in print-outs of MO eigenvectors and Mulliken populations in the BAS representation
 (as contrasted to the SFO representation).

 Notes:
 1. The functions are characterized by a polynomial prefactor (powers of x,y,z and r) and
    an exponential decay factor alpha.
 2. Since the basis sets are specific for an atom TYPE, the individual functions occur on
    all atoms of that type.
 3. The word 'Core' in the left margin signals that it is a Core Function (CF) : not a
    degree of freedom in the valence set, but only used to ensure orthogonalization of
    the other valence basis functions on the frozen Core Orbitals.


 (power of) X  Y  Z  R     Alpha  on Atom
            ==========     =====     ==========

 F                                    1
                                  ---------------------------------------------------------------------------
            0  0  0  0    10.880      1
            0  0  0  0     7.700      2
            0  0  0  1     3.240      3
            0  0  0  1     1.940      4
            0  0  0  1     0.740      5
            1  0  0  0     4.540      6
            0  1  0  0     4.540      7
            0  0  1  0     4.540      8
            1  0  0  0     2.300      9
            0  1  0  0     2.300     10
            0  0  1  0     2.300     11
            1  0  0  0     1.240     12
            0  1  0  0     1.240     13
            0  0  1  0     1.240     14
            2  0  0  0     2.000     15
            1  1  0  0     2.000     16
            1  0  1  0     2.000     17
            0  2  0  0     2.000     18
            0  1  1  0     2.000     19
            0  0  2  0     2.000     20
            3  0  0  0     3.000     21
            2  1  0  0     3.000     22
            2  0  1  0     3.000     23
            1  2  0  0     3.000     24
            1  1  1  0     3.000     25
            1  0  2  0     3.000     26
            0  3  0  0     3.000     27
            0  2  1  0     3.000     28
            0  1  2  0     3.000     29
            0  0  3  0     3.000     30

 Total number of charge fitting functions (nprimf)        85
 Total number of Cartesian basis functions (naos)         30
 Total number of Cartesian core functions  (ncos)          0



 BAS: List of all Elementary Cartesian Basis Functions
 =====================================================

 The numbering in the list below (to the right of the function characteristics) is referred
 to in print-outs of MO eigenvectors and Mulliken populations in the BAS representation
 (as contrasted to the SFO representation).

 Notes:
 1. The functions are characterized by a polynomial prefactor (powers of x,y,z and r) and
    an exponential decay factor alpha.
 2. Since the basis sets are specific for an atom TYPE, the individual functions occur on
    all atoms of that type.
 3. The word 'Core' in the left margin signals that it is a Core Function (CF) : not a
    degree of freedom in the valence set, but only used to ensure orthogonalization of
    the other valence basis functions on the frozen Core Orbitals.


 (power of) X  Y  Z  R     Alpha  on Atom
            ==========     =====     ==========

 F                                    1
                                  ---------------------------------------------------------------------------
            0  0  0  0    10.880      1
            0  0  0  0     7.700      2
            0  0  0  1     3.240      3
            0  0  0  1     1.940      4
            0  0  0  1     0.740      5
            1  0  0  0     4.540      6
            0  1  0  0     4.540      7
            0  0  1  0     4.540      8
            1  0  0  0     2.300      9
            0  1  0  0     2.300     10
            0  0  1  0     2.300     11
            1  0  0  0     1.240     12
            0  1  0  0     1.240     13
            0  0  1  0     1.240     14
            2  0  0  0     2.000     15
            1  1  0  0     2.000     16
            1  0  1  0     2.000     17
            0  2  0  0     2.000     18
            0  1  1  0     2.000     19
            0  0  2  0     2.000     20
            3  0  0  0     3.000     21
            2  1  0  0     3.000     22
            2  0  1  0     3.000     23
            1  2  0  0     3.000     24
            1  1  1  0     3.000     25
            1  0  2  0     3.000     26
            0  3  0  0     3.000     27
            0  2  1  0     3.000     28
            0  1  2  0     3.000     29
            0  0  3  0     3.000     30
1
 ***************************************************************************************************



                                              ***********************
                                              *  T E C H N I C A L  *
                                              ***********************
  



 =============================================================
 P A R A L L E L I Z A T I O N  and  V E C T O R I Z A T I O N
 =============================================================
  
 Nr of parallel processes:                                1
 Maximum vector length in NumInt loops:                 128

 IO buffersize (Mb):                                     64.000000



 =====================
 S C F   U P D A T E S
 =====================
  
 Max. nr. of cycles:                               300
 Convergence criterion:                              0.0000000100
   secondary criterion:                              0.0000000100

 Mix parameter (when DIIS does not apply):           0.2000000000
 Special mix parameter for the first cycle:          1.0000000000
 Mixed ADIIS+DIIS will be used
    Max number of expansion vectors:                10
    Pure ADIIS when Max([F,P]) is above              0.1000000000
    Pure DIIS when Max([F,P]) is below               0.0010000000
 Automatic ElectronSmearing (in case of problematic SCF convergence) disabled



 =================
 P R E C I S I O N  ***  (General: NumInt, NeglectFunctionTails, ...)  ***
 =================
  

 NumInt:           Target precision:                12.0000000000
 -------           Initial precision:               10.0000000000
                   Min. precision (optimization):   10.0000000000

 Neglect Functions:          Basis functions:        0.1000000000E-13
 ------------------          Fit functions:          0.1000000000E-13



 ===========================
 L I N E A R   S C A L I N G
 ===========================
  

 Cut-off radii density fit:                        0.1000000000E-97
 Overlap cut-off criterion AO matrix elements:     0.1000000000E-97
 Cut-offs for Coulomb potential and fitted density:0.1000000000E-97
 Cut-off criterion for Coulomb multipole terms:    0.1000000000E-97
 Progressive Convergence parameter:                 0.000000000    
1
 ***************************************************************************************************



                                            ***************************
                                            *  C O M P U T A T I O N  *
                                            ***************************
  

 Number of elements of the density matrix on this node (used, total):       465       465



 ===========================================
 Numerical Integration : Fuzzy Cells (Becke)
 ===========================================
  
 Becke grid quality: VERYGOOD       
  
 Lebedev angular grid order:             min:  13 max:  41
 Nr. of radial points:                   min:  76 max:  76

 Total nr. of points:         76
 Nr. of blocks:                1
 Block length:                76
 Nr. of dummy points:          0


 Test of Precision of the Numerical Integration Grid
 ===================================================

 Integral of the Total Core Density:                   0.00000000000000



 ========================
 Density Fitting (zlmFit)
 ========================
  
 ZlmFit Fit Quality: VERYGOOD       
  
 Max L-expansion:                        min:   0 max:   0
 Nr. of radial interpolation points:     min: 170 max: 170



 =====
 S C F  ***  ScaSCF  ***
 =====
  

 CYCLE    1
 SCF Error: norm([F,P])=      0.000000000000, max([F,P])=      0.000000000000
 orbitals (Q,E):
 ---------------
 S :1...5            ( 2.00   -40.4878)  ( 2.00   -10.0106)  ( 0.00    -4.4145)  ( 0.00    -2.1243)
                     ( 0.00    34.3132)
 P :1...3            ( 5.00   -10.1248)  ( 0.00    -4.4262)  ( 0.00    -2.4124)
 D :1...1            ( 0.00    -4.0000)
 F :1...1            ( 0.00    -2.2500)

 CYCLE    2
  SDIIS (wt  0.000):  1.0000 -0.0000
 A-DIIS (wt  1.000):  0.0000  1.0000
  DIIS coefficients:  0.0000  1.0000
 SCF Error: norm([F,P])=     11.373794780581, max([F,P])=      4.777759414031
 orbitals (Q,E):
 ---------------
 S :1...3            ( 2.00   -18.8794)  ( 2.00    -0.0304)  ( 0.00     0.3093)
 P :1...2            ( 5.00     0.3553)  ( 0.00     1.5643)
 D :1...1            ( 0.00     1.6494)
 F :1...1            ( 0.00     4.0453)

 CYCLE    3
  SDIIS (wt  0.000):  0.2302  0.7698
 A-DIIS (wt  1.000):  0.4427  0.5573
  DIIS coefficients:  0.4427  0.5573
 SCF Error: norm([F,P])=      5.107371177545, max([F,P])=      3.125425661947
 orbitals (Q,E):
 ---------------
 S :1...3            ( 2.00   -24.7932)  ( 2.00    -1.7827)  ( 0.00    -0.0636)
 P :1...2            ( 5.00    -1.0793)  ( 0.00     0.2021)
 D :1...1            ( 0.00     0.6865)
 F :1...1            ( 0.00     2.8888)

 CYCLE    4
  SDIIS (wt  0.000): -0.0128  0.1085  0.9043
 A-DIIS (wt  1.000):  0.0000  0.0000  1.0000
  DIIS coefficients:  0.0000  0.0000  1.0000
 SCF Error: norm([F,P])=      0.965884247460, max([F,P])=      0.451655557762
 orbitals (Q,E):
 ---------------
 S :1...3            ( 2.00   -23.6749)  ( 2.00    -0.7847)  ( 0.00     0.0644)
 P :1...2            ( 5.00    -0.1299)  ( 0.00     0.5762)
 D :1...1            ( 0.00     1.2513)
 F :1...1            ( 0.00     3.5825)

 CYCLE    5
  SDIIS (wt  0.000):  0.0122 -0.0391  0.5749  0.4520
 A-DIIS (wt  1.000):  0.0000  0.0000  0.6712  0.3288
  DIIS coefficients:  0.0000  0.0000  0.6712  0.3288
 SCF Error: norm([F,P])=      1.674963411166, max([F,P])=      0.825318021724
 orbitals (Q,E):
 ---------------
 S :1...3            ( 2.00   -24.3044)  ( 2.00    -1.0529)  ( 0.00     0.0313)
 P :1...2            ( 5.00    -0.3714)  ( 0.00     0.4442)
 D :1...1            ( 0.00     1.1317)
 F :1...1            ( 0.00     3.4351)

 CYCLE    6
  SDIIS (wt  0.024):  0.0029  0.0040  0.0564 -0.0876  1.0243
 A-DIIS (wt  0.976):  0.0000  0.0000  0.0000  0.0000  1.0000
  DIIS coefficients:  0.0001  0.0001  0.0013 -0.0021  1.0006
 SCF Error: norm([F,P])=      0.199607562059, max([F,P])=      0.097634841195
 orbitals (Q,E):
 ---------------
 S :1...3            ( 2.00   -24.5137)  ( 2.00    -1.1478)  ( 0.00     0.0173)
 P :1...2            ( 5.00    -0.4644)  ( 0.00     0.4071)
 D :1...1            ( 0.00     1.0935)
 F :1...1            ( 0.00     3.3875)

 CYCLE    7
  SDIIS (wt  0.000): -0.0005  0.0010  0.0222 -0.0066  0.6116  0.3724
 A-DIIS (wt  1.000):  0.0000  0.0000  0.0000  0.0000  0.6122  0.3878
  DIIS coefficients:  0.0000  0.0000  0.0000  0.0000  0.6122  0.3878
 SCF Error: norm([F,P])=      0.266507541610, max([F,P])=      0.126514736478
 orbitals (Q,E):
 ---------------
 S :1...3            ( 2.00   -24.3946)  ( 2.00    -1.0985)  ( 0.00     0.0225)
 P :1...2            ( 5.00    -0.4159)  ( 0.00     0.4255)
 D :1...1            ( 0.00     1.1136)
 F :1...1            ( 0.00     3.4123)

 CYCLE    8
  SDIIS (wt  0.859):  0.0000 -0.0000 -0.0010  0.0023  0.0294 -0.0834  1.0527
 A-DIIS (wt  0.141):  0.0000  0.0000  0.0000  0.0000  0.0000  0.0000  1.0000
  DIIS coefficients:  0.0000 -0.0000 -0.0009  0.0020  0.0252 -0.0716  1.0453
 SCF Error: norm([F,P])=      0.030968782312, max([F,P])=      0.014981503364
 orbitals (Q,E):
 ---------------
 S :1...3            ( 2.00   -24.3770)  ( 2.00    -1.0904)  ( 0.00     0.0233)
 P :1...2            ( 5.00    -0.4080)  ( 0.00     0.4287)
 D :1...1            ( 0.00     1.1172)
 F :1...1            ( 0.00     3.4167)

 CYCLE    9
  SDIIS (wt  0.981): -0.0000  0.0000 -0.0001 -0.0004  0.0017  0.0154  0.0457  0.9377
 A-DIIS (wt  0.019):  0.0000  0.0000  0.0000  0.0000  0.0000  0.0000  0.0000  1.0000
  DIIS coefficients: -0.0000  0.0000 -0.0001 -0.0004  0.0017  0.0151  0.0448  0.9389
 SCF Error: norm([F,P])=      0.006059807167, max([F,P])=      0.002904332574
 orbitals (Q,E):
 ---------------
 S :1...3            ( 2.00   -24.3801)  ( 2.00    -1.0917)  ( 0.00     0.0232)
 P :1...2            ( 5.00    -0.4093)  ( 0.00     0.4282)
 D :1...1            ( 0.00     1.1167)
 F :1...1            ( 0.00     3.4160)

 CYCLE   10
  SDIIS (wt  1.000): -0.0000  0.0000  0.0000 -0.0000 -0.0005 -0.0009  1.0014
  DIIS coefficients: -0.0000  0.0000  0.0000 -0.0000 -0.0005 -0.0009  1.0014
 SCF Error: norm([F,P])=      0.000165576581, max([F,P])=      0.000079185113
 orbitals (Q,E):
 ---------------
 S :1...3            ( 2.00   -24.3800)  ( 2.00    -1.0917)  ( 0.00     0.0232)
 P :1...2            ( 5.00    -0.4092)  ( 0.00     0.4282)
 D :1...1            ( 0.00     1.1167)
 F :1...1            ( 0.00     3.4160)

 CYCLE   11
  SDIIS (wt  1.000): -0.0000  0.0000 -0.0000 -0.0003 -0.0117  1.0121
  DIIS coefficients: -0.0000  0.0000 -0.0000 -0.0003 -0.0117  1.0121
 SCF Error: norm([F,P])=      0.000000045102, max([F,P])=      0.000000021900
 orbitals (Q,E):
 ---------------
 S :1...3            ( 2.00   -24.3800)  ( 2.00    -1.0917)  ( 0.00     0.0232)
 P :1...2            ( 5.00    -0.4092)  ( 0.00     0.4282)
 D :1...1            ( 0.00     1.1167)
 F :1...1            ( 0.00     3.4160)

 CYCLE   12
  SDIIS (wt  1.000): -0.0000  0.0075  0.9925
  DIIS coefficients: -0.0000  0.0075  0.9925
 SCF Error: norm([F,P])=      0.000000000761, max([F,P])=      0.000000000372
 orbitals (Q,E):
 ---------------
 S :1...3            ( 2.00   -24.3800)  ( 2.00    -1.0917)  ( 0.00     0.0232)
 P :1...2            ( 5.00    -0.4092)  ( 0.00     0.4282)
 D :1...1            ( 0.00     1.1167)
 F :1...1            ( 0.00     3.4160)

 SCF CONVERGED

 CYCLE   13
1
 ***************************************************************************************************



                                                *******************
                                                *  R E S U L T S  *
                                                *******************
  
 *** Setting up for NEW gradients in Focky
 *** Using FIT density in Focky

 Orbital Energies, per Irrep and Spin:
 ======================================
                        Occup              E (au)              E (eV)       Diff (eV) with prev. cycle
[...]
 <Apr18-2019> <14:06:55>      1      0.07085795      0.03826565
 <Apr18-2019> <14:06:55>      2      0.02085957      0.00455607    100.0
 <Apr18-2019> <14:06:55>      3      0.01124743      0.00258206    100.0
 <Apr18-2019> <14:06:55>      4      0.01531402      0.00356089    100.0
 <Apr18-2019> <14:06:55>      5      0.00380015      0.00093456      0.0
 <Apr18-2019> <14:06:55>      6      0.00064690      0.00014116      0.0
 <Apr18-2019> <14:06:55>      7      0.00017331      0.00004902      0.0
 <Apr18-2019> <14:06:55>      8      0.00002760      0.00000720      0.0
 <Apr18-2019> <14:06:55>      9      0.00000657      0.00000205      0.0
 <Apr18-2019> <14:06:55>     10      0.00000050      0.00000013      0.0
 <Apr18-2019> <14:06:55>  SCF converged
 <Apr18-2019> <14:06:55>     11      0.00000007      0.00000002      0.0
 <Apr18-2019> <14:06:55>  >>>> TOTEN
 <Apr18-2019> <14:06:55>  >>>> POPAN
 <Apr18-2019> <14:06:55>  >>>> DEBYE
 <Apr18-2019> <14:06:56>  >>>> ENGRAD
 <Apr18-2019> <14:06:56>  current energy                               -0.44873928 Hartree
 <Apr18-2019> <14:06:56>  energy change                       0.00009934     0.00010000    T
 <Apr18-2019> <14:06:56>  constrained gradient max            0.02294360     0.00010000    F
 <Apr18-2019> <14:06:56>  constrained gradient rms            0.01332625     0.00006667    F
 <Apr18-2019> <14:06:56>  gradient max                        0.02294360
 <Apr18-2019> <14:06:56>  gradient rms                        0.01332625
 <Apr18-2019> <14:06:56>  cart. step max                      0.01236095     0.01000000    F
 <Apr18-2019> <14:06:56>  cart. step rms                      0.00611041     0.00666667    T
  Coordinates in Geometry Cycle 8
    Atom         X           Y           Z   (Angstrom)
    1.F        -3.730320    0.171507   -0.031070
    2.H        -2.940965    0.369126    0.497776
    3.Br       -1.209210    0.597236    1.723522
 <Apr18-2019> <14:06:56>  >>>> CORORT
 <Apr18-2019> <14:06:56>  >>>> CLSMAT
 <Apr18-2019> <14:06:56>  >>>> ORTHON
 <Apr18-2019> <14:06:56>  >>>> GENPT
 <Apr18-2019> <14:06:56>  Block Length= 128
 <Apr18-2019> <14:06:56>  >>>> PTBAS
 <Apr18-2019> <14:06:56>  >>>> CYCLE
 <Apr18-2019> <14:06:56>              |Error|         MaxErr       Wt(A-DIIS)
 <Apr18-2019> <14:06:56>      1      0.01771753      0.00822651
 <Apr18-2019> <14:06:56>      2      0.00367151      0.00105010    100.0
 <Apr18-2019> <14:06:56>      3      0.00675338      0.00206773    100.0
 <Apr18-2019> <14:06:56>      4      0.00074681      0.00018246      0.0
 <Apr18-2019> <14:06:56>      5      0.00032701      0.00006805      0.0
 <Apr18-2019> <14:06:56>      6      0.00008858      0.00001918      0.0
 <Apr18-2019> <14:06:56>      7      0.00001407      0.00000280      0.0
 <Apr18-2019> <14:06:56>      8      0.00000299      0.00000059      0.0
 <Apr18-2019> <14:06:56>  SCF converged
 <Apr18-2019> <14:06:56>      9      0.00000073      0.00000018      0.0
 <Apr18-2019> <14:06:57>  >>>> TOTEN
 <Apr18-2019> <14:06:57>  >>>> POPAN
 <Apr18-2019> <14:06:57>  >>>> DEBYE
 <Apr18-2019> <14:06:57>  >>>> ENGRAD
 <Apr18-2019> <14:06:57>  current energy                               -0.44895838 Hartree
 <Apr18-2019> <14:06:57>  energy change                      -0.00021910     0.00010000    F
 <Apr18-2019> <14:06:57>  constrained gradient max            0.01930502     0.00010000    F
 <Apr18-2019> <14:06:57>  constrained gradient rms            0.01125539     0.00006667    F
 <Apr18-2019> <14:06:57>  gradient max                        0.01930502
 <Apr18-2019> <14:06:57>  gradient rms                        0.01125539
 <Apr18-2019> <14:06:57>  cart. step max                      0.02182942     0.01000000    F
 <Apr18-2019> <14:06:57>  cart. step rms                      0.01222082     0.00666667    F
  Coordinates in Geometry Cycle 9
    Atom         X           Y           Z   (Angstrom)
    1.F        -3.732740    0.190982   -0.039095
    2.H        -2.930896    0.347296    0.512288
    3.Br       -1.216859    0.599591    1.717036
 <Apr18-2019> <14:06:57>  >>>> CORORT
 <Apr18-2019> <14:06:57>  >>>> CLSMAT
 <Apr18-2019> <14:06:57>  >>>> ORTHON
 <Apr18-2019> <14:06:57>  >>>> GENPT
 <Apr18-2019> <14:06:57>  Block Length= 128
 <Apr18-2019> <14:06:57>  >>>> PTBAS
 <Apr18-2019> <14:06:57>  >>>> CYCLE
 <Apr18-2019> <14:06:57>              |Error|         MaxErr       Wt(A-DIIS)
 <Apr18-2019> <14:06:57>      1      0.04347791      0.01713166
 <Apr18-2019> <14:06:57>      2      0.01269760      0.00364112    100.0
 <Apr18-2019> <14:06:57>      3      0.02379937      0.00730899    100.0
 <Apr18-2019> <14:06:57>      4      0.00293676      0.00073241      0.0
 <Apr18-2019> <14:06:57>      5      0.00104941      0.00028326      0.0
 <Apr18-2019> <14:06:57>      6      0.00025786      0.00005989      0.0
 <Apr18-2019> <14:06:57>      7      0.00005785      0.00001159      0.0
 <Apr18-2019> <14:06:58>      8      0.00001023      0.00000243      0.0
 <Apr18-2019> <14:06:58>      9      0.00000233      0.00000060      0.0
 <Apr18-2019> <14:06:58>  SCF converged
 <Apr18-2019> <14:06:58>     10      0.00000031      0.00000012      0.0
 <Apr18-2019> <14:06:58>  >>>> TOTEN
 <Apr18-2019> <14:06:58>  >>>> POPAN
 <Apr18-2019> <14:06:58>  >>>> DEBYE
 <Apr18-2019> <14:06:58>  >>>> ENGRAD
 <Apr18-2019> <14:06:58>  current energy                               -0.44934717 Hartree
 <Apr18-2019> <14:06:58>  energy change                      -0.00038879     0.00010000    F
 <Apr18-2019> <14:06:58>  constrained gradient max            0.00478483     0.00010000    F
 <Apr18-2019> <14:06:58>  constrained gradient rms            0.00281235     0.00006667    F
 <Apr18-2019> <14:06:58>  gradient max                        0.00478483
 <Apr18-2019> <14:06:58>  gradient rms                        0.00281235
 <Apr18-2019> <14:06:58>  cart. step max                      0.01693086     0.01000000    F
 <Apr18-2019> <14:06:58>  cart. step rms                      0.00849324     0.00666667    F
  Coordinates in Geometry Cycle 10
    Atom         X           Y           Z   (Angstrom)
    1.F        -3.731891    0.203560   -0.042469
    2.H        -2.925964    0.330365    0.521386
    3.Br       -1.222641    0.603943    1.711313
 <Apr18-2019> <14:06:58>  >>>> CORORT
 <Apr18-2019> <14:06:58>  >>>> CLSMAT
 <Apr18-2019> <14:06:58>  >>>> ORTHON
 <Apr18-2019> <14:06:58>  >>>> GENPT
 <Apr18-2019> <14:06:58>  Block Length= 128
 <Apr18-2019> <14:06:58>  >>>> PTBAS
 <Apr18-2019> <14:06:58>  >>>> CYCLE
 <Apr18-2019> <14:06:58>              |Error|         MaxErr       Wt(A-DIIS)
 <Apr18-2019> <14:06:58>      1      0.02438909      0.01054967
 <Apr18-2019> <14:06:58>      2      0.00620182      0.00183145    100.0
 <Apr18-2019> <14:06:58>      3      0.01194832      0.00374880    100.0
 <Apr18-2019> <14:06:58>      4      0.00142749      0.00031852      0.0
 <Apr18-2019> <14:06:59>      5      0.00050831      0.00011419      0.0
 <Apr18-2019> <14:06:59>      6      0.00014286      0.00003209      0.0
 <Apr18-2019> <14:06:59>      7      0.00002397      0.00000477      0.0
 <Apr18-2019> <14:06:59>      8      0.00000499      0.00000105      0.0
 <Apr18-2019> <14:06:59>      9      0.00000122      0.00000030      0.0
 <Apr18-2019> <14:06:59>  SCF converged
 <Apr18-2019> <14:06:59>     10      0.00000018      0.00000006      0.0
 <Apr18-2019> <14:06:59>  >>>> TOTEN
 <Apr18-2019> <14:06:59>  >>>> POPAN
 <Apr18-2019> <14:06:59>  >>>> DEBYE
 <Apr18-2019> <14:06:59>  >>>> ENGRAD
 <Apr18-2019> <14:06:59>  current energy                               -0.44940041 Hartree
 <Apr18-2019> <14:06:59>  energy change                      -0.00005324     0.00010000    T
 <Apr18-2019> <14:06:59>  constrained gradient max            0.00045194     0.00010000    F
 <Apr18-2019> <14:06:59>  constrained gradient rms            0.00023504     0.00006667    F
 <Apr18-2019> <14:06:59>  gradient max                        0.00045194
 <Apr18-2019> <14:06:59>  gradient rms                        0.00023504
 <Apr18-2019> <14:06:59>  cart. step max                      0.00090303     0.01000000    T
 <Apr18-2019> <14:06:59>  cart. step rms                      0.00044849     0.00666667    T
  Coordinates in Geometry Cycle 11
    Atom         X           Y           Z   (Angstrom)
    1.F        -3.731652    0.202188   -0.041853
    2.H        -2.925860    0.331356    0.521148
    3.Br       -1.222984    0.604325    1.710934
 <Apr18-2019> <14:06:59>  >>>> CORORT
 <Apr18-2019> <14:06:59>  >>>> CLSMAT
 <Apr18-2019> <14:06:59>  >>>> ORTHON
 <Apr18-2019> <14:06:59>  >>>> GENPT
 <Apr18-2019> <14:06:59>  Block Length= 128
 <Apr18-2019> <14:06:59>  >>>> PTBAS
 <Apr18-2019> <14:06:59>  >>>> CYCLE
 <Apr18-2019> <14:06:59>              |Error|         MaxErr       Wt(A-DIIS)
 <Apr18-2019> <14:06:59>      1      0.00169200      0.00082104
 <Apr18-2019> <14:06:59>      2      0.00024917      0.00004987    100.0
 <Apr18-2019> <14:07:00>      3      0.00016164      0.00003299    100.0
 <Apr18-2019> <14:07:00>      4      0.00013549      0.00003497      0.0
 <Apr18-2019> <14:07:00>      5      0.00001557      0.00000396      0.0
 <Apr18-2019> <14:07:00>      6      0.00000460      0.00000120      0.0
 <Apr18-2019> <14:07:00>      7      0.00000147      0.00000041      0.0
 <Apr18-2019> <14:07:00>  SCF converged
 <Apr18-2019> <14:07:00>      8      0.00000029      0.00000008      0.0
 <Apr18-2019> <14:07:00>  >>>> TOTEN
 <Apr18-2019> <14:07:00>  >>>> POPAN
 <Apr18-2019> <14:07:00>  >>>> DEBYE
 <Apr18-2019> <14:07:00>  >>>> ENGRAD
 <Apr18-2019> <14:07:00>  current energy                               -0.44940087 Hartree
 <Apr18-2019> <14:07:00>  energy change                      -0.00000046     0.00010000    T
 <Apr18-2019> <14:07:00>  constrained gradient max            0.00013083     0.00010000    F
 <Apr18-2019> <14:07:00>  constrained gradient rms            0.00007378     0.00006667    F
 <Apr18-2019> <14:07:00>  gradient max                        0.00013083
 <Apr18-2019> <14:07:00>  gradient rms                        0.00007378
 <Apr18-2019> <14:07:00>  cart. step max                      0.00186896     0.01000000    T
 <Apr18-2019> <14:07:00>  cart. step rms                      0.00094695     0.00666667    T
  Coordinates in Geometry Cycle 12
    Atom         X           Y           Z   (Angstrom)
    1.F        -3.730400    0.202240   -0.042709
    2.H        -2.926684    0.331351    0.523152
    3.Br       -1.223412    0.604278    1.709786
 <Apr18-2019> <14:07:00>  >>>> CORORT
 <Apr18-2019> <14:07:00>  >>>> CLSMAT
 <Apr18-2019> <14:07:00>  >>>> ORTHON
 <Apr18-2019> <14:07:00>  >>>> GENPT
 <Apr18-2019> <14:07:00>  Block Length= 128
 <Apr18-2019> <14:07:00>  >>>> PTBAS
 <Apr18-2019> <14:07:00>  >>>> CYCLE
 <Apr18-2019> <14:07:00>              |Error|         MaxErr       Wt(A-DIIS)
 <Apr18-2019> <14:07:00>      1      0.00241546      0.00096930
 <Apr18-2019> <14:07:01>      2      0.00037420      0.00009847    100.0
 <Apr18-2019> <14:07:01>      3      0.00021653      0.00005714    100.0
 <Apr18-2019> <14:07:01>      4      0.00024402      0.00006255      0.0
 <Apr18-2019> <14:07:01>      5      0.00003986      0.00001449      0.0
 <Apr18-2019> <14:07:01>      6      0.00000741      0.00000160      0.0
 <Apr18-2019> <14:07:01>      7      0.00000086      0.00000018      0.0
 <Apr18-2019> <14:07:01>  SCF converged
 <Apr18-2019> <14:07:01>      8      0.00000033      0.00000009      0.0
 <Apr18-2019> <14:07:01>  >>>> TOTEN
 <Apr18-2019> <14:07:01>  >>>> POPAN
 <Apr18-2019> <14:07:01>  >>>> DEBYE
 <Apr18-2019> <14:07:01>  >>>> ENGRAD
 <Apr18-2019> <14:07:01>  current energy                               -0.44940060 Hartree
 <Apr18-2019> <14:07:01>  energy change                       0.00000027     0.00010000    T
 <Apr18-2019> <14:07:01>  constrained gradient max            0.00027048     0.00010000    F
 <Apr18-2019> <14:07:01>  constrained gradient rms            0.00012548     0.00006667    F
 <Apr18-2019> <14:07:01>  gradient max                        0.00027048
 <Apr18-2019> <14:07:01>  gradient rms                        0.00012548
 <Apr18-2019> <14:07:01>  cart. step max                      0.00115904     0.01000000    T
 <Apr18-2019> <14:07:01>  cart. step rms                      0.00081624     0.00666667    T
  Coordinates in Geometry Cycle 13
    Atom         X           Y           Z   (Angstrom)
    1.F        -3.731059    0.202547   -0.041789
    2.H        -2.925546    0.330192    0.522142
    3.Br       -1.223891    0.605130    1.709876
 <Apr18-2019> <14:07:01>  >>>> CORORT
 <Apr18-2019> <14:07:01>  >>>> CLSMAT
 <Apr18-2019> <14:07:01>  >>>> ORTHON
 <Apr18-2019> <14:07:01>  >>>> GENPT
 <Apr18-2019> <14:07:01>  Block Length= 128
 <Apr18-2019> <14:07:01>  >>>> PTBAS
 <Apr18-2019> <14:07:01>  >>>> CYCLE
 <Apr18-2019> <14:07:02>              |Error|         MaxErr       Wt(A-DIIS)
 <Apr18-2019> <14:07:02>      1      0.00193002      0.00071476
 <Apr18-2019> <14:07:02>      2      0.00028098      0.00006498    100.0
 <Apr18-2019> <14:07:02>      3      0.00037999      0.00010540    100.0
 <Apr18-2019> <14:07:02>      4      0.00010121      0.00003030      0.0
 <Apr18-2019> <14:07:02>      5      0.00003577      0.00000919      0.0
 <Apr18-2019> <14:07:02>      6      0.00000535      0.00000109      0.0
 <Apr18-2019> <14:07:02>      7      0.00000105      0.00000022      0.0
 <Apr18-2019> <14:07:02>  SCF converged
 <Apr18-2019> <14:07:02>      8      0.00000018      0.00000004      0.0
 <Apr18-2019> <14:07:02>  >>>> TOTEN
 <Apr18-2019> <14:07:02>  >>>> POPAN
 <Apr18-2019> <14:07:02>  >>>> DEBYE
 <Apr18-2019> <14:07:02>  >>>> ENGRAD
 <Apr18-2019> <14:07:02>  current energy                               -0.44940100 Hartree
 <Apr18-2019> <14:07:02>  energy change                      -0.00000039     0.00010000    T
 <Apr18-2019> <14:07:02>  constrained gradient max            0.00011474     0.00010000    F
 <Apr18-2019> <14:07:02>  constrained gradient rms            0.00005512     0.00006667    T
 <Apr18-2019> <14:07:02>  gradient max                        0.00011474
 <Apr18-2019> <14:07:02>  gradient rms                        0.00005512
 <Apr18-2019> <14:07:02>  cart. step max                      0.00070628     0.01000000    T
 <Apr18-2019> <14:07:02>  cart. step rms                      0.00037575     0.00666667    T
  Coordinates in Geometry Cycle 14
    Atom         X           Y           Z   (Angstrom)
    1.F        -3.731012    0.202044   -0.041237
    2.H        -2.925165    0.331400    0.521679
    3.Br       -1.224318    0.604424    1.709787
 <Apr18-2019> <14:07:02>  >>>> CORORT
 <Apr18-2019> <14:07:02>  >>>> CLSMAT
 <Apr18-2019> <14:07:02>  >>>> ORTHON
 <Apr18-2019> <14:07:02>  >>>> GENPT
 <Apr18-2019> <14:07:02>  Block Length= 128
 <Apr18-2019> <14:07:02>  >>>> PTBAS
 <Apr18-2019> <14:07:02>  >>>> CYCLE
 <Apr18-2019> <14:07:03>              |Error|         MaxErr       Wt(A-DIIS)
 <Apr18-2019> <14:07:03>      1      0.00136737      0.00058017
 <Apr18-2019> <14:07:03>      2      0.00020329      0.00004605    100.0
 <Apr18-2019> <14:07:03>      3      0.00012437      0.00002702    100.0
 <Apr18-2019> <14:07:03>      4      0.00012242      0.00003018      0.0
 <Apr18-2019> <14:07:03>      5      0.00002480      0.00000593      0.0
 <Apr18-2019> <14:07:03>      6      0.00000300      0.00000057      0.0
 <Apr18-2019> <14:07:03>  SCF converged
 <Apr18-2019> <14:07:03>      7      0.00000048      0.00000009      0.0
 <Apr18-2019> <14:07:03>  >>>> TOTEN
 <Apr18-2019> <14:07:03>  >>>> POPAN
 <Apr18-2019> <14:07:03>  >>>> DEBYE
 <Apr18-2019> <14:07:03>  >>>> ENGRAD
 <Apr18-2019> <14:07:03>  current energy                               -0.44940128 Hartree
 <Apr18-2019> <14:07:03>  energy change                      -0.00000028     0.00010000    T
 <Apr18-2019> <14:07:03>  constrained gradient max            0.00014315     0.00010000    F
 <Apr18-2019> <14:07:03>  constrained gradient rms            0.00007794     0.00006667    F
 <Apr18-2019> <14:07:03>  gradient max                        0.00014315
 <Apr18-2019> <14:07:03>  gradient rms                        0.00007794
 <Apr18-2019> <14:07:03>  cart. step max                      0.00038757     0.01000000    T
 <Apr18-2019> <14:07:03>  cart. step rms                      0.00025883     0.00666667    T
  Coordinates in Geometry Cycle 15
    Atom         X           Y           Z   (Angstrom)
    1.F        -3.731236    0.202277   -0.041456
    2.H        -2.925328    0.331447    0.521548
    3.Br       -1.223931    0.604145    1.710137
 <Apr18-2019> <14:07:03>  >>>> CORORT
 <Apr18-2019> <14:07:03>  >>>> CLSMAT
 <Apr18-2019> <14:07:03>  >>>> ORTHON
 <Apr18-2019> <14:07:03>  >>>> GENPT
 <Apr18-2019> <14:07:03>  Block Length= 128
 <Apr18-2019> <14:07:03>  >>>> PTBAS
 <Apr18-2019> <14:07:03>  >>>> CYCLE
 <Apr18-2019> <14:07:04>              |Error|         MaxErr       Wt(A-DIIS)
 <Apr18-2019> <14:07:04>      1      0.00051827      0.00018367
 <Apr18-2019> <14:07:04>      2      0.00012323      0.00002869    100.0
 <Apr18-2019> <14:07:04>      3      0.00022449      0.00006336    100.0
 <Apr18-2019> <14:07:04>      4      0.00002793      0.00000731      0.0
 <Apr18-2019> <14:07:04>      5      0.00000586      0.00000124      0.0
 <Apr18-2019> <14:07:04>      6      0.00000153      0.00000032      0.0
 <Apr18-2019> <14:07:04>  SCF converged
 <Apr18-2019> <14:07:04>      7      0.00000022      0.00000004      0.0
 <Apr18-2019> <14:07:04>  >>>> TOTEN
 <Apr18-2019> <14:07:04>  >>>> POPAN
 <Apr18-2019> <14:07:04>  >>>> DEBYE
 <Apr18-2019> <14:07:04>  >>>> ENGRAD
 <Apr18-2019> <14:07:04>  current energy                               -0.44940124 Hartree
 <Apr18-2019> <14:07:04>  energy change                       0.00000004     0.00010000    T
 <Apr18-2019> <14:07:04>  constrained gradient max            0.00002708     0.00010000    T
 <Apr18-2019> <14:07:04>  constrained gradient rms            0.00001565     0.00006667    T
 <Apr18-2019> <14:07:04>  gradient max                        0.00002708
 <Apr18-2019> <14:07:04>  gradient rms                        0.00001565
 <Apr18-2019> <14:07:04>  cart. step max                      0.00277203     0.01000000    T
 <Apr18-2019> <14:07:04>  cart. step rms                      0.00142547     0.00666667    T
 <Apr18-2019> <14:07:04>  GEOMETRY CONVERGED
 <Apr18-2019> <14:07:04>  Calculating Energy Terms for Final Geometry
  Coordinates in Geometry Cycle 15
    Atom         X           Y           Z   (Angstrom)
    1.F        -3.731236    0.202277   -0.041456
    2.H        -2.925328    0.331447    0.521548
    3.Br       -1.223931    0.604145    1.710137
 <Apr18-2019> <14:07:04>  >>>> CORORT
 <Apr18-2019> <14:07:04>  >>>> CLSMAT
 <Apr18-2019> <14:07:04>  >>>> ORTHON
 <Apr18-2019> <14:07:04>  >>>> GENPT
 <Apr18-2019> <14:07:04>  Block Length= 128
 <Apr18-2019> <14:07:04>  >>>> PTBAS
 <Apr18-2019> <14:07:04>  >>>> CYCLE
 <Apr18-2019> <14:07:05>              |Error|         MaxErr       Wt(A-DIIS)
 <Apr18-2019> <14:07:05>      1      0.00000008      0.00000002
 <Apr18-2019> <14:07:05>      2      0.00000013      0.00000003    100.0
 <Apr18-2019> <14:07:05>  SCF converged
 <Apr18-2019> <14:07:05>      3      0.00000020      0.00000004    100.0
 <Apr18-2019> <14:07:05>  >>>> TOTEN
 <Apr18-2019> <14:07:05>  >>>> POPAN
 <Apr18-2019> <14:07:05>  >>>> DEBYE
 <Apr18-2019> <14:07:05>  >>>> AMETS
 <Apr18-2019> <14:07:05>  >>>> POPUL
 <Apr18-2019> <14:07:05>   Bond Energy          -0.44940124 a.u.
 <Apr18-2019> <14:07:05>   Bond Energy         -12.22882984 eV
 <Apr18-2019> <14:07:05>   Bond Energy        -282.00       kcal/mol
 <Apr18-2019> <14:07:05>  >>>> ENHESS
 <Apr18-2019> <14:07:05>  === NUCLEUS:     1
 <Apr18-2019> <14:07:07>  === NUCLEUS:     2
 <Apr18-2019> <14:07:09>  === NUCLEUS:     3
 <Apr18-2019> <14:07:10>  >>>> CALC_HESS_PMAT
 <Apr18-2019> <14:07:10>  >>>> CALC_HESS_WMAT
 <Apr18-2019> <14:07:10>  NORMAL TERMINATION
 <Apr18-2019> <14:07:10>  END
