
Create H   file=TZ2P-H
XC
  GGA blyp
  DISPERSION Grimme3 BJDAMP
End
End Input

 *******************************************************************************
 *                                                                             *
 *  -------------------------------------                                      *
 *   Amsterdam Density Functional  (ADF)         development version           *
 *  -------------------------------------                                      *
 *                                               r61132 2017-09-08             *
 *                                                                             *
 *                                                                             *
 *                              =================                              *
 *                              |               |                              *
 *                              |     A D F     |                              *
 *                              |               |                              *
 *                              =================                              *
 *                                                                             *
 *                                                                             *
 *   Online information and documentation:  https://www.scm.com/support/       *
 *   E-mail:  support@scm.com   info@scm.com                                   *
 *                                                                             *
 *   Scientific publications using ADF results must be properly referenced     *
 *   See the User Manuals (or the web site) for recommended citations          *
 *   The terms and conditions of the End User License Agreement apply to       *
 *   the use of ADF, https://www.scm.com/license-terms/                        *
 *                                                                             *
 **********************  x86_64_linux_intel / intelmpi  ************************
 
 Licensed to: VU/FEW (+ SARA) / ALGEMEEN / Amsterdam / THE NETHERLANDS
 SCM User ID: u7668
  
 ADF development version  RunTime: Apr18-2019 21:31:21  Nodes: 1  Procs: 1

 Temporary files are created in /local/datastore0/tcst25/186794/kid_0.RB2TLF

 Hydrogen (TZ2P)



 ===========================
 A T T A C H E D   F I L E S
 ===========================
  
 CREATE - Data File:    TZ2P-H
                        Hydrogen (TZ2P)



 ===============================
 M O D E L   P A R A M E T E R S
 ===============================
  
 DENSITY FUNCTIONAL POTENTIAL (scf)
    LDA:                               Exchange only                           == Not Default ==
    Gradient Corrections:              Becke88 LYP                             == Not Default ==

 SPIN  (restricted / unrestr.)
    Molecule:                          Restricted                               

 OTHER ASPECTS
    Relativistic Corrections:          ---                                      

    Nuclear Charge Density Model:      Point Charge Nuclei                      
    Core Treatment:                    Frozen Orbital(s)                        

    Hyperfine or Zeeman Interaction:   ---                                      

 Settings for Grimme 3 dispersion correction

      damping                        BJ
      s6                          1.000
      a1                          0.430
      s8                          2.700
      a2                          4.236

 Other (technical) parameters

      alpha                      14.000
      version                         4
 



 =====================================
 S Y M M E T R Y ,   E L E C T R O N S
 =====================================
  
 Symmetry: ATOM

 Irreducible Representations, including subspecies
 -------------------------------------------------
 S
 P:x  P:y  P:z
 D:z2  D:x2-y2  D:xy  D:xz  D:yz
 F:z3  F:z  F:xyz  F:z2x  F:z2y  F:x  F:y


 Configuration of Valence Electrons
 ==================================

          Occupation Numbers
          -------------------------------------------------
 S        1
 P        0
 D        0
 F        0
          -------------------------------------------------

 Total:   1

 Net Charge: 0 (Nuclei minus Electrons)

 Preset values for MO occupations will be applied through SCF cycle no. 1000000
 Thereafter, the program will assign electrons to MOs that are spatially
 similar to the occupied MOs in a "reference" cycle ("KeepOrbitals").
 The reference cycle is always the PREVIOUS cycle: it will evolve with
 the SCF procedure.



 ================================
 (Slater-type)  F U N C T I O N S  ***  (Basis and Fit)  ***
 ================================
  

 Atom Type    1  (H)
 ==============

 Valence Basis Sets:   5
 -----------------------
   1 S    0.690000
   1 S    0.920000
   1 S    1.580000
   2 P    1.250000
   3 D    2.500000


 BAS: List of all Elementary Cartesian Basis Functions
 =====================================================

 The numbering in the list below (to the right of the function characteristics) is referred
 to in print-outs of MO eigenvectors and Mulliken populations in the BAS representation
 (as contrasted to the SFO representation).

 Notes:
 1. The functions are characterized by a polynomial prefactor (powers of x,y,z and r) and
    an exponential decay factor alpha.
 2. Since the basis sets are specific for an atom TYPE, the individual functions occur on
    all atoms of that type.
 3. The word 'Core' in the left margin signals that it is a Core Function (CF) : not a
    degree of freedom in the valence set, but only used to ensure orthogonalization of
    the other valence basis functions on the frozen Core Orbitals.


 (power of) X  Y  Z  R     Alpha  on Atom
            ==========     =====     ==========

 H                                    1
                                  ---------------------------------------------------------------------------
            0  0  0  0     0.690      1
            0  0  0  0     0.920      2
            0  0  0  0     1.580      3
            1  0  0  0     1.250      4
            0  1  0  0     1.250      5
            0  0  1  0     1.250      6
            2  0  0  0     2.500      7
            1  1  0  0     2.500      8
            1  0  1  0     2.500      9
            0  2  0  0     2.500     10
            0  1  1  0     2.500     11
            0  0  2  0     2.500     12

 Total number of charge fitting functions (nprimf)        50
 Total number of Cartesian basis functions (naos)         12
 Total number of Cartesian core functions  (ncos)          0



 BAS: List of all Elementary Cartesian Basis Functions
 =====================================================

 The numbering in the list below (to the right of the function characteristics) is referred
 to in print-outs of MO eigenvectors and Mulliken populations in the BAS representation
 (as contrasted to the SFO representation).

 Notes:
 1. The functions are characterized by a polynomial prefactor (powers of x,y,z and r) and
    an exponential decay factor alpha.
 2. Since the basis sets are specific for an atom TYPE, the individual functions occur on
    all atoms of that type.
 3. The word 'Core' in the left margin signals that it is a Core Function (CF) : not a
    degree of freedom in the valence set, but only used to ensure orthogonalization of
    the other valence basis functions on the frozen Core Orbitals.


 (power of) X  Y  Z  R     Alpha  on Atom
            ==========     =====     ==========

 H                                    1
                                  ---------------------------------------------------------------------------
            0  0  0  0     0.690      1
            0  0  0  0     0.920      2
            0  0  0  0     1.580      3
            1  0  0  0     1.250      4
            0  1  0  0     1.250      5
            0  0  1  0     1.250      6
            2  0  0  0     2.500      7
            1  1  0  0     2.500      8
            1  0  1  0     2.500      9
            0  2  0  0     2.500     10
            0  1  1  0     2.500     11
            0  0  2  0     2.500     12
1
 ***************************************************************************************************



                                              ***********************
                                              *  T E C H N I C A L  *
                                              ***********************
  



 =============================================================
 P A R A L L E L I Z A T I O N  and  V E C T O R I Z A T I O N
 =============================================================
  
 Nr of parallel processes:                                1
 Maximum vector length in NumInt loops:                 128

 IO buffersize (Mb):                                     64.000000



 =====================
 S C F   U P D A T E S
 =====================
  
 Max. nr. of cycles:                               300
 Convergence criterion:                              0.0000000100
   secondary criterion:                              0.0000000100

 Mix parameter (when DIIS does not apply):           0.2000000000
 Special mix parameter for the first cycle:          1.0000000000
 Mixed ADIIS+DIIS will be used
    Max number of expansion vectors:                10
    Pure ADIIS when Max([F,P]) is above              0.1000000000
    Pure DIIS when Max([F,P]) is below               0.0010000000
 Automatic ElectronSmearing (in case of problematic SCF convergence) disabled



 =================
 P R E C I S I O N  ***  (General: NumInt, NeglectFunctionTails, ...)  ***
 =================
  

 NumInt:           Target precision:                12.0000000000
 -------           Initial precision:               10.0000000000
                   Min. precision (optimization):   10.0000000000

 Neglect Functions:          Basis functions:        0.1000000000E-13
 ------------------          Fit functions:          0.1000000000E-13



 ===========================
 L I N E A R   S C A L I N G
 ===========================
  

 Cut-off radii density fit:                        0.1000000000E-97
 Overlap cut-off criterion AO matrix elements:     0.1000000000E-97
 Cut-offs for Coulomb potential and fitted density:0.1000000000E-97
 Cut-off criterion for Coulomb multipole terms:    0.1000000000E-97
 Progressive Convergence parameter:                 0.000000000    
1
 ***************************************************************************************************



                                            ***************************
                                            *  C O M P U T A T I O N  *
                                            ***************************
  

 Number of elements of the density matrix on this node (used, total):        78        78



 ===========================================
 Numerical Integration : Fuzzy Cells (Becke)
 ===========================================
  
 Becke grid quality: VERYGOOD       
  
 Lebedev angular grid order:             min:  13 max:  41
 Nr. of radial points:                   min:  64 max:  64

 Total nr. of points:         64
 Nr. of blocks:                1
 Block length:                64
 Nr. of dummy points:          0


 Test of Precision of the Numerical Integration Grid
 ===================================================

 Integral of the Total Core Density:                   0.00000000000000



 ========================
 Density Fitting (zlmFit)
 ========================
  
 ZlmFit Fit Quality: VERYGOOD       
  
 Max L-expansion:                        min:   0 max:   0
 Nr. of radial interpolation points:     min: 130 max: 130



 =====
 S C F  ***  ScaSCF  ***
 =====
  

 CYCLE    1
 SCF Error: norm([F,P])=      0.000000000000, max([F,P])=      0.000000000000
 orbitals (Q,E):
 ---------------
 S :1...3            ( 1.00    -0.5000)  ( 0.00    -0.0900)  ( 0.00     1.2939)
 P :1...1            ( 0.00     0.1562)
 D :1...1            ( 0.00     2.2917)

 CYCLE    2
 SCF Error: norm([F,P])=      0.031002856008, max([F,P])=      0.026444239384
 orbitals (Q,E):
 ---------------
 S :1...2            ( 1.00    -0.2236)  ( 0.00     0.0977)
 P :1...1            ( 0.00     0.4190)
 D :1...1            ( 0.00     2.5863)

 CYCLE    3
  SDIIS (wt  0.000):  0.2055  0.7945
 A-DIIS (wt  1.000):  0.0000  1.0000
  DIIS coefficients:  0.0000  1.0000
 SCF Error: norm([F,P])=      0.009580013340, max([F,P])=      0.009328518993
 orbitals (Q,E):
 ---------------
 S :1...2            ( 1.00    -0.2440)  ( 0.00     0.0860)
 P :1...1            ( 0.00     0.4030)
 D :1...1            ( 0.00     2.5655)

 CYCLE    4
  SDIIS (wt  0.987):  0.1949  0.8051
 A-DIIS (wt  0.013):  0.0000  1.0000
  DIIS coefficients:  0.1923  0.8077
 SCF Error: norm([F,P])=      0.002320932075, max([F,P])=      0.002286403159
 orbitals (Q,E):
 ---------------
 S :1...2            ( 1.00    -0.2400)  ( 0.00     0.0880)
 P :1...1            ( 0.00     0.4062)
 D :1...1            ( 0.00     2.5697)

 CYCLE    5
  SDIIS (wt  1.000):  0.0132  0.9868
  DIIS coefficients:  0.0132  0.9868
 SCF Error: norm([F,P])=      0.000031553206, max([F,P])=      0.000029840661
 orbitals (Q,E):
 ---------------
 S :1...2            ( 1.00    -0.2400)  ( 0.00     0.0880)
 P :1...1            ( 0.00     0.4062)
 D :1...1            ( 0.00     2.5697)

 CYCLE    6
  SDIIS (wt  1.000): -0.0314  1.0314
  DIIS coefficients: -0.0314  1.0314
 SCF Error: norm([F,P])=      0.000000959925, max([F,P])=      0.000000913629
 orbitals (Q,E):
 ---------------
 S :1...2            ( 1.00    -0.2400)  ( 0.00     0.0880)
 P :1...1            ( 0.00     0.4062)
 D :1...1            ( 0.00     2.5697)

 CYCLE    7
  SDIIS (wt  1.000):  0.0045  0.9955
  DIIS coefficients:  0.0045  0.9955
 SCF Error: norm([F,P])=      0.000000004387, max([F,P])=      0.000000004212
 orbitals (Q,E):
 ---------------
 S :1...2            ( 1.00    -0.2400)  ( 0.00     0.0880)
 P :1...1            ( 0.00     0.4062)
 D :1...1            ( 0.00     2.5697)

 SCF CONVERGED

 CYCLE    8
1
 ***************************************************************************************************



                                                *******************
                                                *  R E S U L T S  *
                                                *******************
  
 *** Setting up for NEW gradients in Focky
 *** Using FIT density in Focky

 Orbital Energies, per Irrep and Spin:
 ======================================
                        Occup              E (au)              E (eV)       Diff (eV) with prev. cycle
                        -----      --------------------        ------       --------------------------
 S
               1        1.000     -0.24003723730291E+00        -6.532              -1.36E-09
               2        0.000      0.87974178151410E-01         2.394
               3        0.000      0.15021841144445E+01        40.877
 P
               1        0.000      0.40615190499536E+00        11.052
 D
               1        0.000      0.25696970808913E+01        69.925


 Partially Occupied:
               1 S                -0.24003723730291E+00
  
 LUMO :        2 S                 0.87974178151410E-01
  


 Orbital Energies, all Irreps
 ========================================

 Irrep        no.  (spin)   Occup              E (au)                E (eV)
 ---------------------------------------------------------------------------
 S             1             1.00       -0.24003723730291E+00        -6.5317
 S             2             0.00        0.87974178151410E-01         2.3939
 P             1             0.00        0.40615190499536E+00        11.0520
 S             3             0.00        0.15021841144445E+01        40.8765
 D             1             0.00        0.25696970808913E+01        69.9250


 All Electron Calculation, thus no Orbital Energies of the Core Orbitals are calculated



 =======================================
 M U L L I K E N   P O P U L A T I O N S
 =======================================
  
 The survey below gives for each atom:
 a) the total charge (Z minus electrons)
 b) the net spin polarization (nr of electrons spin-A minus spin-B)
 c) for each spin the atomic electron valence density (integrated) per L-value.

 Atom              Charge    Spin density          S         P         D         F
 ----              ------    ------------       ------    ------    ------    ------
 1 H              -0.0000                       1.0000    0.0000    0.0000    0.0000

 Populations of individual BAS functions
 ----------------------------------------
 1 H            0.2458  0.6250  0.1292  0.0000  0.0000  0.0000  0.0000  0.0000  0.0000  0.0000
                0.0000  0.0000

 Gross Charges per Atom (Z minus electrons)
 ==========================================
            -0.0000
 Net Total: -0.00000000



 =======================================================================
 Electrostatic potential at the Nuclei due to electrons and other nuclei
 =======================================================================
  
         Atom                  Potential
         ----                  ---------
     1)   H                   0.94873442
 
 
 ========================
 No memory problems found
 ========================
 
 Maximum number of active allocate calls:         363
 
 *******************************************************************************

                             A D F   E X I T
 NORMAL TERMINATION



 =================
 Timing Statistics
 =================
  
 Total Used :                     CPU=        0.30      System=        0.03     Elapsed=        0.33

 Calls  Section                     ( Mean, Percentage )
 ---------------------------------------------------------------------------------------------------
     3  ><      ................      0.00    0.00             0.00    0.00             0.00    0.24
     1  INIT    ................      0.01    3.04             0.02   56.25             0.03    8.53
     1  GEOMET  ................      0.00    1.69             0.00   12.50             0.01    2.67
     1  INPUTA  ................      0.00    0.00             0.00    6.25             0.00    0.45
     1  MAINSY  ................      0.00    0.68             0.00   12.50             0.01    1.78
     1  SYMFIT  ................      0.00    0.34             0.00    0.00             0.00    0.26
     1  CORORT  ................      0.00    0.00             0.00    0.00             0.00    0.08
     1  SYMORB  ................      0.00    0.00             0.00    0.00             0.00    0.16
     1  CLSMAT  ................      0.00    1.35             0.00    0.00             0.00    1.20
     1  ORTHON  ................      0.00    0.34             0.00    3.13             0.00    0.38
     1  GENPT   ................      0.01    2.70             0.00    3.12             0.01    3.00
     1  PTBAS   ................      0.00    1.35             0.00    0.00             0.00    1.03
     8  FOCKY   ................      0.03   70.61             0.00    3.13             0.03   63.58
     8  FOCKTR  ................      0.00    2.03             0.00    0.00             0.00    1.68
     8  SDIIS   ................      0.00    3.72             0.00    0.00             0.00    3.67
     1  COREPS  ................      0.01    5.07             0.00    0.00             0.02    4.74
     1  POPAN   ................      0.00    1.35             0.00    0.00             0.00    1.14
     1  DEBYE   ................      0.00    0.00             0.00    3.13             0.00    0.15
     1  EXIT PROCEDURE .........      0.02    5.74             0.00    0.00             0.02    5.26


 Currently Open Files (EXIT00)
 ====================

 Unit    Access Format  Status   Type       Ident (file)
 -------------------------------------------------------
   3      SEQ    FORM   TRANSP  NORMAL      LOGFILE
                                          ( logfile )


 Buffered I/O statistics
 =======================
 Memory available:                     67108864
 Number of records fitting in memory:     16131
 Input :   0.2% of                        17484  *4k bytes
 Output:  15.2% of                         1046  *4k bytes
 Records from serial files evicted:           0
                    others evicted:           0
 Hash table lookups:      44693 with          0 conflicts (  0.00%)

 ***************************************************************************************************
 (LOGFILE)
 <Apr18-2019> <21:31:21>  ADF development version  RunTime: Apr18-2019 21:31:21  Nodes: 1  Procs: 1
 <Apr18-2019> <21:31:21>  Hydrogen (TZ2P)
 <Apr18-2019> <21:31:21>  RunType   : CREATE
 <Apr18-2019> <21:31:21>  Net Charge: 0 (Nuclei minus Electrons)
 <Apr18-2019> <21:31:21>  Symmetry  : ATOM
  Coordinates
    Atom         X           Y           Z   (Angstrom)
    1.H         0.000000    0.000000    0.000000
 <Apr18-2019> <21:31:21>  >>>> CORORT
 <Apr18-2019> <21:31:21>  >>>> CLSMAT
 <Apr18-2019> <21:31:21>  >>>> ORTHON
 <Apr18-2019> <21:31:21>  >>>> GENPT
 <Apr18-2019> <21:31:21>  Block Length=  64
 <Apr18-2019> <21:31:21>  >>>> PTBAS
 <Apr18-2019> <21:31:21>  >>>> CYCLE
 <Apr18-2019> <21:31:21>              |Error|         MaxErr       Wt(A-DIIS)
 <Apr18-2019> <21:31:21>      1      0.00000000      0.00000000
 <Apr18-2019> <21:31:21>      2      0.03100286      0.02644424
 <Apr18-2019> <21:31:21>      3      0.00958001      0.00932852    100.0
 <Apr18-2019> <21:31:21>      4      0.00232093      0.00228640      1.3
 <Apr18-2019> <21:31:21>      5      0.00003155      0.00002984      0.0
 <Apr18-2019> <21:31:21>      6      0.00000096      0.00000091      0.0
 <Apr18-2019> <21:31:21>      7      0.00000000      0.00000000      0.0
 <Apr18-2019> <21:31:21>  SCF converged
 <Apr18-2019> <21:31:21>      8      0.00000000      0.00000000      0.0
 <Apr18-2019> <21:31:21>  >>>> POPAN
 <Apr18-2019> <21:31:21>  >>>> DEBYE
 <Apr18-2019> <21:31:21>  NORMAL TERMINATION
 <Apr18-2019> <21:31:21>  END

Create F   file=TZ2P-F
XC
  GGA blyp
  DISPERSION Grimme3 BJDAMP
End
End Input

 *******************************************************************************
 *                                                                             *
 *  -------------------------------------                                      *
 *   Amsterdam Density Functional  (ADF)         development version           *
 *  -------------------------------------                                      *
 *                                               r61132 2017-09-08             *
 *                                                                             *
 *                                                                             *
 *                              =================                              *
 *                              |               |                              *
 *                              |     A D F     |                              *
 *                              |               |                              *
 *                              =================                              *
 *                                                                             *
 *                                                                             *
 *   Online information and documentation:  https://www.scm.com/support/       *
 *   E-mail:  support@scm.com   info@scm.com                                   *
 *                                                                             *
 *   Scientific publications using ADF results must be properly referenced     *
 *   See the User Manuals (or the web site) for recommended citations          *
 *   The terms and conditions of the End User License Agreement apply to       *
 *   the use of ADF, https://www.scm.com/license-terms/                        *
 *                                                                             *
 **********************  x86_64_linux_intel / intelmpi  ************************
 
 Licensed to: VU/FEW (+ SARA) / ALGEMEEN / Amsterdam / THE NETHERLANDS
 SCM User ID: u7668
  
 ADF development version  RunTime: Apr18-2019 21:31:21  Nodes: 1  Procs: 1

 Temporary files are created in /local/datastore0/tcst25/186794/kid_0.5Fxw68

 Fluorine (TZ2P)



 ===========================
 A T T A C H E D   F I L E S
 ===========================
  
 CREATE - Data File:    TZ2P-F
                        Fluorine (TZ2P)



 ===============================
 M O D E L   P A R A M E T E R S
 ===============================
  
 DENSITY FUNCTIONAL POTENTIAL (scf)
    LDA:                               Exchange only                           == Not Default ==
    Gradient Corrections:              Becke88 LYP                             == Not Default ==

 SPIN  (restricted / unrestr.)
    Molecule:                          Restricted                               

 OTHER ASPECTS
    Relativistic Corrections:          ---                                      

    Nuclear Charge Density Model:      Point Charge Nuclei                      
    Core Treatment:                    Frozen Orbital(s)                        

    Hyperfine or Zeeman Interaction:   ---                                      

 Settings for Grimme 3 dispersion correction

      damping                        BJ
      s6                          1.000
      a1                          0.430
      s8                          2.700
      a2                          4.236

 Other (technical) parameters

      alpha                      14.000
      version                         4
 



 =====================================
 S Y M M E T R Y ,   E L E C T R O N S
 =====================================
  
 Symmetry: ATOM

 Irreducible Representations, including subspecies
 -------------------------------------------------
 S
 P:x  P:y  P:z
 D:z2  D:x2-y2  D:xy  D:xz  D:yz
 F:z3  F:z  F:xyz  F:z2x  F:z2y  F:x  F:y


 Configuration of Valence Electrons
 ==================================

          Occupation Numbers
          -------------------------------------------------
 S        2*2
 P        5
 D        0
 F        0
          -------------------------------------------------

 Total:   9

 Net Charge: 0 (Nuclei minus Electrons)

 Preset values for MO occupations will be applied through SCF cycle no. 1000000
 Thereafter, the program will assign electrons to MOs that are spatially
 similar to the occupied MOs in a "reference" cycle ("KeepOrbitals").
 The reference cycle is always the PREVIOUS cycle: it will evolve with
 the SCF procedure.



 ================================
 (Slater-type)  F U N C T I O N S  ***  (Basis and Fit)  ***
 ================================
  

 Atom Type    1  (F)
 ==============

 Valence Basis Sets:  10
 -----------------------
   1 S   10.880000
   1 S    7.700000
   2 S    3.240000
   2 S    1.940000
   2 S    0.740000
   2 P    4.540000
   2 P    2.300000
   2 P    1.240000
   3 D    2.000000
   4 F    3.000000


 BAS: List of all Elementary Cartesian Basis Functions
 =====================================================

 The numbering in the list below (to the right of the function characteristics) is referred
 to in print-outs of MO eigenvectors and Mulliken populations in the BAS representation
 (as contrasted to the SFO representation).

 Notes:
 1. The functions are characterized by a polynomial prefactor (powers of x,y,z and r) and
    an exponential decay factor alpha.
 2. Since the basis sets are specific for an atom TYPE, the individual functions occur on
    all atoms of that type.
 3. The word 'Core' in the left margin signals that it is a Core Function (CF) : not a
    degree of freedom in the valence set, but only used to ensure orthogonalization of
    the other valence basis functions on the frozen Core Orbitals.


 (power of) X  Y  Z  R     Alpha  on Atom
            ==========     =====     ==========

 F                                    1
                                  ---------------------------------------------------------------------------
            0  0  0  0    10.880      1
            0  0  0  0     7.700      2
            0  0  0  1     3.240      3
            0  0  0  1     1.940      4
            0  0  0  1     0.740      5
            1  0  0  0     4.540      6
            0  1  0  0     4.540      7
            0  0  1  0     4.540      8
            1  0  0  0     2.300      9
            0  1  0  0     2.300     10
            0  0  1  0     2.300     11
            1  0  0  0     1.240     12
            0  1  0  0     1.240     13
            0  0  1  0     1.240     14
            2  0  0  0     2.000     15
            1  1  0  0     2.000     16
            1  0  1  0     2.000     17
            0  2  0  0     2.000     18
            0  1  1  0     2.000     19
            0  0  2  0     2.000     20
            3  0  0  0     3.000     21
            2  1  0  0     3.000     22
            2  0  1  0     3.000     23
            1  2  0  0     3.000     24
            1  1  1  0     3.000     25
            1  0  2  0     3.000     26
            0  3  0  0     3.000     27
            0  2  1  0     3.000     28
            0  1  2  0     3.000     29
            0  0  3  0     3.000     30

 Total number of charge fitting functions (nprimf)        85
 Total number of Cartesian basis functions (naos)         30
 Total number of Cartesian core functions  (ncos)          0



 BAS: List of all Elementary Cartesian Basis Functions
 =====================================================

 The numbering in the list below (to the right of the function characteristics) is referred
 to in print-outs of MO eigenvectors and Mulliken populations in the BAS representation
 (as contrasted to the SFO representation).

 Notes:
 1. The functions are characterized by a polynomial prefactor (powers of x,y,z and r) and
    an exponential decay factor alpha.
 2. Since the basis sets are specific for an atom TYPE, the individual functions occur on
    all atoms of that type.
 3. The word 'Core' in the left margin signals that it is a Core Function (CF) : not a
    degree of freedom in the valence set, but only used to ensure orthogonalization of
    the other valence basis functions on the frozen Core Orbitals.


 (power of) X  Y  Z  R     Alpha  on Atom
            ==========     =====     ==========

 F                                    1
                                  ---------------------------------------------------------------------------
            0  0  0  0    10.880      1
            0  0  0  0     7.700      2
            0  0  0  1     3.240      3
            0  0  0  1     1.940      4
            0  0  0  1     0.740      5
            1  0  0  0     4.540      6
            0  1  0  0     4.540      7
            0  0  1  0     4.540      8
            1  0  0  0     2.300      9
            0  1  0  0     2.300     10
            0  0  1  0     2.300     11
            1  0  0  0     1.240     12
            0  1  0  0     1.240     13
            0  0  1  0     1.240     14
            2  0  0  0     2.000     15
            1  1  0  0     2.000     16
            1  0  1  0     2.000     17
            0  2  0  0     2.000     18
            0  1  1  0     2.000     19
            0  0  2  0     2.000     20
            3  0  0  0     3.000     21
            2  1  0  0     3.000     22
            2  0  1  0     3.000     23
            1  2  0  0     3.000     24
            1  1  1  0     3.000     25
            1  0  2  0     3.000     26
            0  3  0  0     3.000     27
            0  2  1  0     3.000     28
            0  1  2  0     3.000     29
            0  0  3  0     3.000     30
1
 ***************************************************************************************************



                                              ***********************
                                              *  T E C H N I C A L  *
                                              ***********************
  



 =============================================================
 P A R A L L E L I Z A T I O N  and  V E C T O R I Z A T I O N
 =============================================================
  
 Nr of parallel processes:                                1
 Maximum vector length in NumInt loops:                 128

 IO buffersize (Mb):                                     64.000000



 =====================
 S C F   U P D A T E S
 =====================
  
 Max. nr. of cycles:                               300
 Convergence criterion:                              0.0000000100
   secondary criterion:                              0.0000000100

 Mix parameter (when DIIS does not apply):           0.2000000000
 Special mix parameter for the first cycle:          1.0000000000
 Mixed ADIIS+DIIS will be used
    Max number of expansion vectors:                10
    Pure ADIIS when Max([F,P]) is above              0.1000000000
    Pure DIIS when Max([F,P]) is below               0.0010000000
 Automatic ElectronSmearing (in case of problematic SCF convergence) disabled



 =================
 P R E C I S I O N  ***  (General: NumInt, NeglectFunctionTails, ...)  ***
 =================
  

 NumInt:           Target precision:                12.0000000000
 -------           Initial precision:               10.0000000000
                   Min. precision (optimization):   10.0000000000

 Neglect Functions:          Basis functions:        0.1000000000E-13
 ------------------          Fit functions:          0.1000000000E-13



 ===========================
 L I N E A R   S C A L I N G
 ===========================
  

 Cut-off radii density fit:                        0.1000000000E-97
 Overlap cut-off criterion AO matrix elements:     0.1000000000E-97
 Cut-offs for Coulomb potential and fitted density:0.1000000000E-97
 Cut-off criterion for Coulomb multipole terms:    0.1000000000E-97
 Progressive Convergence parameter:                 0.000000000    
1
 ***************************************************************************************************



                                            ***************************
                                            *  C O M P U T A T I O N  *
                                            ***************************
  

 Number of elements of the density matrix on this node (used, total):       465       465



 ===========================================
 Numerical Integration : Fuzzy Cells (Becke)
 ===========================================
  
 Becke grid quality: VERYGOOD       
  
 Lebedev angular grid order:             min:  13 max:  41
 Nr. of radial points:                   min:  76 max:  76

 Total nr. of points:         76
 Nr. of blocks:                1
 Block length:                76
 Nr. of dummy points:          0


 Test of Precision of the Numerical Integration Grid
 ===================================================

 Integral of the Total Core Density:                   0.00000000000000



 ========================
 Density Fitting (zlmFit)
 ========================
  
 ZlmFit Fit Quality: VERYGOOD       
  
 Max L-expansion:                        min:   0 max:   0
 Nr. of radial interpolation points:     min: 170 max: 170



 =====
 S C F  ***  ScaSCF  ***
 =====
  

 CYCLE    1
 SCF Error: norm([F,P])=      0.000000000000, max([F,P])=      0.000000000000
 orbitals (Q,E):
 ---------------
 S :1...5            ( 2.00   -40.4878)  ( 2.00   -10.0106)  ( 0.00    -4.4145)  ( 0.00    -2.1243)
                     ( 0.00    34.3132)
 P :1...3            ( 5.00   -10.1248)  ( 0.00    -4.4262)  ( 0.00    -2.4124)
 D :1...1            ( 0.00    -4.0000)
 F :1...1            ( 0.00    -2.2500)

 CYCLE    2
  SDIIS (wt  0.000):  1.0000 -0.0000
 A-DIIS (wt  1.000):  0.0000  1.0000
  DIIS coefficients:  0.0000  1.0000
 SCF Error: norm([F,P])=     11.373794780581, max([F,P])=      4.777759414031
 orbitals (Q,E):
 ---------------
 S :1...3            ( 2.00   -18.8794)  ( 2.00    -0.0304)  ( 0.00     0.3093)
 P :1...2            ( 5.00     0.3553)  ( 0.00     1.5643)
 D :1...1            ( 0.00     1.6494)
 F :1...1            ( 0.00     4.0453)

 CYCLE    3
  SDIIS (wt  0.000):  0.2302  0.7698
 A-DIIS (wt  1.000):  0.4427  0.5573
  DIIS coefficients:  0.4427  0.5573
 SCF Error: norm([F,P])=      5.107371177545, max([F,P])=      3.125425661947
 orbitals (Q,E):
 ---------------
 S :1...3            ( 2.00   -24.7932)  ( 2.00    -1.7827)  ( 0.00    -0.0636)
 P :1...2            ( 5.00    -1.0793)  ( 0.00     0.2021)
 D :1...1            ( 0.00     0.6865)
 F :1...1            ( 0.00     2.8888)

 CYCLE    4
  SDIIS (wt  0.000): -0.0128  0.1085  0.9043
 A-DIIS (wt  1.000):  0.0000  0.0000  1.0000
  DIIS coefficients:  0.0000  0.0000  1.0000
 SCF Error: norm([F,P])=      0.965884247460, max([F,P])=      0.451655557762
 orbitals (Q,E):
 ---------------
 S :1...3            ( 2.00   -23.6749)  ( 2.00    -0.7847)  ( 0.00     0.0644)
 P :1...2            ( 5.00    -0.1299)  ( 0.00     0.5762)
 D :1...1            ( 0.00     1.2513)
 F :1...1            ( 0.00     3.5825)

 CYCLE    5
  SDIIS (wt  0.000):  0.0122 -0.0391  0.5749  0.4520
 A-DIIS (wt  1.000):  0.0000  0.0000  0.6712  0.3288
  DIIS coefficients:  0.0000  0.0000  0.6712  0.3288
 SCF Error: norm([F,P])=      1.674963411166, max([F,P])=      0.825318021724
 orbitals (Q,E):
 ---------------
 S :1...3            ( 2.00   -24.3044)  ( 2.00    -1.0529)  ( 0.00     0.0313)
 P :1...2            ( 5.00    -0.3714)  ( 0.00     0.4442)
 D :1...1            ( 0.00     1.1317)
 F :1...1            ( 0.00     3.4351)

 CYCLE    6
  SDIIS (wt  0.024):  0.0029  0.0040  0.0564 -0.0876  1.0243
 A-DIIS (wt  0.976):  0.0000  0.0000  0.0000  0.0000  1.0000
  DIIS coefficients:  0.0001  0.0001  0.0013 -0.0021  1.0006
 SCF Error: norm([F,P])=      0.199607562059, max([F,P])=      0.097634841195
 orbitals (Q,E):
 ---------------
 S :1...3            ( 2.00   -24.5137)  ( 2.00    -1.1478)  ( 0.00     0.0173)
 P :1...2            ( 5.00    -0.4644)  ( 0.00     0.4071)
 D :1...1            ( 0.00     1.0935)
 F :1...1            ( 0.00     3.3875)

 CYCLE    7
  SDIIS (wt  0.000): -0.0005  0.0010  0.0222 -0.0066  0.6116  0.3724
 A-DIIS (wt  1.000):  0.0000  0.0000  0.0000  0.0000  0.6122  0.3878
  DIIS coefficients:  0.0000  0.0000  0.0000  0.0000  0.6122  0.3878
 SCF Error: norm([F,P])=      0.266507541610, max([F,P])=      0.126514736478
 orbitals (Q,E):
 ---------------
 S :1...3            ( 2.00   -24.3946)  ( 2.00    -1.0985)  ( 0.00     0.0225)
 P :1...2            ( 5.00    -0.4159)  ( 0.00     0.4255)
 D :1...1            ( 0.00     1.1136)
 F :1...1            ( 0.00     3.4123)

 CYCLE    8
  SDIIS (wt  0.859):  0.0000 -0.0000 -0.0010  0.0023  0.0294 -0.0834  1.0527
 A-DIIS (wt  0.141):  0.0000  0.0000  0.0000  0.0000  0.0000  0.0000  1.0000
  DIIS coefficients:  0.0000 -0.0000 -0.0009  0.0020  0.0252 -0.0716  1.0453
 SCF Error: norm([F,P])=      0.030968782312, max([F,P])=      0.014981503364
 orbitals (Q,E):
 ---------------
 S :1...3            ( 2.00   -24.3770)  ( 2.00    -1.0904)  ( 0.00     0.0233)
 P :1...2            ( 5.00    -0.4080)  ( 0.00     0.4287)
 D :1...1            ( 0.00     1.1172)
 F :1...1            ( 0.00     3.4167)

 CYCLE    9
  SDIIS (wt  0.981): -0.0000  0.0000 -0.0001 -0.0004  0.0017  0.0154  0.0457  0.9377
 A-DIIS (wt  0.019):  0.0000  0.0000  0.0000  0.0000  0.0000  0.0000  0.0000  1.0000
  DIIS coefficients: -0.0000  0.0000 -0.0001 -0.0004  0.0017  0.0151  0.0448  0.9389
 SCF Error: norm([F,P])=      0.006059807167, max([F,P])=      0.002904332574
 orbitals (Q,E):
 ---------------
 S :1...3            ( 2.00   -24.3801)  ( 2.00    -1.0917)  ( 0.00     0.0232)
 P :1...2            ( 5.00    -0.4093)  ( 0.00     0.4282)
 D :1...1            ( 0.00     1.1167)
 F :1...1            ( 0.00     3.4160)

 CYCLE   10
  SDIIS (wt  1.000): -0.0000  0.0000  0.0000 -0.0000 -0.0005 -0.0009  1.0014
  DIIS coefficients: -0.0000  0.0000  0.0000 -0.0000 -0.0005 -0.0009  1.0014
 SCF Error: norm([F,P])=      0.000165576581, max([F,P])=      0.000079185113
 orbitals (Q,E):
 ---------------
 S :1...3            ( 2.00   -24.3800)  ( 2.00    -1.0917)  ( 0.00     0.0232)
 P :1...2            ( 5.00    -0.4092)  ( 0.00     0.4282)
 D :1...1            ( 0.00     1.1167)
 F :1...1            ( 0.00     3.4160)

 CYCLE   11
  SDIIS (wt  1.000): -0.0000  0.0000 -0.0000 -0.0003 -0.0117  1.0121
  DIIS coefficients: -0.0000  0.0000 -0.0000 -0.0003 -0.0117  1.0121
 SCF Error: norm([F,P])=      0.000000045102, max([F,P])=      0.000000021900
 orbitals (Q,E):
 ---------------
 S :1...3            ( 2.00   -24.3800)  ( 2.00    -1.0917)  ( 0.00     0.0232)
 P :1...2            ( 5.00    -0.4092)  ( 0.00     0.4282)
 D :1...1            ( 0.00     1.1167)
 F :1...1            ( 0.00     3.4160)

 CYCLE   12
  SDIIS (wt  1.000): -0.0000  0.0075  0.9925
  DIIS coefficients: -0.0000  0.0075  0.9925
 SCF Error: norm([F,P])=      0.000000000761, max([F,P])=      0.000000000372
 orbitals (Q,E):
 ---------------
 S :1...3            ( 2.00   -24.3800)  ( 2.00    -1.0917)  ( 0.00     0.0232)
 P :1...2            ( 5.00    -0.4092)  ( 0.00     0.4282)
 D :1...1            ( 0.00     1.1167)
 F :1...1            ( 0.00     3.4160)

 SCF CONVERGED

 CYCLE   13
1
 ***************************************************************************************************



                                                *******************
                                                *  R E S U L T S  *
                                                *******************
  
 *** Setting up for NEW gradients in Focky
 *** Using FIT density in Focky

 Orbital Energies, per Irrep and Spin:
 ======================================
                        Occup              E (au)              E (eV)       Diff (eV) with prev. cycle
                        -----      --------------------        ------       --------------------------
 S
               1        2.000     -0.24380013662793E+02      -663.414              -5.70E-10
               2        2.000     -0.10916696572490E+01       -29.706              -4.11E-10
               3        0.000      0.23171521938657E-01         0.631
               4        0.000      0.15801599788495E+01        42.998
               5        0.000      0.48367571090263E+02      1316.149
 P
               1        5.000     -0.40924594303694E+00       -11.136              -3.94E-10
               2        0.000      0.42818717158446E+00        11.652
               3        0.000      0.45634501130520E+01       124.178
 D
               1        0.000      0.11166683619357E+01        30.386
 F
               1        0.000      0.34160293329535E+01        92.955


 Partially Occupied:
               1 P                -0.40924594303694E+00
  
 HOMO :        2 S                -0.10916696572490E+01
 LUMO :        3 S                 0.23171521938657E-01
  


 Orbital Energies, all Irreps
 ========================================

 Irrep        no.  (spin)   Occup              E (au)                E (eV)
 ---------------------------------------------------------------------------
 S             1             2.00       -0.24380013662793E+02      -663.4139
 S             2             2.00       -0.10916696572490E+01       -29.7058
 P             1             5.00       -0.40924594303694E+00       -11.1361
 S             3             0.00        0.23171521938657E-01         0.6305
 P             2             0.00        0.42818717158446E+00        11.6516
 D             1             0.00        0.11166683619357E+01        30.3861
 S             4             0.00        0.15801599788495E+01        42.9983
 F             1             0.00        0.34160293329535E+01        92.9549
 P             3             0.00        0.45634501130520E+01       124.1778
 S             5             0.00        0.48367571090263E+02      1316.1486


 All Electron Calculation, thus no Orbital Energies of the Core Orbitals are calculated



 =======================================
 M U L L I K E N   P O P U L A T I O N S
 =======================================
  
 The survey below gives for each atom:
 a) the total charge (Z minus electrons)
 b) the net spin polarization (nr of electrons spin-A minus spin-B)
 c) for each spin the atomic electron valence density (integrated) per L-value.

 Atom              Charge    Spin density          S         P         D         F
 ----              ------    ------------       ------    ------    ------    ------
 1 F              -0.0000                       4.0000    5.0000    0.0000    0.0000

 Populations of individual BAS functions
 ----------------------------------------
 1 F            0.5735  1.4020  1.1462  0.8789 -0.0006  0.3652  0.3652  0.3652  0.9146  0.9146
                0.9146  0.3869  0.3869  0.3869  0.0000  0.0000  0.0000  0.0000  0.0000  0.0000
                0.0000  0.0000  0.0000  0.0000  0.0000  0.0000  0.0000  0.0000  0.0000  0.0000

 Gross Charges per Atom (Z minus electrons)
 ==========================================
            -0.0000
 Net Total: -0.00000000



 =======================================================================
 Electrostatic potential at the Nuclei due to electrons and other nuclei
 =======================================================================
  
         Atom                  Potential
         ----                  ---------
     1)   F                  26.51041126
 
 
 ========================
 No memory problems found
 ========================
 
 Maximum number of active allocate calls:         447
 
 *******************************************************************************

                             A D F   E X I T
 NORMAL TERMINATION



 =================
 Timing Statistics
 =================
  
 Total Used :                     CPU=        0.51      System=        0.02     Elapsed=        0.53

 Calls  Section                     ( Mean, Percentage )
 ---------------------------------------------------------------------------------------------------
     3  ><      ................      0.00    0.20             0.00    0.00             0.00    0.15
     1  INIT    ................      0.01    2.35             0.01   60.00             0.03    4.81
     1  GEOMET  ................      0.01    1.37             0.00   10.00             0.01    1.58
     1  INPUTA  ................      0.00    0.20             0.00    0.00             0.00    0.29
     1  MAINSY  ................      0.00    0.59             0.00   15.00             0.01    1.12
     1  SYMFIT  ................      0.00    0.00             0.00    5.00             0.00    0.15
     1  CORORT  ................      0.00    0.00             0.00    0.00             0.00    0.05
     1  SYMORB  ................      0.00    0.20             0.00    0.00             0.00    0.13
     1  CLSMAT  ................      0.00    0.98             0.00    0.00             0.01    0.98
     1  ORTHON  ................      0.00    0.39             0.00    0.00             0.00    0.30
     1  GENPT   ................      0.01    2.75             0.00    0.00             0.01    2.78
     1  PTBAS   ................      0.00    0.78             0.00    0.00             0.00    0.65
    13  FOCKY   ................      0.03   74.71             0.00   10.00             0.03   72.30
    13  FOCKTR  ................      0.00    2.35             0.00    0.00             0.00    2.03
    13  SDIIS   ................      0.00    4.12             0.00    0.00             0.00    3.96
     1  COREPS  ................      0.02    4.31             0.00    0.00             0.02    4.15
     1  POPAN   ................      0.01    0.98             0.00    0.00             0.01    0.98
     1  DEBYE   ................      0.00    0.00             0.00    0.00             0.00    0.10
     1  EXIT PROCEDURE .........      0.02    3.73             0.00    0.00             0.02    3.48


 Currently Open Files (EXIT00)
 ====================

 Unit    Access Format  Status   Type       Ident (file)
 -------------------------------------------------------
   3      SEQ    FORM   TRANSP  NORMAL      LOGFILE
                                          ( logfile )


 Buffered I/O statistics
 =======================
 Memory available:                     67108864
 Number of records fitting in memory:     16131
 Input :   0.1% of                        27818  *4k bytes
 Output:  13.5% of                         1383  *4k bytes
 Records from serial files evicted:           0
                    others evicted:           0
 Hash table lookups:      71870 with          0 conflicts (  0.00%)

 ***************************************************************************************************
 (LOGFILE)
 <Apr18-2019> <21:31:21>  ADF development version  RunTime: Apr18-2019 21:31:21  Nodes: 1  Procs: 1
 <Apr18-2019> <21:31:21>  Hydrogen (TZ2P)
 <Apr18-2019> <21:31:21>  RunType   : CREATE
 <Apr18-2019> <21:31:21>  Net Charge: 0 (Nuclei minus Electrons)
 <Apr18-2019> <21:31:21>  Symmetry  : ATOM
  Coordinates
    Atom         X           Y           Z   (Angstrom)
    1.H         0.000000    0.000000    0.000000
 <Apr18-2019> <21:31:21>  >>>> CORORT
 <Apr18-2019> <21:31:21>  >>>> CLSMAT
 <Apr18-2019> <21:31:21>  >>>> ORTHON
 <Apr18-2019> <21:31:21>  >>>> GENPT
 <Apr18-2019> <21:31:21>  Block Length=  64
 <Apr18-2019> <21:31:21>  >>>> PTBAS
 <Apr18-2019> <21:31:21>  >>>> CYCLE
 <Apr18-2019> <21:31:21>              |Error|         MaxErr       Wt(A-DIIS)
 <Apr18-2019> <21:31:21>      1      0.00000000      0.00000000
 <Apr18-2019> <21:31:21>      2      0.03100286      0.02644424
 <Apr18-2019> <21:31:21>      3      0.00958001      0.00932852    100.0
 <Apr18-2019> <21:31:21>      4      0.00232093      0.00228640      1.3
 <Apr18-2019> <21:31:21>      5      0.00003155      0.00002984      0.0
 <Apr18-2019> <21:31:21>      6      0.00000096      0.00000091      0.0
 <Apr18-2019> <21:31:21>      7      0.00000000      0.00000000      0.0
 <Apr18-2019> <21:31:21>  SCF converged
 <Apr18-2019> <21:31:21>      8      0.00000000      0.00000000      0.0
 <Apr18-2019> <21:31:21>  >>>> POPAN
 <Apr18-2019> <21:31:21>  >>>> DEBYE
 <Apr18-2019> <21:31:21>  NORMAL TERMINATION
 <Apr18-2019> <21:31:21>  END
 <Apr18-2019> <21:31:21>  ADF development version  RunTime: Apr18-2019 21:31:21  Nodes: 1  Procs: 1
 <Apr18-2019> <21:31:21>  Fluorine (TZ2P)
 <Apr18-2019> <21:31:21>  RunType   : CREATE
 <Apr18-2019> <21:31:21>  Net Charge: 0 (Nuclei minus Electrons)
 <Apr18-2019> <21:31:21>  Symmetry  : ATOM
  Coordinates
    Atom         X           Y           Z   (Angstrom)
    1.F         0.000000    0.000000    0.000000
 <Apr18-2019> <21:31:21>  >>>> CORORT
 <Apr18-2019> <21:31:21>  >>>> CLSMAT
 <Apr18-2019> <21:31:21>  >>>> ORTHON
 <Apr18-2019> <21:31:21>  >>>> GENPT
 <Apr18-2019> <21:31:21>  Block Length=  76
 <Apr18-2019> <21:31:21>  >>>> PTBAS
 <Apr18-2019> <21:31:21>  >>>> CYCLE
 <Apr18-2019> <21:31:22>              |Error|         MaxErr       Wt(A-DIIS)
 <Apr18-2019> <21:31:22>      1      0.00000000      0.00000000
 <Apr18-2019> <21:31:22>      2     11.37379478      4.77775941    100.0
 <Apr18-2019> <21:31:22>      3      5.10737118      3.12542566    100.0
 <Apr18-2019> <21:31:22>      4      0.96588425      0.45165556    100.0
 <Apr18-2019> <21:31:22>      5      1.67496341      0.82531802    100.0
 <Apr18-2019> <21:31:22>      6      0.19960756      0.09763484     97.6
 <Apr18-2019> <21:31:22>      7      0.26650754      0.12651474    100.0
 <Apr18-2019> <21:31:22>      8      0.03096878      0.01498150     14.1
 <Apr18-2019> <21:31:22>      9      0.00605981      0.00290433      1.9
 <Apr18-2019> <21:31:22>     10      0.00016558      0.00007919      0.0
 <Apr18-2019> <21:31:22>     11      0.00000005      0.00000002      0.0
 <Apr18-2019> <21:31:22>     12      0.00000000      0.00000000      0.0
 <Apr18-2019> <21:31:22>  SCF converged
 <Apr18-2019> <21:31:22>     13      0.00000000      0.00000000      0.0
 <Apr18-2019> <21:31:22>  >>>> POPAN
 <Apr18-2019> <21:31:22>  >>>> DEBYE
 <Apr18-2019> <21:31:22>  NORMAL TERMINATION
 <Apr18-2019> <21:31:22>  END


 Parallel Execution: Process Information
 ==============================================================================
 Rank   Node Name                              NodeID   MyNodeRank  NodeMaster
    0   BAZIS-cn076                               0          0          0
    1   BAZIS-cn076                               0          1         -1
    2   BAZIS-cn076                               0          2         -1
    3   BAZIS-cn076                               0          3         -1
    4   BAZIS-cn076                               0          4         -1
    5   BAZIS-cn076                               0          5         -1
    6   BAZIS-cn076                               0          6         -1
    7   BAZIS-cn076                               0          7         -1
    8   BAZIS-cn076                               0          8         -1
    9   BAZIS-cn076                               0          9         -1
   10   BAZIS-cn076                               0         10         -1
   11   BAZIS-cn076                               0         11         -1
 ==============================================================================


May use up to 30736MB of RAM as shared memory on node 0


XC
  GGA blyp
  DISPERSION Grimme3 BJDAMP
END

ANALYTICALFREQ
END

SCF
  iterations 250
END

SYMMETRY nosym
CHARGE -1

ZLMFIT
  Quality normal
END

BECKEGRID
  Quality good
End

ATOMS
    1.F        -3.731236    0.202277   -0.041456
    2.H        -2.925328    0.331447    0.521548
END

Fragments
H t21.H
F t21.F
End
end input

 *******************************************************************************
 *                                                                             *
 *  -------------------------------------                                      *
 *   Amsterdam Density Functional  (ADF)         development version           *
 *  -------------------------------------                                      *
 *                                               r61132 2017-09-08             *
 *                                                                             *
 *                                                                             *
 *                              =================                              *
 *                              |               |                              *
 *                              |     A D F     |                              *
 *                              |               |                              *
 *                              =================                              *
 *                                                                             *
 *                                                                             *
 *   Online information and documentation:  https://www.scm.com/support/       *
 *   E-mail:  support@scm.com   info@scm.com                                   *
 *                                                                             *
 *   Scientific publications using ADF results must be properly referenced     *
 *   See the User Manuals (or the web site) for recommended citations          *
 *   The terms and conditions of the End User License Agreement apply to       *
 *   the use of ADF, https://www.scm.com/license-terms/                        *
 *                                                                             *
 **********************  x86_64_linux_intel / intelmpi  ************************
 
 Licensed to: VU/FEW (+ SARA) / ALGEMEEN / Amsterdam / THE NETHERLANDS
 SCM User ID: u7668
  
 ADF development version  RunTime: Apr18-2019 21:31:22  Nodes: 1  Procs: 12

 Temporary files are created in /local/datastore0/tcst25/186794/kid_0.mUsnRU


Communication costs MPI_COMM_WORLD:      2.554 usec per message,   0.0132 usec per 8-byte item
Communication costs for intra-node:      2.547 usec per message,   0.0132 usec per 8-byte item

 *** (NO TITLE) ***



 ===========================
 A T T A C H E D   F I L E S
 ===========================
  



 ===============================
 M O D E L   P A R A M E T E R S
 ===============================
  
 DENSITY FUNCTIONAL POTENTIAL (scf)
    LDA:                               Exchange only                           == Not Default ==
    Gradient Corrections:              Becke88 LYP                             == Not Default ==

 SPIN  (restricted / unrestr.)
    Molecule:                          Restricted                               
    Fragments:                         Restricted                               

 OTHER ASPECTS
    Relativistic Corrections:          ---                                      

    Nuclear Charge Density Model:      Point Charge Nuclei                      
    Core Treatment:                    Frozen Orbital(s)                        

    Hyperfine or Zeeman Interaction:   ---                                      

 Settings for Grimme 3 dispersion correction

      damping                        BJ
      s6                          1.000
      a1                          0.430
      s8                          2.700
      a2                          4.236

 Other (technical) parameters

      alpha                      14.000
      version                         4
 


 Fragment File(s)
 ----------------
 F:
         file : t21.F
         jobid: ADF development version  RunTime: Apr18-2019 21:31:21  Nodes: 1  Procs: 1
         title: Fluorine (TZ2P)
 H:
         file : t21.H
         jobid: ADF development version  RunTime: Apr18-2019 21:31:21  Nodes: 1  Procs: 1
         title: Hydrogen (TZ2P)



                                        ************************************
                                        *  R U N   T Y P E : SINGLE POINT  *
                                        ************************************
  



 ===============
 G E O M E T R Y  ***  Linear Molecule  ***
 ===============
  

 ATOMS
 =====                            X Y Z                    CHARGE
                                (Angstrom)             Nucl     +Core       At.Mass
                       --------------------------    ----------------       -------
    1  F              -3.7312    0.2023   -0.0415      9.00      9.00       18.9984
    2  H              -2.9253    0.3314    0.5215      1.00      1.00        1.0078


 FRAGMENTS
 =========                                     Atoms in this Fragment     Cart. coord.s (Angstrom)
                                               -------------------------------------------------------
    1  F                                                 1  F           -3.7312    0.2023   -0.0415
    2  H                                                 2  H           -2.9253    0.3314    0.5215


 Interatomic Distance Matrix (Angstrom)
 --------------------------------------

   1)     0.000
   2)     0.992   0.000



 =====================================
 S Y M M E T R Y ,   E L E C T R O N S
 =====================================
  
 Symmetry: NOSYM

 Irreducible Representations, including subspecies
 -------------------------------------------------
 A


 Configuration of Valence Electrons
 ==================================
 ( determined in the SCF procedure )

 Total:   11

 ===============
 W A R N I N G :
 ===============

 The number of electrons does not correspond to doubly occupied orbitals,
 i.e. there would be one orbital with 0.5-alpha and 0.5-beta electrons.

 Normally, this corresponds to a doublet that should be treated within
 the UNRESTRICTED framework. For example, for a doublet:

   CHARGE  -1.0 1.0
   Unrestricted

 See the online manual (http://www.scm.com) for more information on
 how to use the UNRESTRICTED framework.

 If you are definitely certain that for this job the restricted open-shell
 is appropriate, you can overcome this warning by placing on input:
   ALLOW ROKS

 In case of doubt, contact support@scm.com with this problem.

 Net Charge: -1 (Nuclei minus Electrons)

 Aufbau principle for MO occupations will be applied through SCF cycle no.     125
 Thereafter, the program will assign electrons to MOs that are spatially
 similar to the occupied MOs in a "reference" cycle ("KeepOrbitals").
 The reference cycle is always the PREVIOUS cycle: it will evolve with
 the SCF procedure.
1
 ***************************************************************************************************



                                      ****************************************
                                      *  B U I L D : (Fragments, Functions)  *
                                      ****************************************
  



 =======
 S F O s  ***  (Symmetrized Fragment Orbitals)  ***
 =======
  
 SFOs are linear combinations of (valence) Fragment Orbitals (FOs), such that the SFOs transform as the
 irreducible representations of the (molecular) symmetry group. Each SFO is therefore characterized by
 an irrep of the molecule and by a few (or only one) generating FOs.
 The SFOs constitute a symmetry-adapted basis for the Fock matrix. The MO eigenvector coefficients in
 this basis provide a direct interpretation of the MOs in terms of Frontier Orbital Theory.

 The SFOs are combined with auxiliary Core Functions (CFs) to ensure orthogonalization on the (frozen)
 Core Orbitals (COs). The Core-orthogonalized SFOs (CSFOs) constitute the true Fock basis.

 The FOs, and hence also the (C)SFOs are combinations of the elementary basis functions (BAS). The basis
 functions that participate in the description of the SFOs depend on the irrep. The indices of the
 involved functions are printed below for each irrep.
 (The complete list of primitive basis functions is printed in another section)

 Total nr. of (C)SFOs (summation over all irreps) :    37

 NOTE: a (C)SFO that is defined as a combination of more than one FO is usually NOT normalized.



                                       === A ===
 Nr. of SFOs :   37
 Cartesian basis functions that participate in this irrep (total number =    42) :
      1     2     3     4     5     6     9    12     7    10
     13     8    11    14    15    16    17    18    19    20
     21    22    23    24    25    26    27    28    29    30
     31    32    33    34    35    36    37    38    39    40
     41    42

    SFO  (index         Fragment          Generating    Expansion in Fragment Orbitals
  indx  incl.CFs)   Occup   Orb.Energy   FragmentType  Coeff.   Orbital     on Fragment
 --------------------------------------------------------------------------------------
     1       1      2.000     -24.380 au  F             1.00      1 S               1
                        (    -663.414 eV)
     2       2      2.000      -1.092 au  F             1.00      2 S               1
                        (     -29.706 eV)
     3       3       --         0.023 au  F             1.00      3 S               1
                        (       0.631 eV)
     4       4       --         1.580 au  F             1.00      4 S               1
                        (      42.998 eV)
     5       5       --        48.368 au  F             1.00      5 S               1
                        (    1316.149 eV)
     6       6      1.667      -0.409 au  F             1.00      1 P:x             1
                        (     -11.136 eV)
     7       7       --         0.428 au  F             1.00      2 P:x             1
                        (      11.652 eV)
     8       8       --         4.563 au  F             1.00      3 P:x             1
                        (     124.178 eV)
     9       9      1.667      -0.409 au  F             1.00      1 P:y             1
                        (     -11.136 eV)
    10      10       --         0.428 au  F             1.00      2 P:y             1
                        (      11.652 eV)
    11      11       --         4.563 au  F             1.00      3 P:y             1
                        (     124.178 eV)
    12      12      1.667      -0.409 au  F             1.00      1 P:z             1
                        (     -11.136 eV)
    13      13       --         0.428 au  F             1.00      2 P:z             1
                        (      11.652 eV)
    14      14       --         4.563 au  F             1.00      3 P:z             1
                        (     124.178 eV)
    15      15       --         1.117 au  F             1.00      1 D:z2            1
                        (      30.386 eV)
    16      16       --         1.117 au  F             1.00      1 D:x2-y2         1
                        (      30.386 eV)
    17      17       --         1.117 au  F             1.00      1 D:xy            1
                        (      30.386 eV)
    18      18       --         1.117 au  F             1.00      1 D:xz            1
                        (      30.386 eV)
    19      19       --         1.117 au  F             1.00      1 D:yz            1
                        (      30.386 eV)
    20      20       --         3.416 au  F             1.00      1 F:z3            1
                        (      92.955 eV)
    21      21       --         3.416 au  F             1.00      1 F:z             1
                        (      92.955 eV)
    22      22       --         3.416 au  F             1.00      1 F:xyz           1
                        (      92.955 eV)
    23      23       --         3.416 au  F             1.00      1 F:z2x           1
                        (      92.955 eV)
    24      24       --         3.416 au  F             1.00      1 F:z2y           1
                        (      92.955 eV)
    25      25       --         3.416 au  F             1.00      1 F:x             1
                        (      92.955 eV)
    26      26       --         3.416 au  F             1.00      1 F:y             1
                        (      92.955 eV)
    27      27      1.000      -0.240 au  H             1.00      1 S               2
                        (      -6.532 eV)
    28      28       --         0.088 au  H             1.00      2 S               2
                        (       2.394 eV)
    29      29       --         1.502 au  H             1.00      3 S               2
                        (      40.877 eV)
    30      30       --         0.406 au  H             1.00      1 P:x             2
                        (      11.052 eV)
    31      31       --         0.406 au  H             1.00      1 P:y             2
                        (      11.052 eV)
    32      32       --         0.406 au  H             1.00      1 P:z             2
                        (      11.052 eV)
    33      33       --         2.570 au  H             1.00      1 D:z2            2
                        (      69.925 eV)
    34      34       --         2.570 au  H             1.00      1 D:x2-y2         2
                        (      69.925 eV)
    35      35       --         2.570 au  H             1.00      1 D:xy            2
                        (      69.925 eV)
    36      36       --         2.570 au  H             1.00      1 D:xz            2
                        (      69.925 eV)
    37      37       --         2.570 au  H             1.00      1 D:yz            2
                        (      69.925 eV)



 ================================
 (Slater-type)  F U N C T I O N S  ***  (Basis and Fit)  ***
 ================================
  

 Atom Type    1  (F)
 ==============

 Valence Basis Sets:  10
 -----------------------
   1 S   10.880000
   1 S    7.700000
   2 S    3.240000
   2 S    1.940000
   2 S    0.740000
   2 P    4.540000
   2 P    2.300000
   2 P    1.240000
   3 D    2.000000
   4 F    3.000000

 Atom Type    2  (H)
 ==============

 Valence Basis Sets:   5
 -----------------------
   1 S    0.690000
   1 S    0.920000
   1 S    1.580000
   2 P    1.250000
   3 D    2.500000


 BAS: List of all Elementary Cartesian Basis Functions
 =====================================================

 The numbering in the list below (to the right of the function characteristics) is referred
 to in print-outs of MO eigenvectors and Mulliken populations in the BAS representation
 (as contrasted to the SFO representation).

 Notes:
 1. The functions are characterized by a polynomial prefactor (powers of x,y,z and r) and
    an exponential decay factor alpha.
 2. Since the basis sets are specific for an atom TYPE, the individual functions occur on
    all atoms of that type.
 3. The word 'Core' in the left margin signals that it is a Core Function (CF) : not a
    degree of freedom in the valence set, but only used to ensure orthogonalization of
    the other valence basis functions on the frozen Core Orbitals.


 (power of) X  Y  Z  R     Alpha  on Atom
            ==========     =====     ==========

 F                                    1
                                  ---------------------------------------------------------------------------
            0  0  0  0    10.880      1
            0  0  0  0     7.700      2
            0  0  0  1     3.240      3
            0  0  0  1     1.940      4
            0  0  0  1     0.740      5
            1  0  0  0     4.540      6
            0  1  0  0     4.540      7
            0  0  1  0     4.540      8
            1  0  0  0     2.300      9
            0  1  0  0     2.300     10
            0  0  1  0     2.300     11
            1  0  0  0     1.240     12
            0  1  0  0     1.240     13
            0  0  1  0     1.240     14
            2  0  0  0     2.000     15
            1  1  0  0     2.000     16
            1  0  1  0     2.000     17
            0  2  0  0     2.000     18
            0  1  1  0     2.000     19
            0  0  2  0     2.000     20
            3  0  0  0     3.000     21
            2  1  0  0     3.000     22
            2  0  1  0     3.000     23
            1  2  0  0     3.000     24
            1  1  1  0     3.000     25
            1  0  2  0     3.000     26
            0  3  0  0     3.000     27
            0  2  1  0     3.000     28
            0  1  2  0     3.000     29
            0  0  3  0     3.000     30

 H                                    2
                                  ---------------------------------------------------------------------------
            0  0  0  0     0.690     31
            0  0  0  0     0.920     32
            0  0  0  0     1.580     33
            1  0  0  0     1.250     34
            0  1  0  0     1.250     35
            0  0  1  0     1.250     36
            2  0  0  0     2.500     37
            1  1  0  0     2.500     38
            1  0  1  0     2.500     39
            0  2  0  0     2.500     40
            0  1  1  0     2.500     41
            0  0  2  0     2.500     42

 Total number of charge fitting functions (nprimf)       135
 Total number of Cartesian basis functions (naos)         42
 Total number of Cartesian core functions  (ncos)          0

1
 ***************************************************************************************************



                                              ***********************
                                              *  T E C H N I C A L  *
                                              ***********************
  



 =============================================================
 P A R A L L E L I Z A T I O N  and  V E C T O R I Z A T I O N
 =============================================================
  
 Nr of parallel processes:                               12
 Maximum vector length in NumInt loops:                 128

 IO buffersize (Mb):                                     64.000000



 =====================
 S C F   U P D A T E S
 =====================
  
 Max. nr. of cycles:                               250
 Convergence criterion:                              0.0000010000
   secondary criterion:                              0.0010000000

 Mix parameter (when DIIS does not apply):           0.2000000000
 Mixed ADIIS+DIIS will be used
    Max number of expansion vectors:                10
    Pure ADIIS when Max([F,P]) is above              0.1000000000
    Pure DIIS when Max([F,P]) is below               0.0010000000
 Automatic ElectronSmearing (in case of problematic SCF convergence) disabled



 =================
 P R E C I S I O N  ***  (General: NumInt, NeglectFunctionTails, ...)  ***
 =================
  

 NumInt:           Target precision:                 6.0000000000
 -------           Initial precision:                6.0000000000
                   Min. precision (optimization):    6.0000000000

 Neglect Functions:          Basis functions:        0.1000000000E-07
 ------------------          Fit functions:          0.1000000000E-07



 ===========================
 L I N E A R   S C A L I N G
 ===========================
  

 Cut-off radii density fit:                        0.1000000000E-09
 Overlap cut-off criterion AO matrix elements:     0.1000000000E-07
 Cut-offs for Coulomb potential and fitted density:0.1000000000E-09
 Cut-off criterion for Coulomb multipole terms:    0.1000000000E-09
 Progressive Convergence parameter:                 0.000000000    
1
 ***************************************************************************************************



                                            ***************************
                                            *  C O M P U T A T I O N  *
                                            ***************************
  

 Number of elements of the density matrix on this node (used, total):       465       903



 ===========================================
 Numerical Integration : Fuzzy Cells (Becke)
 ===========================================
  
 Becke grid quality: GOOD           
  
 Lebedev angular grid order:             min:  11 max:  31
 Nr. of radial points:                   min:  54 max:  65

 Total nr. of points:      25818
 Nr. of blocks:              202
 Block length:               128
 Nr. of dummy points:         38


 Test of Precision of the Numerical Integration Grid
 ===================================================

 Integral of the Total Core Density:                   0.00000000000000



 ========================
 Density Fitting (zlmFit)
 ========================
  
 ZlmFit Fit Quality: NORMAL         
  
 Max L-expansion:                        min:   6 max:   7
 Nr. of radial interpolation points:     min:  39 max:  51



 =====
 S C F  ***  ScaSCF  ***
 =====
  
 Initial density matrix is calculated as sum of fragments

 CYCLE    1
 SCF Error: norm([F,P])=      1.365243264260, max([F,P])=      1.172090217431
 orbitals (Q,E):
 ---------------
 A :1...16           ( 2.00   -24.4344)  ( 2.00    -1.1871)  ( 2.00    -0.5722)  ( 2.00    -0.4610)
                     ( 2.00    -0.4610)  ( 1.00    -0.0634)  ( 0.00     0.0484)  ( 0.00     0.1667)
                     ( 0.00     0.3595)  ( 0.00     0.3595)  ( 0.00     0.5842)  ( 0.00     0.6049)
                     ( 0.00     0.6049)  ( 0.00     0.7523)  ( 0.00     1.0658)  ( 0.00     1.0658)

 CYCLE    2
  SDIIS (wt  0.000):  0.1854  0.8146
 A-DIIS (wt  1.000):  0.6893  0.3107
  DIIS coefficients:  0.6893  0.3107
 SCF Error: norm([F,P])=      0.638146538362, max([F,P])=      0.256826430704
 orbitals (Q,E):
 ---------------
 A :1...7            ( 2.00   -24.1472)  ( 2.00    -0.9928)  ( 2.00    -0.3925)  ( 2.00    -0.2708)
                     ( 2.00    -0.2708)  ( 1.00     0.0270)  ( 0.00     0.1200)

 CYCLE    3
  SDIIS (wt  0.000):  0.0054 -0.0197  1.0143
 A-DIIS (wt  1.000):  0.5274  0.0000  0.4726
  DIIS coefficients:  0.5274  0.0000  0.4726
 SCF Error: norm([F,P])=      0.078844640203, max([F,P])=      0.029623680191
 orbitals (Q,E):
 ---------------
 A :1...7            ( 2.00   -24.2117)  ( 2.00    -0.9902)  ( 2.00    -0.3853)  ( 2.00    -0.2672)
                     ( 2.00    -0.2672)  ( 1.00     0.0526)  ( 0.00     0.1432)

 CYCLE    4
  SDIIS (wt  0.000): -0.8227  1.8227
 A-DIIS (wt  1.000):  0.0000  1.0000
  DIIS coefficients:  0.0000  1.0000
 SCF Error: norm([F,P])=      0.291927833925, max([F,P])=      0.120625434618
 orbitals (Q,E):
 ---------------
 A :1...7            ( 2.00   -23.7854)  ( 2.00    -0.7018)  ( 2.00    -0.1237)  ( 2.00     0.0131)
                     ( 2.00     0.0131)  ( 1.00     0.1763)  ( 0.00     0.2534)

 CYCLE    5
  SDIIS (wt  0.000): -0.2587  1.0570  0.2017
 A-DIIS (wt  1.000):  0.0000  0.7637  0.2363
  DIIS coefficients:  0.0000  0.7637  0.2363
 SCF Error: norm([F,P])=      0.714110806820, max([F,P])=      0.284136611510
 orbitals (Q,E):
 ---------------
 A :1...7            ( 2.00   -23.9566)  ( 2.00    -0.7787)  ( 2.00    -0.1868)  ( 2.00    -0.0592)
                     ( 2.00    -0.0592)  ( 1.00     0.1665)  ( 0.00     0.2437)

 CYCLE    6
  SDIIS (wt  0.000):  0.1643 -0.0315 -0.1030 -0.1460  1.1162
 A-DIIS (wt  1.000):  0.0000  0.4058  0.0041  0.0000  0.5901
  DIIS coefficients:  0.0000  0.4058  0.0041  0.0000  0.5901
 SCF Error: norm([F,P])=      0.159521483970, max([F,P])=      0.063129386790
 orbitals (Q,E):
 ---------------
 A :1...7            ( 2.00   -24.0580)  ( 2.00    -0.8250)  ( 2.00    -0.2265)  ( 2.00    -0.1032)
                     ( 2.00    -0.1032)  ( 1.00     0.1590)  ( 0.00     0.2375)

 CYCLE    7
  SDIIS (wt  0.000):  0.2396  0.9051 -1.5727  0.0702 -0.4808  1.8387
 A-DIIS (wt  1.000):  0.0000  0.0000  0.0000  0.0000  0.4362  0.5638
  DIIS coefficients:  0.0000  0.0000  0.0000  0.0000  0.4362  0.5638
 SCF Error: norm([F,P])=      0.145173897332, max([F,P])=      0.050973854055
 orbitals (Q,E):
 ---------------
 A :1...7            ( 2.00   -24.0082)  ( 2.00    -0.8123)  ( 2.00    -0.2169)  ( 2.00    -0.0895)
                     ( 2.00    -0.0894)  ( 1.00     0.1562)  ( 0.00     0.2368)

 CYCLE    8
  SDIIS (wt  0.939):  0.0215  0.0399 -0.0684 -0.0447  0.3134  0.2268  0.5115
 A-DIIS (wt  0.061):  0.0000  0.0000  0.0000  0.0000  0.0000  0.0000  1.0000
  DIIS coefficients:  0.0202  0.0374 -0.0642 -0.0420  0.2943  0.2130  0.5413
 SCF Error: norm([F,P])=      0.022095999575, max([F,P])=      0.007030374535
 orbitals (Q,E):
 ---------------
 A :1...7            ( 2.00   -24.0130)  ( 2.00    -0.8119)  ( 2.00    -0.2164)  ( 2.00    -0.0899)
                     ( 2.00    -0.0899)  ( 1.00     0.1579)  ( 0.00     0.2372)

 CYCLE    9
  SDIIS (wt  1.000): -0.0003 -0.0006  0.0024 -0.0033  0.0291  0.0159  0.1283  0.8285
  DIIS coefficients: -0.0003 -0.0006  0.0024 -0.0033  0.0291  0.0159  0.1283  0.8285
 SCF Error: norm([F,P])=      0.002406814759, max([F,P])=      0.000720421572
 orbitals (Q,E):
 ---------------
 A :1...7            ( 2.00   -24.0126)  ( 2.00    -0.8119)  ( 2.00    -0.2164)  ( 2.00    -0.0898)
                     ( 2.00    -0.0898)  ( 1.00     0.1578)  ( 0.00     0.2372)

 CYCLE   10
  SDIIS (wt  1.000): -0.0000 -0.0001  0.0003 -0.0002  0.0028  0.0022  0.0178  0.1169  0.8604
  DIIS coefficients: -0.0000 -0.0001  0.0003 -0.0002  0.0028  0.0022  0.0178  0.1169  0.8604
 SCF Error: norm([F,P])=      0.000054099241, max([F,P])=      0.000023254262
 orbitals (Q,E):
 ---------------
 A :1...7            ( 2.00   -24.0125)  ( 2.00    -0.8119)  ( 2.00    -0.2164)  ( 2.00    -0.0898)
                     ( 2.00    -0.0898)  ( 1.00     0.1578)  ( 0.00     0.2372)

 CYCLE   11
  SDIIS (wt  1.000): -0.0000  0.0000 -0.0000 -0.0000  0.0001  0.0001  0.0007  0.0051  0.1364  0.8576
[...]
                   PARTS, lprint_parts  =  F
 
                 === DEBUG
 
                   ALL        =  F
                   B1         =  F
                   DENSITIES  =  F
                   FIT        =  F
                   HESSIAN    =  F
                   NUMBERS    =  F
                   SYMMETRY   =  F
                   U1         =  F
 
                 === CPKS
 
                   MAX_CPKS_ITERATIONS    =    20
                   U1_ACCURACY PARAMETER  =     5.00
                   U1 ACCURACY            =     0.0000100
 

                 Estimated peak private memory usage    164 MB per process
                                 shared memory usage     22 MB per node

              <><><><><><><><><><><><><><><><><><><><><><><><><>

######## LOOPING OVER NUCLEI ########

==========================
###### NUCLEUS:     1  F  
==========================

====================  solving CPKS equations  ====================

NUCLEUS  COORD.    ITERATION   ACCURACY
-------  ------    ---------   --------
    1       1          1       0.11462478D+00
    1       1          2       0.17144941D-01
    1       1          3       0.97279512D-03
    1       1          4       0.11967677D-03
    1       1          5       0.10403834D-04
    1       1          6       0.43160807D-05
*** CPKS converged.
----------------------------------------------
    1       2          1       0.16985598D-01
    1       2          2       0.24742811D-02
    1       2          3       0.49157056D-03
    1       2          4       0.82661819D-04
    1       2          5       0.69736791D-05
*** CPKS converged.
----------------------------------------------
    1       3          1       0.78288944D-01
    1       3          2       0.87538515D-02
    1       3          3       0.65184584D-03
    1       3          4       0.13020010D-03
    1       3          5       0.10352442D-04
    1       3          6       0.38423961D-05
*** CPKS converged.
----------------------------------------------

====================  end of solving CPKS equations  ====================

==========================
###### NUCLEUS:     2  H  
==========================

====================  solving CPKS equations  ====================

NUCLEUS  COORD.    ITERATION   ACCURACY
-------  ------    ---------   --------
    2       1          1       0.11524989D+00
    2       1          2       0.17160892D-01
    2       1          3       0.96680024D-03
    2       1          4       0.12015548D-03
    2       1          5       0.10384238D-04
    2       1          6       0.43226638D-05
*** CPKS converged.
----------------------------------------------
    2       2          1       0.16926532D-01
    2       2          2       0.23663459D-02
    2       2          3       0.48888187D-03
    2       2          4       0.82644333D-04
    2       2          5       0.69829371D-05
*** CPKS converged.
----------------------------------------------
    2       3          1       0.78459657D-01
    2       3          2       0.87350881D-02
    2       3          3       0.65551739D-03
    2       3          4       0.13080355D-03
    2       3          5       0.10598397D-04
    2       3          6       0.39088672D-05
*** CPKS converged.
----------------------------------------------

====================  end of solving CPKS equations  ====================

 ***************************************************************************************************



                                     ******************************************
                                     *  F R E Q U E N C Y    A N A L Y S I S  *
                                     ******************************************
  


 Atomic Masses:
 ---------------
    1. F              18.99840300
    2. H               1.00782500



 ======================================
 Normal Modes in Symmetry Displacements  ***  (cartesians, not mass-weighted)  ***
 ======================================
  


                                       === A ===

 Symmetry Displacements


                          1
              ------------------------      ------------------------      ------------------------
    1.F          0.042   0.007   0.029
    2.H         -0.789  -0.126  -0.551


 Frequencies and Normal Modes
 ============================

             1

         2593.7781
        ----------
   1    1.00000000


 Intensities
 ===========

               Frequency       Dipole Strength        Absorption Intensity (degeneracy not counted)
                 cm-1           1e-40 esu2 cm2          km/mole
              ----------          ----------          ----------
             2593.778143         1707.447275         1110.090020



 Zero-Point Energy :      0.005909 a.u.
 ===================      0.160794 eV
                                                   hartree              eV         kcal/mol           kJ/mol
                                      --------------------     -----------       ----------      -----------
              Bond Energy:              -0.225080851735874         -6.1248          -141.24          -590.95
              Zero-Point Energy:         0.005909061560960          0.1608             3.71            15.51
              Enthalpy (T=0K):          -0.219171790174914         -5.9640          -137.53          -575.44



 ===========================
 Vibrations and Normal Modes  ***  (cartesian coordinates, NOT mass-weighted)  ***
 ===========================
  
 The headers on the normal mode eigenvectors below give the Frequency in cm-1
 (a negative value means an imaginary frequency, no output for (almost-)zero frequencies)


                      2593.778
              ------------------------      ------------------------      ------------------------
    1.F          0.043   0.007   0.030
    2.H         -0.812  -0.130  -0.567




 List of All Frequencies:


 Intensities
 ===========

               Frequency       Dipole Strength        Absorption Intensity (degeneracy not counted)
                 cm-1           1e-40 esu2 cm2          km/mole
              ----------          ----------          ----------
             2593.778143         1707.447275         1110.090020



 ============================
 Statistical Thermal Analysis  ***  ideal gas assumed  ***
 ============================
  
 Pressure:                  1.000000 atm.
 Temperature:             298.150000 K



 Moments of Inertia (and direction vectors)
 ==========================================

           0.0000          3.3601          3.3601
 ------------------------------------------------
          -0.8128         -0.5607          0.1583
          -0.1303         -0.0899         -0.9874
          -0.5678          0.8232          0.0000


 The rotational contribution to the molecular entropy includes
 a term, dependent on the symmetry number sigma. The results 
 reported below were computed using sigma = 1, determined from
 the point group symmetry of the input geometry (C(LIN)). 
 If this is not the correct symmetry, please contact SCM to report a bug.
 Contributions from frequencies below 20 1/cm are not included in
 the vibrational sums. Their contributions, if any, are reported separately.


     Temp                                                       Transl     Rotat    Vibrat     Total
     ----                                                       ------     -----    ------     -----

     298.15   Entropy (cal/mole-K):                             34.922     6.852     0.000    41.774
              Internal Energy (Kcal/mole):                       0.889     0.592     3.708     5.189
              Constant Volume Heat Capacity (cal/mole-K):        2.981     1.987     0.001     4.969

              Summary of energy terms
                                                   hartree              eV         kcal/mol           kJ/mol
                                      --------------------     -----------       ----------      -----------
              Bond Energy:              -0.225080851735874         -6.1248          -141.24          -590.95
              Internal Energy:           0.008269569734511          0.2250             5.19            21.71
              pV/n = RT:                 0.000944186013486          0.0257             0.59             2.48
              Enthalpy H:               -0.215867095987877         -5.8740          -135.46          -566.76
              -T*S:                     -0.019848065328309         -0.5401           -12.45           -52.11
              Gibbs free energy:        -0.235715161316186         -6.4141          -147.91          -618.87
 

 ***************************************************************************************************
 


====================================================================
*** DONE CALCULATING ANALYTICAL SECOND DERIVATIVES OF THE ENERGY ***
====================================================================

 
 
 ========================
 No memory problems found
 ========================
 
 Maximum number of active allocate calls:         866
 
 *******************************************************************************

                             A D F   E X I T
 NORMAL TERMINATION with warnings



 =================
 Timing Statistics
 =================
  
 Total Used :                     CPU=        2.79      System=        0.19     Elapsed=        3.01

 Calls  Section                     ( Mean, Percentage )
 ---------------------------------------------------------------------------------------------------
     3  ><      ................      0.00    0.04             0.00    0.00             0.00    0.03
     1  INIT    ................      0.47   16.90             0.02   12.30             0.50   16.50
     1  GEOMET  ................      0.02    0.86             0.00    2.67             0.03    0.96
     1  FRAGM   ................      0.01    0.32             0.01    3.21             0.02    0.51
     1  INPUTA  ................      0.00    0.00             0.00    0.53             0.00    0.01
     1  ATDEN   ................      0.01    0.18             0.00    0.53             0.01    0.21
     1  MAINSY  ................      0.01    0.25             0.00    1.60             0.01    0.37
     1  SYMFIT  ................      0.00    0.04             0.00    0.00             0.00    0.03
     1  CORORT  ................      0.00    0.00             0.00    0.00             0.00    0.01
     1  SYMORB  ................      0.00    0.07             0.00    0.00             0.00    0.07
     1  CLSMAT  ................      0.01    0.21             0.00    0.53             0.01    0.20
     1  ORTHON  ................      0.00    0.07             0.00    1.07             0.00    0.14
     1  GENPT   ................      0.05    1.65             0.00    0.53             0.05    1.58
     1  PTBAS   ................      0.01    0.29             0.00    0.53             0.01    0.29
    13  FOCKY   ................      0.03   15.15             0.00    4.81             0.03   14.22
    13  FOCKTR  ................      0.00    0.47             0.00    1.07             0.00    0.54
    13  SDIIS   ................      0.00    0.61             0.00    2.14             0.00    0.90
     1  COREPS  ................      0.03    0.97             0.00    0.53             0.03    0.97
     1  TOTEN   ................      0.07    2.65             0.01    3.21             0.08    2.67
     1  POPAN   ................      0.00    0.07             0.00    0.53             0.00    0.11
     1  DEBYE   ................      0.00    0.11             0.00    0.00             0.00    0.08
     1  INPUTE  ................      0.00    0.00             0.00    0.00             0.00    0.01
     1  SYMORE  ................      0.00    0.04             0.00    0.00             0.00    0.03
     1  METS    ................      0.00    0.04             0.00    0.00             0.00    0.02
     1  CETS    ................      0.00    0.07             0.00    0.00             0.00    0.10
     2  ELNRGY  ................      0.01    1.00             0.00    1.60             0.02    1.03
     1  POPUL   ................      0.01    0.21             0.00    1.07             0.01    0.26
     1  ENGRAD  ................      0.00    0.04             0.00    0.00             0.00    0.04
     1  ENHESS  ................      1.59   57.07             0.11   60.96             1.73   57.47
     1  EXIT PROCEDURE .........      0.02    0.64             0.00    0.53             0.02    0.64


 Currently Open Files (EXIT00)
 ====================

 Unit    Access Format  Status   Type       Ident (file)
 -------------------------------------------------------
   3      SEQ    FORM   TRANSP  NORMAL      LOGFILE
                                          ( logfile )


 Buffered I/O statistics
 =======================
 Memory available:                     67108864
 Number of records fitting in memory:     16131
 Input :   0.9% of                        85157  *4k bytes
 Output:   8.9% of                         3739  *4k bytes
 Records from serial files evicted:           0
                    others evicted:           0
 Hash table lookups:     228014 with          0 conflicts (  0.00%)

 ***************************************************************************************************
 (LOGFILE)
 <Apr18-2019> <21:31:21>  ADF development version  RunTime: Apr18-2019 21:31:21  Nodes: 1  Procs: 1
 <Apr18-2019> <21:31:21>  Hydrogen (TZ2P)
 <Apr18-2019> <21:31:21>  RunType   : CREATE
 <Apr18-2019> <21:31:21>  Net Charge: 0 (Nuclei minus Electrons)
 <Apr18-2019> <21:31:21>  Symmetry  : ATOM
  Coordinates
    Atom         X           Y           Z   (Angstrom)
    1.H         0.000000    0.000000    0.000000
 <Apr18-2019> <21:31:21>  >>>> CORORT
 <Apr18-2019> <21:31:21>  >>>> CLSMAT
 <Apr18-2019> <21:31:21>  >>>> ORTHON
 <Apr18-2019> <21:31:21>  >>>> GENPT
 <Apr18-2019> <21:31:21>  Block Length=  64
 <Apr18-2019> <21:31:21>  >>>> PTBAS
 <Apr18-2019> <21:31:21>  >>>> CYCLE
 <Apr18-2019> <21:31:21>              |Error|         MaxErr       Wt(A-DIIS)
 <Apr18-2019> <21:31:21>      1      0.00000000      0.00000000
 <Apr18-2019> <21:31:21>      2      0.03100286      0.02644424
 <Apr18-2019> <21:31:21>      3      0.00958001      0.00932852    100.0
 <Apr18-2019> <21:31:21>      4      0.00232093      0.00228640      1.3
 <Apr18-2019> <21:31:21>      5      0.00003155      0.00002984      0.0
 <Apr18-2019> <21:31:21>      6      0.00000096      0.00000091      0.0
 <Apr18-2019> <21:31:21>      7      0.00000000      0.00000000      0.0
 <Apr18-2019> <21:31:21>  SCF converged
 <Apr18-2019> <21:31:21>      8      0.00000000      0.00000000      0.0
 <Apr18-2019> <21:31:21>  >>>> POPAN
 <Apr18-2019> <21:31:21>  >>>> DEBYE
 <Apr18-2019> <21:31:21>  NORMAL TERMINATION
 <Apr18-2019> <21:31:21>  END
 <Apr18-2019> <21:31:21>  ADF development version  RunTime: Apr18-2019 21:31:21  Nodes: 1  Procs: 1
 <Apr18-2019> <21:31:21>  Fluorine (TZ2P)
 <Apr18-2019> <21:31:21>  RunType   : CREATE
 <Apr18-2019> <21:31:21>  Net Charge: 0 (Nuclei minus Electrons)
 <Apr18-2019> <21:31:21>  Symmetry  : ATOM
  Coordinates
    Atom         X           Y           Z   (Angstrom)
    1.F         0.000000    0.000000    0.000000
 <Apr18-2019> <21:31:21>  >>>> CORORT
 <Apr18-2019> <21:31:21>  >>>> CLSMAT
 <Apr18-2019> <21:31:21>  >>>> ORTHON
 <Apr18-2019> <21:31:21>  >>>> GENPT
 <Apr18-2019> <21:31:21>  Block Length=  76
 <Apr18-2019> <21:31:21>  >>>> PTBAS
 <Apr18-2019> <21:31:21>  >>>> CYCLE
 <Apr18-2019> <21:31:22>              |Error|         MaxErr       Wt(A-DIIS)
 <Apr18-2019> <21:31:22>      1      0.00000000      0.00000000
 <Apr18-2019> <21:31:22>      2     11.37379478      4.77775941    100.0
 <Apr18-2019> <21:31:22>      3      5.10737118      3.12542566    100.0
 <Apr18-2019> <21:31:22>      4      0.96588425      0.45165556    100.0
 <Apr18-2019> <21:31:22>      5      1.67496341      0.82531802    100.0
 <Apr18-2019> <21:31:22>      6      0.19960756      0.09763484     97.6
 <Apr18-2019> <21:31:22>      7      0.26650754      0.12651474    100.0
 <Apr18-2019> <21:31:22>      8      0.03096878      0.01498150     14.1
 <Apr18-2019> <21:31:22>      9      0.00605981      0.00290433      1.9
 <Apr18-2019> <21:31:22>     10      0.00016558      0.00007919      0.0
 <Apr18-2019> <21:31:22>     11      0.00000005      0.00000002      0.0
 <Apr18-2019> <21:31:22>     12      0.00000000      0.00000000      0.0
 <Apr18-2019> <21:31:22>  SCF converged
 <Apr18-2019> <21:31:22>     13      0.00000000      0.00000000      0.0
 <Apr18-2019> <21:31:22>  >>>> POPAN
 <Apr18-2019> <21:31:22>  >>>> DEBYE
 <Apr18-2019> <21:31:22>  NORMAL TERMINATION
 <Apr18-2019> <21:31:22>  END
 <Apr18-2019> <21:31:22>  ADF development version  RunTime: Apr18-2019 21:31:22  Nodes: 1  Procs: 12
 <Apr18-2019> <21:31:23>  *** (NO TITLE) ***
 <Apr18-2019> <21:31:23>  RunType   : SINGLE POINT
 <Apr18-2019> <21:31:23>  WARNING: Restricted Open-Shell calculation, Unrestricted setup may be needed
 <Apr18-2019> <21:31:23>  Net Charge: -1 (Nuclei minus Electrons)
 <Apr18-2019> <21:31:23>  Symmetry  : NOSYM
 <Apr18-2019> <21:31:23>  >>>> FRAGM
  Coordinates
    Atom         X           Y           Z   (Angstrom)
    1.F        -3.731236    0.202277   -0.041456
    2.H        -2.925328    0.331447    0.521548
 <Apr18-2019> <21:31:23>  >>>> CORORT
 <Apr18-2019> <21:31:23>  >>>> CLSMAT
 <Apr18-2019> <21:31:23>  >>>> ORTHON
 <Apr18-2019> <21:31:23>  >>>> GENPT
 <Apr18-2019> <21:31:23>  Block Length= 128
 <Apr18-2019> <21:31:23>  >>>> PTBAS
 <Apr18-2019> <21:31:23>  >>>> CYCLE
 <Apr18-2019> <21:31:23>              |Error|         MaxErr       Wt(A-DIIS)
 <Apr18-2019> <21:31:23>      1      1.36524326      1.17209022
 <Apr18-2019> <21:31:23>      2      0.63814654      0.25682643    100.0
 <Apr18-2019> <21:31:23>      3      0.07884464      0.02962368    100.0
 <Apr18-2019> <21:31:23>      4      0.29192783      0.12062543    100.0
 <Apr18-2019> <21:31:23>      5      0.71411081      0.28413661    100.0
 <Apr18-2019> <21:31:23>      6      0.15952148      0.06312939    100.0
 <Apr18-2019> <21:31:23>      7      0.14517390      0.05097385    100.0
 <Apr18-2019> <21:31:23>      8      0.02209600      0.00703037      6.1
 <Apr18-2019> <21:31:23>      9      0.00240681      0.00072042      0.0
 <Apr18-2019> <21:31:23>     10      0.00005410      0.00002325      0.0
 <Apr18-2019> <21:31:23>     11      0.00000780      0.00000359      0.0
 <Apr18-2019> <21:31:23>     12      0.00000006      0.00000002      0.0
 <Apr18-2019> <21:31:23>  SCF converged
 <Apr18-2019> <21:31:23>     13      0.00000001      0.00000000      0.0
 <Apr18-2019> <21:31:23>  WARNING: partially occupied orbitals
 <Apr18-2019> <21:31:23>   Solutions with partially occupied orbitals may not be
 <Apr18-2019> <21:31:23>   lowest in energy. You might consider lowering the
 <Apr18-2019> <21:31:23>   symmetry in the input and explicitly specifying integer
 <Apr18-2019> <21:31:23>   occupations. In that case always check that you obtain
 <Apr18-2019> <21:31:23>   an aufbau solution.
 <Apr18-2019> <21:31:23>  >>>> TOTEN
 <Apr18-2019> <21:31:23>  >>>> POPAN
 <Apr18-2019> <21:31:23>  >>>> DEBYE
 <Apr18-2019> <21:31:23>  >>>> AMETS
 <Apr18-2019> <21:31:23>   Bond Energy          -0.22508085 a.u.
 <Apr18-2019> <21:31:23>   Bond Energy          -6.12476161 eV
 <Apr18-2019> <21:31:23>   Bond Energy        -141.24       kcal/mol
 <Apr18-2019> <21:31:23>  >>>> POPUL
 <Apr18-2019> <21:31:23>  >>>> ENGRAD
 <Apr18-2019> <21:31:23>  >>>> ENHESS
 <Apr18-2019> <21:31:23>  === NUCLEUS:     1
 <Apr18-2019> <21:31:24>  === NUCLEUS:     2
 <Apr18-2019> <21:31:25>  >>>> CALC_HESS_PMAT
 <Apr18-2019> <21:31:25>  >>>> CALC_HESS_WMAT
 <Apr18-2019> <21:31:25>  NORMAL TERMINATION with warnings
 <Apr18-2019> <21:31:25>  END
