
Create H   file=TZ2P-H
XC
  GGA BP86
End
End Input

 *******************************************************************************
 *                                                                             *
 *  -------------------------------------                                      *
 *   Amsterdam Density Functional  (ADF)         development version           *
 *  -------------------------------------                                      *
 *                                               r61132 2017-09-08             *
 *                                                                             *
 *                                                                             *
 *                              =================                              *
 *                              |               |                              *
 *                              |     A D F     |                              *
 *                              |               |                              *
 *                              =================                              *
 *                                                                             *
 *                                                                             *
 *   Online information and documentation:  https://www.scm.com/support/       *
 *   E-mail:  support@scm.com   info@scm.com                                   *
 *                                                                             *
 *   Scientific publications using ADF results must be properly referenced     *
 *   See the User Manuals (or the web site) for recommended citations          *
 *   The terms and conditions of the End User License Agreement apply to       *
 *   the use of ADF, https://www.scm.com/license-terms/                        *
 *                                                                             *
 **********************  x86_64_linux_intel / intelmpi  ************************
 
 Licensed to: VU/FEW (+ SARA) / ALGEMEEN / Amsterdam / THE NETHERLANDS
 SCM User ID: u7668
  
 ADF development version  RunTime: Apr18-2019 22:12:11  Nodes: 1  Procs: 1

 Temporary files are created in /local/datastore0/tcst25/186818/kid_0.cz5ABi

 Hydrogen (TZ2P)



 ===========================
 A T T A C H E D   F I L E S
 ===========================
  
 CREATE - Data File:    TZ2P-H
                        Hydrogen (TZ2P)



 ===============================
 M O D E L   P A R A M E T E R S
 ===============================
  
 DENSITY FUNCTIONAL POTENTIAL (scf)
    LDA:                               VWN                                      
    Gradient Corrections:              Becke88 Perdew86                        == Not Default ==

 SPIN  (restricted / unrestr.)
    Molecule:                          Restricted                               

 OTHER ASPECTS
    Relativistic Corrections:          ---                                      

    Nuclear Charge Density Model:      Point Charge Nuclei                      
    Core Treatment:                    Frozen Orbital(s)                        

    Hyperfine or Zeeman Interaction:   ---                                      



 =====================================
 S Y M M E T R Y ,   E L E C T R O N S
 =====================================
  
 Symmetry: ATOM

 Irreducible Representations, including subspecies
 -------------------------------------------------
 S
 P:x  P:y  P:z
 D:z2  D:x2-y2  D:xy  D:xz  D:yz
 F:z3  F:z  F:xyz  F:z2x  F:z2y  F:x  F:y


 Configuration of Valence Electrons
 ==================================

          Occupation Numbers
          -------------------------------------------------
 S        1
 P        0
 D        0
 F        0
          -------------------------------------------------

 Total:   1

 Net Charge: 0 (Nuclei minus Electrons)

 Preset values for MO occupations will be applied through SCF cycle no. 1000000
 Thereafter, the program will assign electrons to MOs that are spatially
 similar to the occupied MOs in a "reference" cycle ("KeepOrbitals").
 The reference cycle is always the PREVIOUS cycle: it will evolve with
 the SCF procedure.



 ================================
 (Slater-type)  F U N C T I O N S  ***  (Basis and Fit)  ***
 ================================
  

 Atom Type    1  (H)
 ==============

 Valence Basis Sets:   5
 -----------------------
   1 S    0.690000
   1 S    0.920000
   1 S    1.580000
   2 P    1.250000
   3 D    2.500000


 BAS: List of all Elementary Cartesian Basis Functions
 =====================================================

 The numbering in the list below (to the right of the function characteristics) is referred
 to in print-outs of MO eigenvectors and Mulliken populations in the BAS representation
 (as contrasted to the SFO representation).

 Notes:
 1. The functions are characterized by a polynomial prefactor (powers of x,y,z and r) and
    an exponential decay factor alpha.
 2. Since the basis sets are specific for an atom TYPE, the individual functions occur on
    all atoms of that type.
 3. The word 'Core' in the left margin signals that it is a Core Function (CF) : not a
    degree of freedom in the valence set, but only used to ensure orthogonalization of
    the other valence basis functions on the frozen Core Orbitals.


 (power of) X  Y  Z  R     Alpha  on Atom
            ==========     =====     ==========

 H                                    1
                                  ---------------------------------------------------------------------------
            0  0  0  0     0.690      1
            0  0  0  0     0.920      2
            0  0  0  0     1.580      3
            1  0  0  0     1.250      4
            0  1  0  0     1.250      5
            0  0  1  0     1.250      6
            2  0  0  0     2.500      7
            1  1  0  0     2.500      8
            1  0  1  0     2.500      9
            0  2  0  0     2.500     10
            0  1  1  0     2.500     11
            0  0  2  0     2.500     12

 Total number of charge fitting functions (nprimf)        50
 Total number of Cartesian basis functions (naos)         12
 Total number of Cartesian core functions  (ncos)          0



 BAS: List of all Elementary Cartesian Basis Functions
 =====================================================

 The numbering in the list below (to the right of the function characteristics) is referred
 to in print-outs of MO eigenvectors and Mulliken populations in the BAS representation
 (as contrasted to the SFO representation).

 Notes:
 1. The functions are characterized by a polynomial prefactor (powers of x,y,z and r) and
    an exponential decay factor alpha.
 2. Since the basis sets are specific for an atom TYPE, the individual functions occur on
    all atoms of that type.
 3. The word 'Core' in the left margin signals that it is a Core Function (CF) : not a
    degree of freedom in the valence set, but only used to ensure orthogonalization of
    the other valence basis functions on the frozen Core Orbitals.


 (power of) X  Y  Z  R     Alpha  on Atom
            ==========     =====     ==========

 H                                    1
                                  ---------------------------------------------------------------------------
            0  0  0  0     0.690      1
            0  0  0  0     0.920      2
            0  0  0  0     1.580      3
            1  0  0  0     1.250      4
            0  1  0  0     1.250      5
            0  0  1  0     1.250      6
            2  0  0  0     2.500      7
            1  1  0  0     2.500      8
            1  0  1  0     2.500      9
            0  2  0  0     2.500     10
            0  1  1  0     2.500     11
            0  0  2  0     2.500     12
1
 ***************************************************************************************************



                                              ***********************
                                              *  T E C H N I C A L  *
                                              ***********************
  



 =============================================================
 P A R A L L E L I Z A T I O N  and  V E C T O R I Z A T I O N
 =============================================================
  
 Nr of parallel processes:                                1
 Maximum vector length in NumInt loops:                 128

 IO buffersize (Mb):                                     64.000000



 =====================
 S C F   U P D A T E S
 =====================
  
 Max. nr. of cycles:                               300
 Convergence criterion:                              0.0000000100
   secondary criterion:                              0.0000000100

 Mix parameter (when DIIS does not apply):           0.2000000000
 Special mix parameter for the first cycle:          1.0000000000
 Mixed ADIIS+DIIS will be used
    Max number of expansion vectors:                10
    Pure ADIIS when Max([F,P]) is above              0.1000000000
    Pure DIIS when Max([F,P]) is below               0.0010000000
 Automatic ElectronSmearing (in case of problematic SCF convergence) disabled



 =================
 P R E C I S I O N  ***  (General: NumInt, NeglectFunctionTails, ...)  ***
 =================
  

 NumInt:           Target precision:                12.0000000000
 -------           Initial precision:               10.0000000000
                   Min. precision (optimization):   10.0000000000

 Neglect Functions:          Basis functions:        0.1000000000E-13
 ------------------          Fit functions:          0.1000000000E-13



 ===========================
 L I N E A R   S C A L I N G
 ===========================
  

 Cut-off radii density fit:                        0.1000000000E-97
 Overlap cut-off criterion AO matrix elements:     0.1000000000E-97
 Cut-offs for Coulomb potential and fitted density:0.1000000000E-97
 Cut-off criterion for Coulomb multipole terms:    0.1000000000E-97
 Progressive Convergence parameter:                 0.000000000    
1
 ***************************************************************************************************



                                            ***************************
                                            *  C O M P U T A T I O N  *
                                            ***************************
  

 Number of elements of the density matrix on this node (used, total):        78        78



 ===========================================
 Numerical Integration : Fuzzy Cells (Becke)
 ===========================================
  
 Becke grid quality: VERYGOOD       
  
 Lebedev angular grid order:             min:  13 max:  41
 Nr. of radial points:                   min:  64 max:  64

 Total nr. of points:         64
 Nr. of blocks:                1
 Block length:                64
 Nr. of dummy points:          0


 Test of Precision of the Numerical Integration Grid
 ===================================================

 Integral of the Total Core Density:                   0.00000000000000



 ========================
 Density Fitting (zlmFit)
 ========================
  
 ZlmFit Fit Quality: VERYGOOD       
  
 Max L-expansion:                        min:   0 max:   0
 Nr. of radial interpolation points:     min: 130 max: 130



 =====
 S C F  ***  ScaSCF  ***
 =====
  

 CYCLE    1
 SCF Error: norm([F,P])=      0.000000000000, max([F,P])=      0.000000000000
 orbitals (Q,E):
 ---------------
 S :1...3            ( 1.00    -0.5000)  ( 0.00    -0.0900)  ( 0.00     1.2939)
 P :1...1            ( 0.00     0.1562)
 D :1...1            ( 0.00     2.2917)

 CYCLE    2
 SCF Error: norm([F,P])=      0.030526162244, max([F,P])=      0.029682528591
 orbitals (Q,E):
 ---------------
 S :1...2            ( 1.00    -0.2270)  ( 0.00     0.1038)
 P :1...1            ( 0.00     0.4131)
 D :1...1            ( 0.00     2.5768)

 CYCLE    3
  SDIIS (wt  0.000):  0.1733  0.8267
 A-DIIS (wt  1.000):  0.0000  1.0000
  DIIS coefficients:  0.0000  1.0000
 SCF Error: norm([F,P])=      0.007183061946, max([F,P])=      0.006712148192
 orbitals (Q,E):
 ---------------
 S :1...2            ( 1.00    -0.2462)  ( 0.00     0.0917)
 P :1...1            ( 0.00     0.3973)
 D :1...1            ( 0.00     2.5583)

 CYCLE    4
  SDIIS (wt  0.999):  0.1398  0.8602
 A-DIIS (wt  0.001):  0.0000  1.0000
  DIIS coefficients:  0.1396  0.8604
 SCF Error: norm([F,P])=      0.001175086780, max([F,P])=      0.001143060931
 orbitals (Q,E):
 ---------------
 S :1...2            ( 1.00    -0.2434)  ( 0.00     0.0933)
 P :1...1            ( 0.00     0.3996)
 D :1...1            ( 0.00     2.5611)

 CYCLE    5
  SDIIS (wt  1.000):  0.0219  0.9781
  DIIS coefficients:  0.0219  0.9781
 SCF Error: norm([F,P])=      0.000027525369, max([F,P])=      0.000023543474
 orbitals (Q,E):
 ---------------
 S :1...2            ( 1.00    -0.2435)  ( 0.00     0.0932)
 P :1...1            ( 0.00     0.3996)
 D :1...1            ( 0.00     2.5610)

 CYCLE    6
  SDIIS (wt  1.000): -0.0582  1.0582
  DIIS coefficients: -0.0582  1.0582
 SCF Error: norm([F,P])=      0.000001514450, max([F,P])=      0.000001285214
 orbitals (Q,E):
 ---------------
 S :1...2            ( 1.00    -0.2435)  ( 0.00     0.0932)
 P :1...1            ( 0.00     0.3996)
 D :1...1            ( 0.00     2.5610)

 CYCLE    7
  SDIIS (wt  1.000): -0.0031  1.0031
  DIIS coefficients: -0.0031  1.0031
 SCF Error: norm([F,P])=      0.000000004705, max([F,P])=      0.000000004158
 orbitals (Q,E):
 ---------------
 S :1...2            ( 1.00    -0.2435)  ( 0.00     0.0932)
 P :1...1            ( 0.00     0.3996)
 D :1...1            ( 0.00     2.5610)

 SCF CONVERGED

 CYCLE    8
1
 ***************************************************************************************************



                                                *******************
                                                *  R E S U L T S  *
                                                *******************
  
 *** Setting up for NEW gradients in Focky
 *** Using FIT density in Focky

 Orbital Energies, per Irrep and Spin:
 ======================================
                        Occup              E (au)              E (eV)       Diff (eV) with prev. cycle
                        -----      --------------------        ------       --------------------------
 S
               1        1.000     -0.24350452296405E+00        -6.626               4.48E-09
               2        0.000      0.93233330888585E-01         2.537
               3        0.000      0.15154066862623E+01        41.236
 P
               1        0.000      0.39955072057198E+00        10.872
 D
               1        0.000      0.25610214787646E+01        69.689


 Partially Occupied:
               1 S                -0.24350452296405E+00
  
 LUMO :        2 S                 0.93233330888585E-01
  


 Orbital Energies, all Irreps
 ========================================

 Irrep        no.  (spin)   Occup              E (au)                E (eV)
 ---------------------------------------------------------------------------
 S             1             1.00       -0.24350452296405E+00        -6.6261
 S             2             0.00        0.93233330888585E-01         2.5370
 P             1             0.00        0.39955072057198E+00        10.8723
 S             3             0.00        0.15154066862623E+01        41.2363
 D             1             0.00        0.25610214787646E+01        69.6889


 All Electron Calculation, thus no Orbital Energies of the Core Orbitals are calculated



 =======================================
 M U L L I K E N   P O P U L A T I O N S
 =======================================
  
 The survey below gives for each atom:
 a) the total charge (Z minus electrons)
 b) the net spin polarization (nr of electrons spin-A minus spin-B)
 c) for each spin the atomic electron valence density (integrated) per L-value.

 Atom              Charge    Spin density          S         P         D         F
 ----              ------    ------------       ------    ------    ------    ------
 1 H               0.0000                       1.0000    0.0000    0.0000    0.0000

 Populations of individual BAS functions
 ----------------------------------------
 1 H            0.1853  0.7115  0.1032  0.0000  0.0000  0.0000  0.0000  0.0000  0.0000  0.0000
                0.0000  0.0000

 Gross Charges per Atom (Z minus electrons)
 ==========================================
             0.0000
 Net Total:  0.00000000



 =======================================================================
 Electrostatic potential at the Nuclei due to electrons and other nuclei
 =======================================================================
  
         Atom                  Potential
         ----                  ---------
     1)   H                   0.94550094
 
 
 ========================
 No memory problems found
 ========================
 
 Maximum number of active allocate calls:         363
 
 *******************************************************************************

                             A D F   E X I T
 NORMAL TERMINATION



 =================
 Timing Statistics
 =================
  
 Total Used :                     CPU=        0.30      System=        0.02     Elapsed=        0.33

 Calls  Section                     ( Mean, Percentage )
 ---------------------------------------------------------------------------------------------------
     3  ><      ................      0.00    0.00             0.00    4.00             0.00    0.24
     1  INIT    ................      0.01    3.63             0.01   60.00             0.03    8.59
     1  GEOMET  ................      0.00    1.65             0.00   16.00             0.01    2.63
     1  INPUTA  ................      0.00    0.33             0.00    0.00             0.00    0.44
     1  MAINSY  ................      0.01    1.98             0.00    0.00             0.01    1.79
     1  SYMFIT  ................      0.00    0.00             0.00    4.00             0.00    0.26
     1  CORORT  ................      0.00    0.00             0.00    0.00             0.00    0.08
     1  SYMORB  ................      0.00    0.33             0.00    0.00             0.00    0.16
     1  CLSMAT  ................      0.00    1.32             0.00    0.00             0.00    1.21
     1  ORTHON  ................      0.00    0.33             0.00    0.00             0.00    0.38
     1  GENPT   ................      0.01    3.30             0.00    0.00             0.01    2.96
     1  PTBAS   ................      0.00    0.99             0.00    0.00             0.00    1.02
     8  FOCKY   ................      0.03   68.65             0.00    8.00             0.03   63.62
     8  FOCKTR  ................      0.00    1.98             0.00    0.00             0.00    1.68
     8  SDIIS   ................      0.00    3.30             0.00    4.00             0.00    3.63
     1  COREPS  ................      0.02    5.28             0.00    0.00             0.02    4.78
     1  POPAN   ................      0.00    1.32             0.00    0.00             0.00    1.14
     1  DEBYE   ................      0.00    0.00             0.00    0.00             0.00    0.15
     1  EXIT PROCEDURE .........      0.02    5.61             0.00    4.00             0.02    5.24


 Currently Open Files (EXIT00)
 ====================

 Unit    Access Format  Status   Type       Ident (file)
 -------------------------------------------------------
   3      SEQ    FORM   TRANSP  NORMAL      LOGFILE
                                          ( logfile )


 Buffered I/O statistics
 =======================
 Memory available:                     67108864
 Number of records fitting in memory:     16131
 Input :   0.2% of                        17478  *4k bytes
 Output:  15.2% of                         1046  *4k bytes
 Records from serial files evicted:           0
                    others evicted:           0
 Hash table lookups:      44676 with          0 conflicts (  0.00%)

 ***************************************************************************************************
 (LOGFILE)
 <Apr18-2019> <22:12:11>  ADF development version  RunTime: Apr18-2019 22:12:11  Nodes: 1  Procs: 1
 <Apr18-2019> <22:12:11>  Hydrogen (TZ2P)
 <Apr18-2019> <22:12:11>  RunType   : CREATE
 <Apr18-2019> <22:12:11>  Net Charge: 0 (Nuclei minus Electrons)
 <Apr18-2019> <22:12:11>  Symmetry  : ATOM
  Coordinates
    Atom         X           Y           Z   (Angstrom)
    1.H         0.000000    0.000000    0.000000
 <Apr18-2019> <22:12:11>  >>>> CORORT
 <Apr18-2019> <22:12:11>  >>>> CLSMAT
 <Apr18-2019> <22:12:11>  >>>> ORTHON
 <Apr18-2019> <22:12:11>  >>>> GENPT
 <Apr18-2019> <22:12:11>  Block Length=  64
 <Apr18-2019> <22:12:11>  >>>> PTBAS
 <Apr18-2019> <22:12:11>  >>>> CYCLE
 <Apr18-2019> <22:12:11>              |Error|         MaxErr       Wt(A-DIIS)
 <Apr18-2019> <22:12:11>      1      0.00000000      0.00000000
 <Apr18-2019> <22:12:11>      2      0.03052616      0.02968253
 <Apr18-2019> <22:12:11>      3      0.00718306      0.00671215    100.0
 <Apr18-2019> <22:12:11>      4      0.00117509      0.00114306      0.1
 <Apr18-2019> <22:12:11>      5      0.00002753      0.00002354      0.0
 <Apr18-2019> <22:12:11>      6      0.00000151      0.00000129      0.0
 <Apr18-2019> <22:12:11>      7      0.00000000      0.00000000      0.0
 <Apr18-2019> <22:12:12>  SCF converged
 <Apr18-2019> <22:12:12>      8      0.00000000      0.00000000      0.0
 <Apr18-2019> <22:12:12>  >>>> POPAN
 <Apr18-2019> <22:12:12>  >>>> DEBYE
 <Apr18-2019> <22:12:12>  NORMAL TERMINATION
 <Apr18-2019> <22:12:12>  END

Create N   file=TZ2P-N
XC
  GGA BP86
End
End Input

 *******************************************************************************
 *                                                                             *
 *  -------------------------------------                                      *
 *   Amsterdam Density Functional  (ADF)         development version           *
 *  -------------------------------------                                      *
 *                                               r61132 2017-09-08             *
 *                                                                             *
 *                                                                             *
 *                              =================                              *
 *                              |               |                              *
 *                              |     A D F     |                              *
 *                              |               |                              *
 *                              =================                              *
 *                                                                             *
 *                                                                             *
 *   Online information and documentation:  https://www.scm.com/support/       *
 *   E-mail:  support@scm.com   info@scm.com                                   *
 *                                                                             *
 *   Scientific publications using ADF results must be properly referenced     *
 *   See the User Manuals (or the web site) for recommended citations          *
 *   The terms and conditions of the End User License Agreement apply to       *
 *   the use of ADF, https://www.scm.com/license-terms/                        *
 *                                                                             *
 **********************  x86_64_linux_intel / intelmpi  ************************
 
 Licensed to: VU/FEW (+ SARA) / ALGEMEEN / Amsterdam / THE NETHERLANDS
 SCM User ID: u7668
  
 ADF development version  RunTime: Apr18-2019 22:12:12  Nodes: 1  Procs: 1

 Temporary files are created in /local/datastore0/tcst25/186818/kid_0.b9Sa0z

 Nitrogen (TZ2P)



 ===========================
 A T T A C H E D   F I L E S
 ===========================
  
 CREATE - Data File:    TZ2P-N
                        Nitrogen (TZ2P)



 ===============================
 M O D E L   P A R A M E T E R S
 ===============================
  
 DENSITY FUNCTIONAL POTENTIAL (scf)
    LDA:                               VWN                                      
    Gradient Corrections:              Becke88 Perdew86                        == Not Default ==

 SPIN  (restricted / unrestr.)
    Molecule:                          Restricted                               

 OTHER ASPECTS
    Relativistic Corrections:          ---                                      

    Nuclear Charge Density Model:      Point Charge Nuclei                      
    Core Treatment:                    Frozen Orbital(s)                        

    Hyperfine or Zeeman Interaction:   ---                                      



 =====================================
 S Y M M E T R Y ,   E L E C T R O N S
 =====================================
  
 Symmetry: ATOM

 Irreducible Representations, including subspecies
 -------------------------------------------------
 S
 P:x  P:y  P:z
 D:z2  D:x2-y2  D:xy  D:xz  D:yz
 F:z3  F:z  F:xyz  F:z2x  F:z2y  F:x  F:y


 Configuration of Valence Electrons
 ==================================

          Occupation Numbers
          -------------------------------------------------
 S        2*2
 P        3
 D        0
 F        0
          -------------------------------------------------

 Total:   7

 Net Charge: 0 (Nuclei minus Electrons)

 Preset values for MO occupations will be applied through SCF cycle no. 1000000
 Thereafter, the program will assign electrons to MOs that are spatially
 similar to the occupied MOs in a "reference" cycle ("KeepOrbitals").
 The reference cycle is always the PREVIOUS cycle: it will evolve with
 the SCF procedure.



 ================================
 (Slater-type)  F U N C T I O N S  ***  (Basis and Fit)  ***
 ================================
  

 Atom Type    1  (N)
 ==============

 Valence Basis Sets:  10
 -----------------------
   1 S    8.740000
   1 S    5.900000
   2 S    5.150000
   2 S    2.500000
   2 S    1.500000
   2 P    3.680000
   2 P    1.880000
   2 P    1.000000
   3 D    2.200000
   4 F    3.300000


 BAS: List of all Elementary Cartesian Basis Functions
 =====================================================

 The numbering in the list below (to the right of the function characteristics) is referred
 to in print-outs of MO eigenvectors and Mulliken populations in the BAS representation
 (as contrasted to the SFO representation).

 Notes:
 1. The functions are characterized by a polynomial prefactor (powers of x,y,z and r) and
    an exponential decay factor alpha.
 2. Since the basis sets are specific for an atom TYPE, the individual functions occur on
    all atoms of that type.
 3. The word 'Core' in the left margin signals that it is a Core Function (CF) : not a
    degree of freedom in the valence set, but only used to ensure orthogonalization of
    the other valence basis functions on the frozen Core Orbitals.


 (power of) X  Y  Z  R     Alpha  on Atom
            ==========     =====     ==========

 N                                    1
                                  ---------------------------------------------------------------------------
            0  0  0  0     8.740      1
            0  0  0  0     5.900      2
            0  0  0  1     5.150      3
            0  0  0  1     2.500      4
            0  0  0  1     1.500      5
            1  0  0  0     3.680      6
            0  1  0  0     3.680      7
            0  0  1  0     3.680      8
            1  0  0  0     1.880      9
            0  1  0  0     1.880     10
            0  0  1  0     1.880     11
            1  0  0  0     1.000     12
            0  1  0  0     1.000     13
            0  0  1  0     1.000     14
            2  0  0  0     2.200     15
            1  1  0  0     2.200     16
            1  0  1  0     2.200     17
            0  2  0  0     2.200     18
            0  1  1  0     2.200     19
            0  0  2  0     2.200     20
            3  0  0  0     3.300     21
            2  1  0  0     3.300     22
            2  0  1  0     3.300     23
            1  2  0  0     3.300     24
            1  1  1  0     3.300     25
            1  0  2  0     3.300     26
            0  3  0  0     3.300     27
            0  2  1  0     3.300     28
            0  1  2  0     3.300     29
            0  0  3  0     3.300     30

 Total number of charge fitting functions (nprimf)        84
 Total number of Cartesian basis functions (naos)         30
 Total number of Cartesian core functions  (ncos)          0



 BAS: List of all Elementary Cartesian Basis Functions
 =====================================================

 The numbering in the list below (to the right of the function characteristics) is referred
 to in print-outs of MO eigenvectors and Mulliken populations in the BAS representation
 (as contrasted to the SFO representation).

 Notes:
 1. The functions are characterized by a polynomial prefactor (powers of x,y,z and r) and
    an exponential decay factor alpha.
 2. Since the basis sets are specific for an atom TYPE, the individual functions occur on
    all atoms of that type.
 3. The word 'Core' in the left margin signals that it is a Core Function (CF) : not a
    degree of freedom in the valence set, but only used to ensure orthogonalization of
    the other valence basis functions on the frozen Core Orbitals.


 (power of) X  Y  Z  R     Alpha  on Atom
            ==========     =====     ==========

 N                                    1
                                  ---------------------------------------------------------------------------
            0  0  0  0     8.740      1
            0  0  0  0     5.900      2
            0  0  0  1     5.150      3
            0  0  0  1     2.500      4
            0  0  0  1     1.500      5
            1  0  0  0     3.680      6
            0  1  0  0     3.680      7
            0  0  1  0     3.680      8
            1  0  0  0     1.880      9
            0  1  0  0     1.880     10
            0  0  1  0     1.880     11
            1  0  0  0     1.000     12
            0  1  0  0     1.000     13
            0  0  1  0     1.000     14
            2  0  0  0     2.200     15
            1  1  0  0     2.200     16
            1  0  1  0     2.200     17
            0  2  0  0     2.200     18
            0  1  1  0     2.200     19
            0  0  2  0     2.200     20
            3  0  0  0     3.300     21
            2  1  0  0     3.300     22
            2  0  1  0     3.300     23
            1  2  0  0     3.300     24
            1  1  1  0     3.300     25
            1  0  2  0     3.300     26
            0  3  0  0     3.300     27
            0  2  1  0     3.300     28
            0  1  2  0     3.300     29
            0  0  3  0     3.300     30
1
 ***************************************************************************************************



                                              ***********************
                                              *  T E C H N I C A L  *
                                              ***********************
  



 =============================================================
 P A R A L L E L I Z A T I O N  and  V E C T O R I Z A T I O N
 =============================================================
  
 Nr of parallel processes:                                1
 Maximum vector length in NumInt loops:                 128

 IO buffersize (Mb):                                     64.000000



 =====================
 S C F   U P D A T E S
 =====================
  
 Max. nr. of cycles:                               300
 Convergence criterion:                              0.0000000100
   secondary criterion:                              0.0000000100

 Mix parameter (when DIIS does not apply):           0.2000000000
 Special mix parameter for the first cycle:          1.0000000000
 Mixed ADIIS+DIIS will be used
    Max number of expansion vectors:                10
    Pure ADIIS when Max([F,P]) is above              0.1000000000
    Pure DIIS when Max([F,P]) is below               0.0010000000
 Automatic ElectronSmearing (in case of problematic SCF convergence) disabled



 =================
 P R E C I S I O N  ***  (General: NumInt, NeglectFunctionTails, ...)  ***
 =================
  

 NumInt:           Target precision:                12.0000000000
 -------           Initial precision:               10.0000000000
                   Min. precision (optimization):   10.0000000000

 Neglect Functions:          Basis functions:        0.1000000000E-13
 ------------------          Fit functions:          0.1000000000E-13



 ===========================
 L I N E A R   S C A L I N G
 ===========================
  

 Cut-off radii density fit:                        0.1000000000E-97
 Overlap cut-off criterion AO matrix elements:     0.1000000000E-97
 Cut-offs for Coulomb potential and fitted density:0.1000000000E-97
 Cut-off criterion for Coulomb multipole terms:    0.1000000000E-97
 Progressive Convergence parameter:                 0.000000000    
1
 ***************************************************************************************************



                                            ***************************
                                            *  C O M P U T A T I O N  *
                                            ***************************
  

 Number of elements of the density matrix on this node (used, total):       465       465



 ===========================================
 Numerical Integration : Fuzzy Cells (Becke)
 ===========================================
  
 Becke grid quality: VERYGOOD       
  
 Lebedev angular grid order:             min:  13 max:  41
 Nr. of radial points:                   min:  72 max:  72

 Total nr. of points:         72
 Nr. of blocks:                1
 Block length:                72
 Nr. of dummy points:          0


 Test of Precision of the Numerical Integration Grid
 ===================================================

 Integral of the Total Core Density:                   0.00000000000000



 ========================
 Density Fitting (zlmFit)
 ========================
  
 ZlmFit Fit Quality: VERYGOOD       
  
 Max L-expansion:                        min:   0 max:   0
 Nr. of radial interpolation points:     min: 160 max: 160



 =====
 S C F  ***  ScaSCF  ***
 =====
  

 CYCLE    1
 SCF Error: norm([F,P])=      0.000000000000, max([F,P])=      0.000000000000
 orbitals (Q,E):
 ---------------
 S :1...5            ( 2.00   -24.4993)  ( 2.00    -6.1004)  ( 0.00    -2.6599)  ( 0.00     0.7211)
                     ( 0.00    54.4424)
 P :1...3            ( 3.00    -6.1210)  ( 0.00    -2.6439)  ( 0.00    -1.4084)
 D :1...1            ( 0.00    -2.7133)
 F :1...1            ( 0.00    -0.3300)

 CYCLE    2
  SDIIS (wt  0.000):  1.0000 -0.0000
 A-DIIS (wt  1.000):  0.0000  1.0000
  DIIS coefficients:  0.0000  1.0000
 SCF Error: norm([F,P])=      6.451367365890, max([F,P])=      4.219703087224
 orbitals (Q,E):
 ---------------
 S :1...3            ( 2.00   -10.8287)  ( 2.00     0.0014)  ( 0.00     1.1966)
 P :1...2            ( 3.00     0.1843)  ( 0.00     0.9564)
 D :1...1            ( 0.00     1.8417)
 F :1...1            ( 0.00     4.7248)

 CYCLE    3
  SDIIS (wt  0.000):  0.2198  0.7802
 A-DIIS (wt  1.000):  0.2131  0.7869
  DIIS coefficients:  0.2131  0.7869
 SCF Error: norm([F,P])=      2.481517685351, max([F,P])=      1.954795594132
 orbitals (Q,E):
 ---------------
 S :1...3            ( 2.00   -15.1747)  ( 2.00    -1.2497)  ( 0.00     0.2017)
 P :1...2            ( 3.00    -0.8323)  ( 0.00     0.0719)
 D :1...1            ( 0.00     0.7940)
 F :1...1            ( 0.00     3.4887)

 CYCLE    4
  SDIIS (wt  0.000): -0.0612  0.1925  0.8687
 A-DIIS (wt  1.000):  0.0000  0.0259  0.9741
  DIIS coefficients:  0.0000  0.0259  0.9741
 SCF Error: norm([F,P])=      0.970371105527, max([F,P])=      0.641065486122
 orbitals (Q,E):
 ---------------
 S :1...3            ( 2.00   -13.4412)  ( 2.00    -0.4401)  ( 0.00     0.6963)
 P :1...2            ( 3.00    -0.0468)  ( 0.00     0.4437)
 D :1...1            ( 0.00     1.4306)
 F :1...1            ( 0.00     4.2280)

 CYCLE    5
  SDIIS (wt  0.000): -0.0222 -0.0718  0.4807  0.6133
 A-DIIS (wt  1.000):  0.0000  0.0000  0.4633  0.5367
  DIIS coefficients:  0.0000  0.0000  0.4633  0.5367
 SCF Error: norm([F,P])=      0.831034576935, max([F,P])=      0.578511378985
 orbitals (Q,E):
 ---------------
 S :1...3            ( 2.00   -14.1857)  ( 2.00    -0.7190)  ( 0.00     0.4998)
 P :1...2            ( 3.00    -0.2946)  ( 0.00     0.2748)
 D :1...1            ( 0.00     1.2103)
 F :1...1            ( 0.00     3.9682)

 CYCLE    6
  SDIIS (wt  0.696):  0.0027 -0.0052 -0.0171  0.0723  0.9473
 A-DIIS (wt  0.304):  0.0000  0.0000  0.0000  0.0000  1.0000
  DIIS coefficients:  0.0019 -0.0036 -0.0119  0.0503  0.9634
 SCF Error: norm([F,P])=      0.059655214985, max([F,P])=      0.031138717216
 orbitals (Q,E):
 ---------------
 S :1...3            ( 2.00   -14.1243)  ( 2.00    -0.6773)  ( 0.00     0.5219)
 P :1...2            ( 3.00    -0.2558)  ( 0.00     0.2921)
 D :1...1            ( 0.00     1.2456)
 F :1...1            ( 0.00     4.0096)

 CYCLE    7
  SDIIS (wt  0.824): -0.0002  0.0014  0.0138 -0.0266 -0.0370  1.0487
 A-DIIS (wt  0.176):  0.0000  0.0000  0.0000  0.0000  0.0360  0.9640
  DIIS coefficients: -0.0002  0.0011  0.0114 -0.0220 -0.0242  1.0338
 SCF Error: norm([F,P])=      0.027721651816, max([F,P])=      0.018404675135
 orbitals (Q,E):
 ---------------
 S :1...3            ( 2.00   -14.1511)  ( 2.00    -0.6888)  ( 0.00     0.5142)
 P :1...2            ( 3.00    -0.2669)  ( 0.00     0.2857)
 D :1...1            ( 0.00     1.2367)
 F :1...1            ( 0.00     3.9991)

 CYCLE    8
  SDIIS (wt  0.979): -0.0000  0.0002  0.0011 -0.0022 -0.0006  0.2099  0.7916
 A-DIIS (wt  0.021):  0.0000  0.0000  0.0000  0.0000  0.0000  0.0000  1.0000
  DIIS coefficients: -0.0000  0.0002  0.0011 -0.0021 -0.0006  0.2055  0.7960
 SCF Error: norm([F,P])=      0.004499232480, max([F,P])=      0.003081258258
 orbitals (Q,E):
 ---------------
 S :1...3            ( 2.00   -14.1473)  ( 2.00    -0.6873)  ( 0.00     0.5152)
 P :1...2            ( 3.00    -0.2655)  ( 0.00     0.2865)
 D :1...1            ( 0.00     1.2378)
 F :1...1            ( 0.00     4.0005)

 CYCLE    9
  SDIIS (wt  1.000):  0.0000 -0.0000 -0.0001  0.0001 -0.0002 -0.0094 -0.0232  1.0327
  DIIS coefficients:  0.0000 -0.0000 -0.0001  0.0001 -0.0002 -0.0094 -0.0232  1.0327
 SCF Error: norm([F,P])=      0.000019361449, max([F,P])=      0.000012105781
 orbitals (Q,E):
 ---------------
 S :1...3            ( 2.00   -14.1473)  ( 2.00    -0.6873)  ( 0.00     0.5152)
 P :1...2            ( 3.00    -0.2655)  ( 0.00     0.2865)
 D :1...1            ( 0.00     1.2378)
 F :1...1            ( 0.00     4.0005)

 CYCLE   10
  SDIIS (wt  1.000): -0.0000 -0.0000  0.0000  0.0000 -0.0001  0.0001  0.0232  0.9769
  DIIS coefficients: -0.0000 -0.0000  0.0000  0.0000 -0.0001  0.0001  0.0232  0.9769
 SCF Error: norm([F,P])=      0.000001838439, max([F,P])=      0.000001230955
 orbitals (Q,E):
 ---------------
 S :1...3            ( 2.00   -14.1473)  ( 2.00    -0.6873)  ( 0.00     0.5152)
 P :1...2            ( 3.00    -0.2655)  ( 0.00     0.2865)
 D :1...1            ( 0.00     1.2378)
 F :1...1            ( 0.00     4.0005)

 CYCLE   11
  SDIIS (wt  1.000): -0.0000 -0.0000 -0.0000 -0.0006 -0.0321  1.0328
  DIIS coefficients: -0.0000 -0.0000 -0.0000 -0.0006 -0.0321  1.0328
 SCF Error: norm([F,P])=      0.000000052960, max([F,P])=      0.000000032927
 orbitals (Q,E):
 ---------------
 S :1...3            ( 2.00   -14.1473)  ( 2.00    -0.6873)  ( 0.00     0.5152)
 P :1...2            ( 3.00    -0.2655)  ( 0.00     0.2865)
 D :1...1            ( 0.00     1.2378)
 F :1...1            ( 0.00     4.0005)

 CYCLE   12
  SDIIS (wt  1.000): -0.0000  0.0000 -0.0002  0.0076  0.9926
  DIIS coefficients: -0.0000  0.0000 -0.0002  0.0076  0.9926
 SCF Error: norm([F,P])=      0.000000000214, max([F,P])=      0.000000000118
 orbitals (Q,E):
 ---------------
 S :1...3            ( 2.00   -14.1473)  ( 2.00    -0.6873)  ( 0.00     0.5152)
 P :1...2            ( 3.00    -0.2655)  ( 0.00     0.2865)
 D :1...1            ( 0.00     1.2378)
 F :1...1            ( 0.00     4.0005)

 SCF CONVERGED

 CYCLE   13
1
 ***************************************************************************************************



                                                *******************
                                                *  R E S U L T S  *
                                                *******************
  
 *** Setting up for NEW gradients in Focky
 *** Using FIT density in Focky

 Orbital Energies, per Irrep and Spin:
 ======================================
                        Occup              E (au)              E (eV)       Diff (eV) with prev. cycle
                        -----      --------------------        ------       --------------------------
 S
               1        2.000     -0.14147275471391E+02      -384.967               8.94E-10
               2        2.000     -0.68732764310953E+00       -18.703               5.68E-10
               3        0.000      0.51515957710219E+00        14.018
               4        0.000      0.68959769444915E+01       187.649
               5        0.000      0.63979073432212E+02      1740.959
 P
               1        3.000     -0.26548379507191E+00        -7.224               5.44E-10
               2        0.000      0.28654429146964E+00         7.797
               3        0.000      0.32908032270942E+01        89.547
 D
               1        0.000      0.12378131244837E+01        33.683
 F
               1        0.000      0.40004783530592E+01       108.859


 Partially Occupied:
               1 P                -0.26548379507191E+00
  
 HOMO :        2 S                -0.68732764310953E+00
 LUMO :        2 P                 0.28654429146964E+00
  


 Orbital Energies, all Irreps
 ========================================

 Irrep        no.  (spin)   Occup              E (au)                E (eV)
 ---------------------------------------------------------------------------
 S             1             2.00       -0.14147275471391E+02      -384.9670
 S             2             2.00       -0.68732764310953E+00       -18.7031
 P             1             3.00       -0.26548379507191E+00        -7.2242
 P             2             0.00        0.28654429146964E+00         7.7973
 S             3             0.00        0.51515957710219E+00        14.0182
 D             1             0.00        0.12378131244837E+01        33.6826
 P             3             0.00        0.32908032270942E+01        89.5473
 F             1             0.00        0.40004783530592E+01       108.8586
 S             4             0.00        0.68959769444915E+01       187.6491
 S             5             0.00        0.63979073432212E+02      1740.9592


 All Electron Calculation, thus no Orbital Energies of the Core Orbitals are calculated



 =======================================
 M U L L I K E N   P O P U L A T I O N S
 =======================================
  
 The survey below gives for each atom:
 a) the total charge (Z minus electrons)
 b) the net spin polarization (nr of electrons spin-A minus spin-B)
 c) for each spin the atomic electron valence density (integrated) per L-value.

 Atom              Charge    Spin density          S         P         D         F
 ----              ------    ------------       ------    ------    ------    ------
 1 N              -0.0000                       4.0000    3.0000    0.0000    0.0000

 Populations of individual BAS functions
 ----------------------------------------
 1 N            0.5256  1.4646 -0.0480  1.1588  0.8990  0.1407  0.1407  0.1407  0.5661  0.5661
                0.5661  0.2932  0.2932  0.2932  0.0000  0.0000  0.0000  0.0000  0.0000  0.0000
                0.0000  0.0000  0.0000  0.0000  0.0000  0.0000  0.0000  0.0000  0.0000  0.0000

 Gross Charges per Atom (Z minus electrons)
 ==========================================
            -0.0000
 Net Total: -0.00000000



 =======================================================================
 Electrostatic potential at the Nuclei due to electrons and other nuclei
 =======================================================================
  
         Atom                  Potential
         ----                  ---------
     1)   N                  18.29008691
 
 
 ========================
 No memory problems found
 ========================
 
 Maximum number of active allocate calls:         447
 
 *******************************************************************************

                             A D F   E X I T
 NORMAL TERMINATION



 =================
 Timing Statistics
 =================
  
 Total Used :                     CPU=        0.49      System=        0.03     Elapsed=        0.52

 Calls  Section                     ( Mean, Percentage )
 ---------------------------------------------------------------------------------------------------
     3  ><      ................      0.00    0.21             0.00    0.00             0.00    0.15
     1  INIT    ................      0.01    1.85             0.01   48.39             0.03    4.97
     1  GEOMET  ................      0.00    0.62             0.00   16.13             0.01    1.62
     1  INPUTA  ................      0.00    0.21             0.00    3.22             0.00    0.29
     1  MAINSY  ................      0.00    0.82             0.00    6.45             0.01    1.15
     1  SYMFIT  ................      0.00    0.21             0.00    0.00             0.00    0.15
     1  CORORT  ................      0.00    0.00             0.00    0.00             0.00    0.05
     1  SYMORB  ................      0.00    0.00             0.00    0.00             0.00    0.13
     1  CLSMAT  ................      0.01    1.23             0.00    0.00             0.01    1.02
     1  ORTHON  ................      0.00    0.21             0.00    0.00             0.00    0.28
     1  GENPT   ................      0.01    3.08             0.00    0.00             0.01    2.84
     1  PTBAS   ................      0.00    0.62             0.00    0.00             0.00    0.67
    13  FOCKY   ................      0.03   75.98             0.00    9.68             0.03   71.76
    13  FOCKTR  ................      0.00    2.05             0.00    6.45             0.00    2.06
    13  SDIIS   ................      0.00    4.11             0.00    3.22             0.00    4.12
     1  COREPS  ................      0.02    4.31             0.00    0.00             0.02    4.05
     1  POPAN   ................      0.00    1.03             0.00    0.00             0.01    1.01
     1  DEBYE   ................      0.00    0.21             0.00    0.00             0.00    0.11
     1  EXIT PROCEDURE .........      0.02    3.29             0.00    6.45             0.02    3.56


 Currently Open Files (EXIT00)
 ====================

 Unit    Access Format  Status   Type       Ident (file)
 -------------------------------------------------------
   3      SEQ    FORM   TRANSP  NORMAL      LOGFILE
                                          ( logfile )


 Buffered I/O statistics
 =======================
 Memory available:                     67108864
 Number of records fitting in memory:     16131
 Input :   0.1% of                        27821  *4k bytes
 Output:  13.6% of                         1374  *4k bytes
 Records from serial files evicted:           0
                    others evicted:           0
 Hash table lookups:      71921 with          0 conflicts (  0.00%)

 ***************************************************************************************************
 (LOGFILE)
 <Apr18-2019> <22:12:11>  ADF development version  RunTime: Apr18-2019 22:12:11  Nodes: 1  Procs: 1
 <Apr18-2019> <22:12:11>  Hydrogen (TZ2P)
 <Apr18-2019> <22:12:11>  RunType   : CREATE
 <Apr18-2019> <22:12:11>  Net Charge: 0 (Nuclei minus Electrons)
 <Apr18-2019> <22:12:11>  Symmetry  : ATOM
  Coordinates
    Atom         X           Y           Z   (Angstrom)
    1.H         0.000000    0.000000    0.000000
 <Apr18-2019> <22:12:11>  >>>> CORORT
 <Apr18-2019> <22:12:11>  >>>> CLSMAT
 <Apr18-2019> <22:12:11>  >>>> ORTHON
 <Apr18-2019> <22:12:11>  >>>> GENPT
 <Apr18-2019> <22:12:11>  Block Length=  64
 <Apr18-2019> <22:12:11>  >>>> PTBAS
 <Apr18-2019> <22:12:11>  >>>> CYCLE
 <Apr18-2019> <22:12:11>              |Error|         MaxErr       Wt(A-DIIS)
 <Apr18-2019> <22:12:11>      1      0.00000000      0.00000000
 <Apr18-2019> <22:12:11>      2      0.03052616      0.02968253
 <Apr18-2019> <22:12:11>      3      0.00718306      0.00671215    100.0
 <Apr18-2019> <22:12:11>      4      0.00117509      0.00114306      0.1
 <Apr18-2019> <22:12:11>      5      0.00002753      0.00002354      0.0
 <Apr18-2019> <22:12:11>      6      0.00000151      0.00000129      0.0
 <Apr18-2019> <22:12:11>      7      0.00000000      0.00000000      0.0
 <Apr18-2019> <22:12:12>  SCF converged
 <Apr18-2019> <22:12:12>      8      0.00000000      0.00000000      0.0
 <Apr18-2019> <22:12:12>  >>>> POPAN
 <Apr18-2019> <22:12:12>  >>>> DEBYE
 <Apr18-2019> <22:12:12>  NORMAL TERMINATION
 <Apr18-2019> <22:12:12>  END
 <Apr18-2019> <22:12:12>  ADF development version  RunTime: Apr18-2019 22:12:12  Nodes: 1  Procs: 1
 <Apr18-2019> <22:12:12>  Nitrogen (TZ2P)
 <Apr18-2019> <22:12:12>  RunType   : CREATE
 <Apr18-2019> <22:12:12>  Net Charge: 0 (Nuclei minus Electrons)
 <Apr18-2019> <22:12:12>  Symmetry  : ATOM
  Coordinates
    Atom         X           Y           Z   (Angstrom)
    1.N         0.000000    0.000000    0.000000
 <Apr18-2019> <22:12:12>  >>>> CORORT
 <Apr18-2019> <22:12:12>  >>>> CLSMAT
 <Apr18-2019> <22:12:12>  >>>> ORTHON
 <Apr18-2019> <22:12:12>  >>>> GENPT
 <Apr18-2019> <22:12:12>  Block Length=  72
 <Apr18-2019> <22:12:12>  >>>> PTBAS
 <Apr18-2019> <22:12:12>  >>>> CYCLE
 <Apr18-2019> <22:12:12>              |Error|         MaxErr       Wt(A-DIIS)
 <Apr18-2019> <22:12:12>      1      0.00000000      0.00000000
 <Apr18-2019> <22:12:12>      2      6.45136737      4.21970309    100.0
 <Apr18-2019> <22:12:12>      3      2.48151769      1.95479559    100.0
 <Apr18-2019> <22:12:12>      4      0.97037111      0.64106549    100.0
 <Apr18-2019> <22:12:12>      5      0.83103458      0.57851138    100.0
 <Apr18-2019> <22:12:12>      6      0.05965521      0.03113872     30.4
 <Apr18-2019> <22:12:12>      7      0.02772165      0.01840468     17.6
 <Apr18-2019> <22:12:12>      8      0.00449923      0.00308126      2.1
 <Apr18-2019> <22:12:12>      9      0.00001936      0.00001211      0.0
 <Apr18-2019> <22:12:12>     10      0.00000184      0.00000123      0.0
 <Apr18-2019> <22:12:12>     11      0.00000005      0.00000003      0.0
 <Apr18-2019> <22:12:12>     12      0.00000000      0.00000000      0.0
 <Apr18-2019> <22:12:12>  SCF converged
 <Apr18-2019> <22:12:12>     13      0.00000000      0.00000000      0.0
 <Apr18-2019> <22:12:12>  >>>> POPAN
 <Apr18-2019> <22:12:12>  >>>> DEBYE
 <Apr18-2019> <22:12:12>  NORMAL TERMINATION
 <Apr18-2019> <22:12:12>  END


 Parallel Execution: Process Information
 ==============================================================================
 Rank   Node Name                              NodeID   MyNodeRank  NodeMaster
    0   BAZIS-cn076                               0          0          0
    1   BAZIS-cn076                               0          1         -1
    2   BAZIS-cn076                               0          2         -1
    3   BAZIS-cn076                               0          3         -1
    4   BAZIS-cn076                               0          4         -1
    5   BAZIS-cn076                               0          5         -1
    6   BAZIS-cn076                               0          6         -1
    7   BAZIS-cn076                               0          7         -1
    8   BAZIS-cn076                               0          8         -1
    9   BAZIS-cn076                               0          9         -1
   10   BAZIS-cn076                               0         10         -1
   11   BAZIS-cn076                               0         11         -1
 ==============================================================================


May use up to 30736MB of RAM as shared memory on node 0


XC
  GGA BP86
END

ANALYTICALFREQ
END

SCF
  iterations 250
END

Geometry
  Iterations 300
  Optim Cartesian
  Convergence E=1e-4 grad=1e-4
End

SYMMETRY nosym
CHARGE 0

ZLMFIT
  Quality normal
END

BECKEGRID
  Quality good
End

ATOMS
N      -1.97815740      -1.77905704       0.37967372
H      -1.74379900      -2.78204352       0.55258352
H      -2.46698220      -1.43295456       1.23528282
H      -2.67954375      -1.76351123      -0.39403104
END

Fragments
H t21.H
N t21.N
End
end input

 *******************************************************************************
 *                                                                             *
 *  -------------------------------------                                      *
 *   Amsterdam Density Functional  (ADF)         development version           *
 *  -------------------------------------                                      *
 *                                               r61132 2017-09-08             *
 *                                                                             *
 *                                                                             *
 *                              =================                              *
 *                              |               |                              *
 *                              |     A D F     |                              *
 *                              |               |                              *
 *                              =================                              *
 *                                                                             *
 *                                                                             *
 *   Online information and documentation:  https://www.scm.com/support/       *
 *   E-mail:  support@scm.com   info@scm.com                                   *
 *                                                                             *
 *   Scientific publications using ADF results must be properly referenced     *
 *   See the User Manuals (or the web site) for recommended citations          *
 *   The terms and conditions of the End User License Agreement apply to       *
 *   the use of ADF, https://www.scm.com/license-terms/                        *
 *                                                                             *
 **********************  x86_64_linux_intel / intelmpi  ************************
 
 Licensed to: VU/FEW (+ SARA) / ALGEMEEN / Amsterdam / THE NETHERLANDS
 SCM User ID: u7668
  
 ADF development version  RunTime: Apr18-2019 22:12:12  Nodes: 1  Procs: 12

 Temporary files are created in /local/datastore0/tcst25/186818/kid_0.W8S7ZK


Communication costs MPI_COMM_WORLD:      2.538 usec per message,   0.0134 usec per 8-byte item
Communication costs for intra-node:      2.529 usec per message,   0.0134 usec per 8-byte item

 *** (NO TITLE) ***



 ===========================
 A T T A C H E D   F I L E S
 ===========================
  



 ===============================
 M O D E L   P A R A M E T E R S
 ===============================
  
 DENSITY FUNCTIONAL POTENTIAL (scf)
    LDA:                               VWN                                      
    Gradient Corrections:              Becke88 Perdew86                        == Not Default ==

 SPIN  (restricted / unrestr.)
    Molecule:                          Restricted                               
    Fragments:                         Restricted                               

 OTHER ASPECTS
    Relativistic Corrections:          ---                                      

    Nuclear Charge Density Model:      Point Charge Nuclei                      
    Core Treatment:                    Frozen Orbital(s)                        

    Hyperfine or Zeeman Interaction:   ---                                      


 Fragment File(s)
 ----------------
 N:
         file : t21.N
         jobid: ADF development version  RunTime: Apr18-2019 22:12:12  Nodes: 1  Procs: 1
         title: Nitrogen (TZ2P)
 H:
         file : t21.H
         jobid: ADF development version  RunTime: Apr18-2019 22:12:11  Nodes: 1  Procs: 1
         title: Hydrogen (TZ2P)



                                   *********************************************
                                   *  R U N   T Y P E : GEOMETRY OPTIMIZATION  *
                                   *********************************************
  



 ===============
 G E O M E T R Y  ***  3D  Molecule  ***
 ===============
  

 ATOMS
 =====                            X Y Z                    CHARGE
                                (Angstrom)             Nucl     +Core       At.Mass
                       --------------------------    ----------------       -------
    1  N              -1.9782   -1.7791    0.3797      7.00      7.00       14.0031
    2  H              -1.7438   -2.7820    0.5526      1.00      1.00        1.0078
    3  H              -2.4670   -1.4330    1.2353      1.00      1.00        1.0078
    4  H              -2.6795   -1.7635   -0.3940      1.00      1.00        1.0078


 FRAGMENTS
 =========                                     Atoms in this Fragment     Cart. coord.s (Angstrom)
                                               -------------------------------------------------------
    1  N                                                 1  N           -1.9782   -1.7791    0.3797
    2  H                                                 2  H           -1.7438   -2.7820    0.5526
    3  H                                                 3  H           -2.4670   -1.4330    1.2353
    4  H                                                 4  H           -2.6795   -1.7635   -0.3940


 Interatomic Distance Matrix (Angstrom)
 --------------------------------------

   1)     0.000
   2)     1.044   0.000
   3)     1.044   1.676   0.000
   4)     1.044   1.676   1.676   0.000

 Min. Distance =    1.0444
 Max. Distance =    1.6760



 =====================================
 S Y M M E T R Y ,   E L E C T R O N S
 =====================================
  
 Symmetry: NOSYM

 Irreducible Representations, including subspecies
 -------------------------------------------------
 A


 Configuration of Valence Electrons
 ==================================
 ( determined in the SCF procedure )

 Total:   10

 Net Charge: 0 (Nuclei minus Electrons)

 Aufbau principle for MO occupations will be applied through SCF cycle no.     125
 Thereafter, the program will assign electrons to MOs that are spatially
 similar to the occupied MOs in a "reference" cycle ("KeepOrbitals").
 The reference cycle is always the PREVIOUS cycle: it will evolve with
 the SCF procedure.
1
 ***************************************************************************************************



                                      ****************************************
                                      *  B U I L D : (Fragments, Functions)  *
                                      ****************************************
  



 =======
 S F O s  ***  (Symmetrized Fragment Orbitals)  ***
 =======
  
 SFOs are linear combinations of (valence) Fragment Orbitals (FOs), such that the SFOs transform as the
 irreducible representations of the (molecular) symmetry group. Each SFO is therefore characterized by
 an irrep of the molecule and by a few (or only one) generating FOs.
 The SFOs constitute a symmetry-adapted basis for the Fock matrix. The MO eigenvector coefficients in
 this basis provide a direct interpretation of the MOs in terms of Frontier Orbital Theory.

 The SFOs are combined with auxiliary Core Functions (CFs) to ensure orthogonalization on the (frozen)
 Core Orbitals (COs). The Core-orthogonalized SFOs (CSFOs) constitute the true Fock basis.

 The FOs, and hence also the (C)SFOs are combinations of the elementary basis functions (BAS). The basis
 functions that participate in the description of the SFOs depend on the irrep. The indices of the
 involved functions are printed below for each irrep.
 (The complete list of primitive basis functions is printed in another section)

 Total nr. of (C)SFOs (summation over all irreps) :    59

 NOTE: a (C)SFO that is defined as a combination of more than one FO is usually NOT normalized.



                                       === A ===
 Nr. of SFOs :   59
 Cartesian basis functions that participate in this irrep (total number =    66) :
      1     2     3     4     5     6     9    12     7    10
     13     8    11    14    15    16    17    18    19    20
     21    22    23    24    25    26    27    28    29    30
     31    32    33    34    35    36    37    38    39    40
     41    42    43    44    45    46    47    48    49    50
     51    52    53    54    55    56    57    58    59    60
     61    62    63    64    65    66

    SFO  (index         Fragment          Generating    Expansion in Fragment Orbitals
  indx  incl.CFs)   Occup   Orb.Energy   FragmentType  Coeff.   Orbital     on Fragment
 --------------------------------------------------------------------------------------
     1       1      2.000     -14.147 au  N             1.00      1 S               1
                        (    -384.967 eV)
     2       2      2.000      -0.687 au  N             1.00      2 S               1
                        (     -18.703 eV)
     3       3       --         0.515 au  N             1.00      3 S               1
                        (      14.018 eV)
     4       4       --         6.896 au  N             1.00      4 S               1
                        (     187.649 eV)
     5       5       --        63.979 au  N             1.00      5 S               1
                        (    1740.959 eV)
     6       6      1.000      -0.265 au  N             1.00      1 P:x             1
                        (      -7.224 eV)
     7       7       --         0.287 au  N             1.00      2 P:x             1
                        (       7.797 eV)
     8       8       --         3.291 au  N             1.00      3 P:x             1
                        (      89.547 eV)
     9       9      1.000      -0.265 au  N             1.00      1 P:y             1
                        (      -7.224 eV)
    10      10       --         0.287 au  N             1.00      2 P:y             1
                        (       7.797 eV)
    11      11       --         3.291 au  N             1.00      3 P:y             1
                        (      89.547 eV)
    12      12      1.000      -0.265 au  N             1.00      1 P:z             1
                        (      -7.224 eV)
    13      13       --         0.287 au  N             1.00      2 P:z             1
                        (       7.797 eV)
    14      14       --         3.291 au  N             1.00      3 P:z             1
                        (      89.547 eV)
    15      15       --         1.238 au  N             1.00      1 D:z2            1
                        (      33.683 eV)
    16      16       --         1.238 au  N             1.00      1 D:x2-y2         1
                        (      33.683 eV)
    17      17       --         1.238 au  N             1.00      1 D:xy            1
                        (      33.683 eV)
    18      18       --         1.238 au  N             1.00      1 D:xz            1
                        (      33.683 eV)
    19      19       --         1.238 au  N             1.00      1 D:yz            1
                        (      33.683 eV)
    20      20       --         4.000 au  N             1.00      1 F:z3            1
                        (     108.859 eV)
    21      21       --         4.000 au  N             1.00      1 F:z             1
                        (     108.859 eV)
    22      22       --         4.000 au  N             1.00      1 F:xyz           1
                        (     108.859 eV)
    23      23       --         4.000 au  N             1.00      1 F:z2x           1
                        (     108.859 eV)
    24      24       --         4.000 au  N             1.00      1 F:z2y           1
                        (     108.859 eV)
    25      25       --         4.000 au  N             1.00      1 F:x             1
                        (     108.859 eV)
    26      26       --         4.000 au  N             1.00      1 F:y             1
                        (     108.859 eV)
    27      27      1.000      -0.244 au  H             1.00      1 S               2
                        (      -6.626 eV)
    28      28       --         0.093 au  H             1.00      2 S               2
                        (       2.537 eV)
    29      29       --         1.515 au  H             1.00      3 S               2
                        (      41.236 eV)
    30      30       --         0.400 au  H             1.00      1 P:x             2
                        (      10.872 eV)
    31      31       --         0.400 au  H             1.00      1 P:y             2
                        (      10.872 eV)
    32      32       --         0.400 au  H             1.00      1 P:z             2
                        (      10.872 eV)
    33      33       --         2.561 au  H             1.00      1 D:z2            2
                        (      69.689 eV)
    34      34       --         2.561 au  H             1.00      1 D:x2-y2         2
                        (      69.689 eV)
    35      35       --         2.561 au  H             1.00      1 D:xy            2
                        (      69.689 eV)
    36      36       --         2.561 au  H             1.00      1 D:xz            2
                        (      69.689 eV)
    37      37       --         2.561 au  H             1.00      1 D:yz            2
                        (      69.689 eV)
    38      38      1.000      -0.244 au  H             1.00      1 S               3
                        (      -6.626 eV)
    39      39       --         0.093 au  H             1.00      2 S               3
                        (       2.537 eV)
    40      40       --         1.515 au  H             1.00      3 S               3
                        (      41.236 eV)
    41      41       --         0.400 au  H             1.00      1 P:x             3
                        (      10.872 eV)
    42      42       --         0.400 au  H             1.00      1 P:y             3
                        (      10.872 eV)
    43      43       --         0.400 au  H             1.00      1 P:z             3
                        (      10.872 eV)
    44      44       --         2.561 au  H             1.00      1 D:z2            3
                        (      69.689 eV)
    45      45       --         2.561 au  H             1.00      1 D:x2-y2         3
                        (      69.689 eV)
    46      46       --         2.561 au  H             1.00      1 D:xy            3
                        (      69.689 eV)
    47      47       --         2.561 au  H             1.00      1 D:xz            3
                        (      69.689 eV)
    48      48       --         2.561 au  H             1.00      1 D:yz            3
                        (      69.689 eV)
    49      49      1.000      -0.244 au  H             1.00      1 S               4
                        (      -6.626 eV)
    50      50       --         0.093 au  H             1.00      2 S               4
                        (       2.537 eV)
    51      51       --         1.515 au  H             1.00      3 S               4
                        (      41.236 eV)
    52      52       --         0.400 au  H             1.00      1 P:x             4
                        (      10.872 eV)
    53      53       --         0.400 au  H             1.00      1 P:y             4
                        (      10.872 eV)
    54      54       --         0.400 au  H             1.00      1 P:z             4
                        (      10.872 eV)
    55      55       --         2.561 au  H             1.00      1 D:z2            4
                        (      69.689 eV)
    56      56       --         2.561 au  H             1.00      1 D:x2-y2         4
                        (      69.689 eV)
    57      57       --         2.561 au  H             1.00      1 D:xy            4
                        (      69.689 eV)
    58      58       --         2.561 au  H             1.00      1 D:xz            4
                        (      69.689 eV)
    59      59       --         2.561 au  H             1.00      1 D:yz            4
                        (      69.689 eV)



 ================================
 (Slater-type)  F U N C T I O N S  ***  (Basis and Fit)  ***
 ================================
  

 Atom Type    1  (N)
 ==============

 Valence Basis Sets:  10
 -----------------------
   1 S    8.740000
   1 S    5.900000
   2 S    5.150000
   2 S    2.500000
   2 S    1.500000
   2 P    3.680000
   2 P    1.880000
   2 P    1.000000
   3 D    2.200000
   4 F    3.300000

 Atom Type    2  (H)
 ==============

 Valence Basis Sets:   5
 -----------------------
   1 S    0.690000
   1 S    0.920000
   1 S    1.580000
   2 P    1.250000
   3 D    2.500000


 BAS: List of all Elementary Cartesian Basis Functions
 =====================================================

 The numbering in the list below (to the right of the function characteristics) is referred
 to in print-outs of MO eigenvectors and Mulliken populations in the BAS representation
 (as contrasted to the SFO representation).

 Notes:
 1. The functions are characterized by a polynomial prefactor (powers of x,y,z and r) and
    an exponential decay factor alpha.
 2. Since the basis sets are specific for an atom TYPE, the individual functions occur on
    all atoms of that type.
 3. The word 'Core' in the left margin signals that it is a Core Function (CF) : not a
    degree of freedom in the valence set, but only used to ensure orthogonalization of
    the other valence basis functions on the frozen Core Orbitals.


 (power of) X  Y  Z  R     Alpha  on Atom
            ==========     =====     ==========

 N                                    1
                                  ---------------------------------------------------------------------------
            0  0  0  0     8.740      1
            0  0  0  0     5.900      2
            0  0  0  1     5.150      3
            0  0  0  1     2.500      4
            0  0  0  1     1.500      5
            1  0  0  0     3.680      6
            0  1  0  0     3.680      7
            0  0  1  0     3.680      8
            1  0  0  0     1.880      9
            0  1  0  0     1.880     10
            0  0  1  0     1.880     11
            1  0  0  0     1.000     12
            0  1  0  0     1.000     13
            0  0  1  0     1.000     14
            2  0  0  0     2.200     15
            1  1  0  0     2.200     16
            1  0  1  0     2.200     17
            0  2  0  0     2.200     18
            0  1  1  0     2.200     19
            0  0  2  0     2.200     20
            3  0  0  0     3.300     21
            2  1  0  0     3.300     22
            2  0  1  0     3.300     23
            1  2  0  0     3.300     24
            1  1  1  0     3.300     25
            1  0  2  0     3.300     26
            0  3  0  0     3.300     27
            0  2  1  0     3.300     28
            0  1  2  0     3.300     29
            0  0  3  0     3.300     30

 H                                    2    3    4
                                  ---------------------------------------------------------------------------
            0  0  0  0     0.690     31   43   55
            0  0  0  0     0.920     32   44   56
            0  0  0  0     1.580     33   45   57
            1  0  0  0     1.250     34   46   58
            0  1  0  0     1.250     35   47   59
            0  0  1  0     1.250     36   48   60
            2  0  0  0     2.500     37   49   61
            1  1  0  0     2.500     38   50   62
            1  0  1  0     2.500     39   51   63
            0  2  0  0     2.500     40   52   64
            0  1  1  0     2.500     41   53   65
            0  0  2  0     2.500     42   54   66

 Total number of charge fitting functions (nprimf)       234
 Total number of Cartesian basis functions (naos)         66
 Total number of Cartesian core functions  (ncos)          0



 Coordinates (Cartesian)
 =======================

     Atom                    bohr                                 angstrom                 Geometric Variables
                   X           Y           Z              X           Y           Z       (0:frozen, *:LT par.)
 --------------------------------------------------------------------------------------------------------------
     1 N      -3.738176   -3.361931    0.717479      -1.978157   -1.779057    0.379674      1       2       3
     2 H      -3.295303   -5.257300    1.044232      -1.743799   -2.782044    0.552584      4       5       6
     3 H      -4.661921   -2.707892    2.334346      -2.466982   -1.432955    1.235283      7       8       9
     4 H      -5.063604   -3.332553   -0.744611      -2.679544   -1.763511   -0.394031     10      11      12
 --------------------------------------------------------------------------------------------------------------
1
 ***************************************************************************************************



                                              ***********************
                                              *  T E C H N I C A L  *
                                              ***********************
  



 =============================================================
 P A R A L L E L I Z A T I O N  and  V E C T O R I Z A T I O N
 =============================================================
  
 Nr of parallel processes:                               12
 Maximum vector length in NumInt loops:                 128

 IO buffersize (Mb):                                     64.000000



 ===============================
 G E O M E T R Y   U P D A T E S
 ===============================
  
 Optimization coordinates:                       Cartesian
 Optimization code branch:                       NEW
 Hessian update method:                          BFGS (Broyden-Fletcher-Goldfarb-Shanno)

 Iterative Geometry Improvements:
    Max. nr. of iterations:                        300
    Convergence criteria:
         Change in energy (hartree):                 0.0001000000
         Gradients (au/Angstrom):                    0.0001000000
         Cart/bondlength changes (Angstrom):         0.0100000000
    Max. step to take:
         Trust Radius:                               0.2000000000

 GDIIS (Geometry Direct Inversion in Iteration Space):
    First geometry cycle:                            0
    Max. number expansion vectors:                   5



 =====================
 S C F   U P D A T E S
 =====================
  
 Max. nr. of cycles:                               250
 Convergence criterion:                              0.0000010000
   secondary criterion:                              0.0010000000

 Mix parameter (when DIIS does not apply):           0.2000000000
 Mixed ADIIS+DIIS will be used
    Max number of expansion vectors:                10
    Pure ADIIS when Max([F,P]) is above              0.1000000000
    Pure DIIS when Max([F,P]) is below               0.0010000000



 =================
 P R E C I S I O N  ***  (General: NumInt, NeglectFunctionTails, ...)  ***
 =================
  

 NumInt:           Target precision:                 6.0000000000
 -------           Initial precision:                6.0000000000
                   Min. precision (optimization):    6.0000000000

 Neglect Functions:          Basis functions:        0.1000000000E-07
 ------------------          Fit functions:          0.1000000000E-07



 ===========================
 L I N E A R   S C A L I N G
 ===========================
  

 Cut-off radii density fit:                        0.1000000000E-09
 Overlap cut-off criterion AO matrix elements:     0.1000000000E-07
 Cut-offs for Coulomb potential and fitted density:0.1000000000E-09
 Cut-off criterion for Coulomb multipole terms:    0.1000000000E-09
 Progressive Convergence parameter:                 0.000000000    
1
 ***************************************************************************************************



                                            ***************************
                                            *  C O M P U T A T I O N  *
                                            ***************************
  

 Number of elements of the density matrix on this node (used, total):       465      2211



 ===========================================
 Numerical Integration : Fuzzy Cells (Becke)
 ===========================================
  
 Becke grid quality: GOOD           
  
 Lebedev angular grid order:             min:  11 max:  31
 Nr. of radial points:                   min:  54 max:  61

 Total nr. of points:      48373
 Nr. of blocks:              378
 Block length:               128
 Nr. of dummy points:         11


 Test of Precision of the Numerical Integration Grid
 ===================================================

 Integral of the Total Core Density:                   0.00000000000000



 ========================
 Density Fitting (zlmFit)
 ========================
  
 ZlmFit Fit Quality: NORMAL         
  
 Max L-expansion:                        min:   6 max:   7
 Nr. of radial interpolation points:     min:  39 max:  48



 =====
 S C F  ***  ScaSCF  ***
 =====
  
 Initial density matrix is calculated as sum of fragments

 CYCLE    1
 SCF Error: norm([F,P])=      2.418098614985, max([F,P])=      0.972356442634
 orbitals (Q,E):
 ---------------
 A :1...15           ( 2.00   -14.2732)  ( 2.00    -0.9601)  ( 2.00    -0.5815)  ( 2.00    -0.5814)
                     ( 2.00    -0.4185)  ( 0.00    -0.0720)  ( 0.00    -0.0060)  ( 0.00    -0.0060)
                     ( 0.00     0.1210)  ( 0.00     0.1210)  ( 0.00     0.1692)  ( 0.00     0.1846)
                     ( 0.00     0.3300)  ( 0.00     0.3300)  ( 0.00     0.3570)

 CYCLE    2
  SDIIS (wt  0.000):  0.1315  0.8685
 A-DIIS (wt  1.000):  0.6631  0.3369
  DIIS coefficients:  0.6631  0.3369
 SCF Error: norm([F,P])=      0.839990948826, max([F,P])=      0.214857575466
 orbitals (Q,E):
 ---------------
 A :1...6            ( 2.00   -13.9832)  ( 2.00    -0.8219)  ( 2.00    -0.4609)  ( 2.00    -0.4609)
                     ( 2.00    -0.2752)  ( 0.00    -0.0343)

 CYCLE    3
  SDIIS (wt  0.000):  0.0084 -0.0303  1.0219
 A-DIIS (wt  1.000):  0.0000  0.0000  1.0000
  DIIS coefficients:  0.0000  0.0000  1.0000
 SCF Error: norm([F,P])=      0.081764233287, max([F,P])=      0.024279616628
 orbitals (Q,E):
 ---------------
 A :1...6            ( 2.00   -13.9543)  ( 2.00    -0.7484)  ( 2.00    -0.3927)  ( 2.00    -0.3927)
[...]

     298.15   Entropy (cal/mole-K):                             34.441    11.484     0.107    46.032
              Internal Energy (Kcal/mole):                       0.889     0.889    20.925    22.702
              Constant Volume Heat Capacity (cal/mole-K):        2.981     2.981     0.474     6.435

              Summary of energy terms
                                                   hartree              eV         kcal/mol           kJ/mol
                                      --------------------     -----------       ----------      -----------
              Bond Energy:              -0.711518317445949        -19.3614          -446.48         -1868.09
              Internal Energy:           0.036178644531486          0.9845            22.70            94.99
              pV/n = RT:                 0.000944186013486          0.0257             0.59             2.48
              Enthalpy H:               -0.674395486900977        -18.3512          -423.19         -1770.63
              -T*S:                     -0.021871143988535         -0.5951           -13.72           -57.42
              Gibbs free energy:        -0.696266630889511        -18.9464          -436.91         -1828.05
 

 ***************************************************************************************************
 


====================================================================
*** DONE CALCULATING ANALYTICAL SECOND DERIVATIVES OF THE ENERGY ***
====================================================================

 
 
 ========================
 No memory problems found
 ========================
 
 Maximum number of active allocate calls:         993
 
 *******************************************************************************

                             A D F   E X I T
 NORMAL TERMINATION



 =================
 Timing Statistics
 =================
  
 Total Used :                     CPU=       11.24      System=        0.55     Elapsed=       11.91

 Calls  Section                     ( Mean, Percentage )
 ---------------------------------------------------------------------------------------------------
     3  ><      ................      0.00    0.01             0.00    0.00             0.00    0.01
     1  INIT    ................      0.46    4.07             0.02    3.25             0.48    4.01
     1  GEOMET  ................      0.02    0.21             0.01    1.45             0.03    0.27
     1  FRAGM   ................      0.01    0.07             0.01    2.35             0.02    0.18
     1  INPUTA  ................      0.00    0.00             0.00    0.00             0.00    0.00
     1  ATDEN   ................      0.00    0.04             0.00    0.18             0.01    0.05
     5  MAINSY  ................      0.01    0.38             0.01    7.23             0.02    0.77
     5  SYMFIT  ................      0.00    0.07             0.00    0.00             0.00    0.06
     5  CORORT  ................      0.00    0.00             0.00    0.18             0.00    0.01
     5  SYMORB  ................      0.00    0.12             0.00    0.00             0.00    0.10
     5  CLSMAT  ................      0.01    0.36             0.00    0.54             0.01    0.35
     5  ORTHON  ................      0.00    0.19             0.00    0.90             0.01    0.25
     5  GENPT   ................      0.04    1.99             0.00    1.81             0.05    1.97
     5  PTBAS   ................      0.01    0.67             0.00    1.99             0.02    0.72
    36  FOCKY   ................      0.08   26.23             0.00   13.20             0.08   25.42
    36  FOCKTR  ................      0.00    0.45             0.00    4.70             0.00    0.71
    36  SDIIS   ................      0.00    0.50             0.00    3.26             0.00    0.82
     5  TOTEN   ................      0.13    5.88             0.00    3.80             0.14    5.77
     5  POPAN   ................      0.00    0.07             0.00    0.36             0.00    0.10
     5  DEBYE   ................      0.00    0.10             0.00    0.54             0.00    0.10
     5  INPUTE  ................      0.00    0.00             0.00    0.00             0.00    0.01
     5  SYMORE  ................      0.00    0.04             0.00    0.18             0.00    0.04
     9  ELNRGY  ................      0.03    2.16             0.00    0.90             0.03    2.09
     4  ENGRAD  ................      0.00    0.04             0.00    0.00             0.00    0.04
     1  COREPS  ................      0.07    0.59             0.00    0.72             0.07    0.59
     1  METS    ................      0.00    0.01             0.00    0.00             0.00    0.01
     1  CETS    ................      0.00    0.02             0.00    0.18             0.00    0.03
     1  POPUL   ................      0.00    0.04             0.00    0.00             0.00    0.03
     1  ENHESS  ................      6.24   55.53             0.29   51.90             6.59   55.30
     1  EXIT PROCEDURE .........      0.02    0.17             0.00    0.36             0.02    0.18


 Currently Open Files (EXIT00)
 ====================

 Unit    Access Format  Status   Type       Ident (file)
 -------------------------------------------------------
   3      SEQ    FORM   TRANSP  NORMAL      LOGFILE
                                          ( logfile )


 Buffered I/O statistics
 =======================
 Memory available:                     67108864
 Number of records fitting in memory:     16131
 Input :   0.3% of                       271948  *4k bytes
 Output:   8.3% of                        13344  *4k bytes
 Records from serial files evicted:           0
                    others evicted:           0
 Hash table lookups:     724959 with          0 conflicts (  0.00%)

 ***************************************************************************************************
 (LOGFILE)
 <Apr18-2019> <22:12:11>  ADF development version  RunTime: Apr18-2019 22:12:11  Nodes: 1  Procs: 1
 <Apr18-2019> <22:12:11>  Hydrogen (TZ2P)
 <Apr18-2019> <22:12:11>  RunType   : CREATE
 <Apr18-2019> <22:12:11>  Net Charge: 0 (Nuclei minus Electrons)
 <Apr18-2019> <22:12:11>  Symmetry  : ATOM
  Coordinates
    Atom         X           Y           Z   (Angstrom)
    1.H         0.000000    0.000000    0.000000
 <Apr18-2019> <22:12:11>  >>>> CORORT
 <Apr18-2019> <22:12:11>  >>>> CLSMAT
 <Apr18-2019> <22:12:11>  >>>> ORTHON
 <Apr18-2019> <22:12:11>  >>>> GENPT
 <Apr18-2019> <22:12:11>  Block Length=  64
 <Apr18-2019> <22:12:11>  >>>> PTBAS
 <Apr18-2019> <22:12:11>  >>>> CYCLE
 <Apr18-2019> <22:12:11>              |Error|         MaxErr       Wt(A-DIIS)
 <Apr18-2019> <22:12:11>      1      0.00000000      0.00000000
 <Apr18-2019> <22:12:11>      2      0.03052616      0.02968253
 <Apr18-2019> <22:12:11>      3      0.00718306      0.00671215    100.0
 <Apr18-2019> <22:12:11>      4      0.00117509      0.00114306      0.1
 <Apr18-2019> <22:12:11>      5      0.00002753      0.00002354      0.0
 <Apr18-2019> <22:12:11>      6      0.00000151      0.00000129      0.0
 <Apr18-2019> <22:12:11>      7      0.00000000      0.00000000      0.0
 <Apr18-2019> <22:12:12>  SCF converged
 <Apr18-2019> <22:12:12>      8      0.00000000      0.00000000      0.0
 <Apr18-2019> <22:12:12>  >>>> POPAN
 <Apr18-2019> <22:12:12>  >>>> DEBYE
 <Apr18-2019> <22:12:12>  NORMAL TERMINATION
 <Apr18-2019> <22:12:12>  END
 <Apr18-2019> <22:12:12>  ADF development version  RunTime: Apr18-2019 22:12:12  Nodes: 1  Procs: 1
 <Apr18-2019> <22:12:12>  Nitrogen (TZ2P)
 <Apr18-2019> <22:12:12>  RunType   : CREATE
 <Apr18-2019> <22:12:12>  Net Charge: 0 (Nuclei minus Electrons)
 <Apr18-2019> <22:12:12>  Symmetry  : ATOM
  Coordinates
    Atom         X           Y           Z   (Angstrom)
    1.N         0.000000    0.000000    0.000000
 <Apr18-2019> <22:12:12>  >>>> CORORT
 <Apr18-2019> <22:12:12>  >>>> CLSMAT
 <Apr18-2019> <22:12:12>  >>>> ORTHON
 <Apr18-2019> <22:12:12>  >>>> GENPT
 <Apr18-2019> <22:12:12>  Block Length=  72
 <Apr18-2019> <22:12:12>  >>>> PTBAS
 <Apr18-2019> <22:12:12>  >>>> CYCLE
 <Apr18-2019> <22:12:12>              |Error|         MaxErr       Wt(A-DIIS)
 <Apr18-2019> <22:12:12>      1      0.00000000      0.00000000
 <Apr18-2019> <22:12:12>      2      6.45136737      4.21970309    100.0
 <Apr18-2019> <22:12:12>      3      2.48151769      1.95479559    100.0
 <Apr18-2019> <22:12:12>      4      0.97037111      0.64106549    100.0
 <Apr18-2019> <22:12:12>      5      0.83103458      0.57851138    100.0
 <Apr18-2019> <22:12:12>      6      0.05965521      0.03113872     30.4
 <Apr18-2019> <22:12:12>      7      0.02772165      0.01840468     17.6
 <Apr18-2019> <22:12:12>      8      0.00449923      0.00308126      2.1
 <Apr18-2019> <22:12:12>      9      0.00001936      0.00001211      0.0
 <Apr18-2019> <22:12:12>     10      0.00000184      0.00000123      0.0
 <Apr18-2019> <22:12:12>     11      0.00000005      0.00000003      0.0
 <Apr18-2019> <22:12:12>     12      0.00000000      0.00000000      0.0
 <Apr18-2019> <22:12:12>  SCF converged
 <Apr18-2019> <22:12:12>     13      0.00000000      0.00000000      0.0
 <Apr18-2019> <22:12:12>  >>>> POPAN
 <Apr18-2019> <22:12:12>  >>>> DEBYE
 <Apr18-2019> <22:12:12>  NORMAL TERMINATION
 <Apr18-2019> <22:12:12>  END
 <Apr18-2019> <22:12:12>  ADF development version  RunTime: Apr18-2019 22:12:12  Nodes: 1  Procs: 12
 <Apr18-2019> <22:12:13>  *** (NO TITLE) ***
 <Apr18-2019> <22:12:13>  RunType   : GEOMETRY OPTIMIZATION
 <Apr18-2019> <22:12:13>  Net Charge: 0 (Nuclei minus Electrons)
 <Apr18-2019> <22:12:13>  Symmetry  : NOSYM
 <Apr18-2019> <22:12:13>  >>>> FRAGM
  Coordinates in Geometry Cycle 1
    Atom         X           Y           Z   (Angstrom)
    1.N        -1.978157   -1.779057    0.379674
    2.H        -1.743799   -2.782044    0.552584
    3.H        -2.466982   -1.432955    1.235283
    4.H        -2.679544   -1.763511   -0.394031
 <Apr18-2019> <22:12:13>  >>>> CORORT
 <Apr18-2019> <22:12:13>  >>>> CLSMAT
 <Apr18-2019> <22:12:13>  >>>> ORTHON
 <Apr18-2019> <22:12:13>  >>>> GENPT
 <Apr18-2019> <22:12:13>  Block Length= 128
 <Apr18-2019> <22:12:13>  >>>> PTBAS
 <Apr18-2019> <22:12:13>  >>>> CYCLE
 <Apr18-2019> <22:12:13>              |Error|         MaxErr       Wt(A-DIIS)
 <Apr18-2019> <22:12:13>      1      2.41809861      0.97235644
 <Apr18-2019> <22:12:13>      2      0.83999095      0.21485758    100.0
 <Apr18-2019> <22:12:13>      3      0.08176423      0.02427962    100.0
 <Apr18-2019> <22:12:13>      4      0.11590234      0.03257305    100.0
 <Apr18-2019> <22:12:13>      5      0.02134664      0.00619515      5.2
 <Apr18-2019> <22:12:14>      6      0.00332387      0.00077493      0.0
 <Apr18-2019> <22:12:14>      7      0.00028256      0.00005746      0.0
 <Apr18-2019> <22:12:14>      8      0.00000744      0.00000132      0.0
 <Apr18-2019> <22:12:14>      9      0.00000103      0.00000020      0.0
 <Apr18-2019> <22:12:14>  SCF converged
 <Apr18-2019> <22:12:14>     10      0.00000007      0.00000001      0.0
 <Apr18-2019> <22:12:14>  >>>> TOTEN
 <Apr18-2019> <22:12:14>  >>>> POPAN
 <Apr18-2019> <22:12:14>  >>>> DEBYE
 <Apr18-2019> <22:12:14>  >>>> ENGRAD
 <Apr18-2019> <22:12:14>  current energy                               -0.71037767 Hartree
 <Apr18-2019> <22:12:14>  energy change                      -0.71037767     0.00010000    F
 <Apr18-2019> <22:12:14>  constrained gradient max            0.03056855     0.00010000    F
 <Apr18-2019> <22:12:14>  constrained gradient rms            0.01817857     0.00006667    F
 <Apr18-2019> <22:12:14>  gradient max                        0.03056855
 <Apr18-2019> <22:12:14>  gradient rms                        0.01817857
 <Apr18-2019> <22:12:14>  cart. step max                      0.02457364     0.01000000    F
 <Apr18-2019> <22:12:14>  cart. step rms                      0.01375183     0.00666667    F
  Coordinates in Geometry Cycle 2
    Atom         X           Y           Z   (Angstrom)
    1.N        -1.973533   -1.775977    0.378440
    2.H        -1.760907   -2.760843    0.550522
    3.H        -2.463730   -1.449751    1.214004
    4.H        -2.670313   -1.770996   -0.369457
 <Apr18-2019> <22:12:14>  >>>> CORORT
 <Apr18-2019> <22:12:14>  >>>> CLSMAT
 <Apr18-2019> <22:12:14>  >>>> ORTHON
 <Apr18-2019> <22:12:14>  >>>> GENPT
 <Apr18-2019> <22:12:14>  Block Length= 128
 <Apr18-2019> <22:12:14>  >>>> PTBAS
 <Apr18-2019> <22:12:14>  >>>> CYCLE
 <Apr18-2019> <22:12:14>              |Error|         MaxErr       Wt(A-DIIS)
 <Apr18-2019> <22:12:14>      1      0.06685902      0.02807570
 <Apr18-2019> <22:12:14>      2      0.01475525      0.00382577    100.0
 <Apr18-2019> <22:12:14>      3      0.00787138      0.00176417    100.0
 <Apr18-2019> <22:12:15>      4      0.01081426      0.00273992    100.0
 <Apr18-2019> <22:12:15>      5      0.00224563      0.00043675      0.0
 <Apr18-2019> <22:12:15>      6      0.00028252      0.00006943      0.0
 <Apr18-2019> <22:12:15>      7      0.00000858      0.00000214      0.0
 <Apr18-2019> <22:12:15>      8      0.00000049      0.00000011      0.0
 <Apr18-2019> <22:12:15>  SCF converged
 <Apr18-2019> <22:12:15>      9      0.00000009      0.00000002      0.0
 <Apr18-2019> <22:12:15>  >>>> TOTEN
 <Apr18-2019> <22:12:15>  >>>> POPAN
 <Apr18-2019> <22:12:15>  >>>> DEBYE
 <Apr18-2019> <22:12:15>  >>>> ENGRAD
 <Apr18-2019> <22:12:15>  current energy                               -0.71148805 Hartree
 <Apr18-2019> <22:12:15>  energy change                      -0.00111038     0.00010000    F
 <Apr18-2019> <22:12:15>  constrained gradient max            0.00320178     0.00010000    F
 <Apr18-2019> <22:12:15>  constrained gradient rms            0.00151121     0.00006667    F
 <Apr18-2019> <22:12:15>  gradient max                        0.00320178
 <Apr18-2019> <22:12:15>  gradient rms                        0.00151121
 <Apr18-2019> <22:12:15>  cart. step max                      0.00644022     0.01000000    T
 <Apr18-2019> <22:12:15>  cart. step rms                      0.00337570     0.00666667    T
  Coordinates in Geometry Cycle 3
    Atom         X           Y           Z   (Angstrom)
    1.N        -1.979973   -1.780301    0.380155
    2.H        -1.756436   -2.762869    0.550358
    3.H        -2.462280   -1.445865    1.216748
    4.H        -2.669794   -1.768532   -0.373751
 <Apr18-2019> <22:12:15>  >>>> CORORT
 <Apr18-2019> <22:12:15>  >>>> CLSMAT
 <Apr18-2019> <22:12:15>  >>>> ORTHON
 <Apr18-2019> <22:12:15>  >>>> GENPT
 <Apr18-2019> <22:12:15>  Block Length= 128
 <Apr18-2019> <22:12:15>  >>>> PTBAS
 <Apr18-2019> <22:12:15>  >>>> CYCLE
 <Apr18-2019> <22:12:15>              |Error|         MaxErr       Wt(A-DIIS)
 <Apr18-2019> <22:12:15>      1      0.01318993      0.00478745
 <Apr18-2019> <22:12:15>      2      0.00383268      0.00088498    100.0
 <Apr18-2019> <22:12:16>      3      0.00248032      0.00059317    100.0
 <Apr18-2019> <22:12:16>      4      0.00198317      0.00039251      0.0
 <Apr18-2019> <22:12:16>      5      0.00010464      0.00002451      0.0
 <Apr18-2019> <22:12:16>      6      0.00000225      0.00000057      0.0
 <Apr18-2019> <22:12:16>  SCF converged
 <Apr18-2019> <22:12:16>      7      0.00000037      0.00000011      0.0
 <Apr18-2019> <22:12:16>  >>>> TOTEN
 <Apr18-2019> <22:12:16>  >>>> POPAN
 <Apr18-2019> <22:12:16>  >>>> DEBYE
 <Apr18-2019> <22:12:16>  >>>> ENGRAD
 <Apr18-2019> <22:12:16>  current energy                               -0.71151842 Hartree
 <Apr18-2019> <22:12:16>  energy change                      -0.00003037     0.00010000    T
 <Apr18-2019> <22:12:16>  constrained gradient max            0.00090468     0.00010000    F
 <Apr18-2019> <22:12:16>  constrained gradient rms            0.00037107     0.00006667    F
 <Apr18-2019> <22:12:16>  gradient max                        0.00090468
 <Apr18-2019> <22:12:16>  gradient rms                        0.00037107
 <Apr18-2019> <22:12:16>  cart. step max                      0.00174299     0.01000000    T
 <Apr18-2019> <22:12:16>  cart. step rms                      0.00081851     0.00666667    T
  Coordinates in Geometry Cycle 4
    Atom         X           Y           Z   (Angstrom)
    1.N        -1.981716   -1.781461    0.380629
    2.H        -1.755409   -2.763128    0.550261
    3.H        -2.461831   -1.445005    1.217232
    4.H        -2.669526   -1.767973   -0.374613
 <Apr18-2019> <22:12:16>  >>>> CORORT
 <Apr18-2019> <22:12:16>  >>>> CLSMAT
 <Apr18-2019> <22:12:16>  >>>> ORTHON
 <Apr18-2019> <22:12:16>  >>>> GENPT
 <Apr18-2019> <22:12:16>  Block Length= 128
 <Apr18-2019> <22:12:16>  >>>> PTBAS
 <Apr18-2019> <22:12:16>  >>>> CYCLE
 <Apr18-2019> <22:12:16>              |Error|         MaxErr       Wt(A-DIIS)
 <Apr18-2019> <22:12:16>      1      0.00382007      0.00152256
 <Apr18-2019> <22:12:16>      2      0.00108810      0.00022861    100.0
 <Apr18-2019> <22:12:16>      3      0.00065777      0.00015260    100.0
 <Apr18-2019> <22:12:17>      4      0.00066379      0.00015252      0.0
 <Apr18-2019> <22:12:17>      5      0.00003139      0.00000776      0.0
 <Apr18-2019> <22:12:17>      6      0.00000043      0.00000015      0.0
 <Apr18-2019> <22:12:17>  SCF converged
 <Apr18-2019> <22:12:17>      7      0.00000006      0.00000001      0.0
 <Apr18-2019> <22:12:17>  >>>> TOTEN
 <Apr18-2019> <22:12:17>  >>>> POPAN
 <Apr18-2019> <22:12:17>  >>>> DEBYE
 <Apr18-2019> <22:12:17>  >>>> ENGRAD
 <Apr18-2019> <22:12:17>  current energy                               -0.71151832 Hartree
 <Apr18-2019> <22:12:17>  energy change                       0.00000010     0.00010000    T
 <Apr18-2019> <22:12:17>  constrained gradient max            0.00001294     0.00010000    T
 <Apr18-2019> <22:12:17>  constrained gradient rms            0.00000844     0.00006667    T
 <Apr18-2019> <22:12:17>  gradient max                        0.00001294
 <Apr18-2019> <22:12:17>  gradient rms                        0.00000844
 <Apr18-2019> <22:12:17>  cart. step max                      0.00003066     0.01000000    T
 <Apr18-2019> <22:12:17>  cart. step rms                      0.00001771     0.00666667    T
 <Apr18-2019> <22:12:17>  GEOMETRY CONVERGED
 <Apr18-2019> <22:12:17>  Calculating Energy Terms for Final Geometry
  Coordinates in Geometry Cycle 4
    Atom         X           Y           Z   (Angstrom)
    1.N        -1.981716   -1.781461    0.380629
    2.H        -1.755409   -2.763128    0.550261
    3.H        -2.461831   -1.445005    1.217232
    4.H        -2.669526   -1.767973   -0.374613
 <Apr18-2019> <22:12:17>  >>>> CORORT
 <Apr18-2019> <22:12:17>  >>>> CLSMAT
 <Apr18-2019> <22:12:17>  >>>> ORTHON
 <Apr18-2019> <22:12:17>  >>>> GENPT
 <Apr18-2019> <22:12:17>  Block Length= 128
 <Apr18-2019> <22:12:17>  >>>> PTBAS
 <Apr18-2019> <22:12:17>  >>>> CYCLE
 <Apr18-2019> <22:12:17>              |Error|         MaxErr       Wt(A-DIIS)
 <Apr18-2019> <22:12:17>      1      0.00000002      0.00000001
 <Apr18-2019> <22:12:17>      2      0.00000002      0.00000001    100.0
 <Apr18-2019> <22:12:17>  SCF converged
 <Apr18-2019> <22:12:17>      3      0.00000002      0.00000001    100.0
 <Apr18-2019> <22:12:17>  >>>> TOTEN
 <Apr18-2019> <22:12:18>  >>>> POPAN
 <Apr18-2019> <22:12:18>  >>>> DEBYE
 <Apr18-2019> <22:12:18>  >>>> AMETS
 <Apr18-2019> <22:12:18>  >>>> POPUL
 <Apr18-2019> <22:12:18>   Bond Energy          -0.71151832 a.u.
 <Apr18-2019> <22:12:18>   Bond Energy         -19.36139853 eV
 <Apr18-2019> <22:12:18>   Bond Energy        -446.48       kcal/mol
 <Apr18-2019> <22:12:18>  >>>> ENHESS
 <Apr18-2019> <22:12:18>  === NUCLEUS:     1
 <Apr18-2019> <22:12:19>  === NUCLEUS:     2
 <Apr18-2019> <22:12:21>  === NUCLEUS:     3
 <Apr18-2019> <22:12:22>  === NUCLEUS:     4
 <Apr18-2019> <22:12:24>  >>>> CALC_HESS_PMAT
 <Apr18-2019> <22:12:24>  >>>> CALC_HESS_WMAT
 <Apr18-2019> <22:12:24>  NORMAL TERMINATION
 <Apr18-2019> <22:12:24>  END
