
Create F   file=TZ2P-F
XC
  GGA blyp
  DISPERSION Grimme3 BJDAMP
End
End Input

 *******************************************************************************
 *                                                                             *
 *  -------------------------------------                                      *
 *   Amsterdam Density Functional  (ADF)         development version           *
 *  -------------------------------------                                      *
 *                                               r61132 2017-09-08             *
 *                                                                             *
 *                                                                             *
 *                              =================                              *
 *                              |               |                              *
 *                              |     A D F     |                              *
 *                              |               |                              *
 *                              =================                              *
 *                                                                             *
 *                                                                             *
 *   Online information and documentation:  https://www.scm.com/support/       *
 *   E-mail:  support@scm.com   info@scm.com                                   *
 *                                                                             *
 *   Scientific publications using ADF results must be properly referenced     *
 *   See the User Manuals (or the web site) for recommended citations          *
 *   The terms and conditions of the End User License Agreement apply to       *
 *   the use of ADF, https://www.scm.com/license-terms/                        *
 *                                                                             *
 **********************  x86_64_linux_intel / intelmpi  ************************
 
 Licensed to: VU/FEW (+ SARA) / ALGEMEEN / Amsterdam / THE NETHERLANDS
 SCM User ID: u7668
  
 ADF development version  RunTime: Apr18-2019 13:58:45  Nodes: 1  Procs: 1

 Temporary files are created in /local/datastore0/tcst25/186702/kid_0.5bATov

 Fluorine (TZ2P)



 ===========================
 A T T A C H E D   F I L E S
 ===========================
  
 CREATE - Data File:    TZ2P-F
                        Fluorine (TZ2P)



 ===============================
 M O D E L   P A R A M E T E R S
 ===============================
  
 DENSITY FUNCTIONAL POTENTIAL (scf)
    LDA:                               Exchange only                           == Not Default ==
    Gradient Corrections:              Becke88 LYP                             == Not Default ==

 SPIN  (restricted / unrestr.)
    Molecule:                          Restricted                               

 OTHER ASPECTS
    Relativistic Corrections:          ---                                      

    Nuclear Charge Density Model:      Point Charge Nuclei                      
    Core Treatment:                    Frozen Orbital(s)                        

    Hyperfine or Zeeman Interaction:   ---                                      

 Settings for Grimme 3 dispersion correction

      damping                        BJ
      s6                          1.000
      a1                          0.430
      s8                          2.700
      a2                          4.236

 Other (technical) parameters

      alpha                      14.000
      version                         4
 



 =====================================
 S Y M M E T R Y ,   E L E C T R O N S
 =====================================
  
 Symmetry: ATOM

 Irreducible Representations, including subspecies
 -------------------------------------------------
 S
 P:x  P:y  P:z
 D:z2  D:x2-y2  D:xy  D:xz  D:yz
 F:z3  F:z  F:xyz  F:z2x  F:z2y  F:x  F:y


 Configuration of Valence Electrons
 ==================================

          Occupation Numbers
          -------------------------------------------------
 S        2*2
 P        5
 D        0
 F        0
          -------------------------------------------------

 Total:   9

 Net Charge: 0 (Nuclei minus Electrons)

 Preset values for MO occupations will be applied through SCF cycle no. 1000000
 Thereafter, the program will assign electrons to MOs that are spatially
 similar to the occupied MOs in a "reference" cycle ("KeepOrbitals").
 The reference cycle is always the PREVIOUS cycle: it will evolve with
 the SCF procedure.



 ================================
 (Slater-type)  F U N C T I O N S  ***  (Basis and Fit)  ***
 ================================
  

 Atom Type    1  (F)
 ==============

 Valence Basis Sets:  10
 -----------------------
   1 S   10.880000
   1 S    7.700000
   2 S    3.240000
   2 S    1.940000
   2 S    0.740000
   2 P    4.540000
   2 P    2.300000
   2 P    1.240000
   3 D    2.000000
   4 F    3.000000


 BAS: List of all Elementary Cartesian Basis Functions
 =====================================================

 The numbering in the list below (to the right of the function characteristics) is referred
 to in print-outs of MO eigenvectors and Mulliken populations in the BAS representation
 (as contrasted to the SFO representation).

 Notes:
 1. The functions are characterized by a polynomial prefactor (powers of x,y,z and r) and
    an exponential decay factor alpha.
 2. Since the basis sets are specific for an atom TYPE, the individual functions occur on
    all atoms of that type.
 3. The word 'Core' in the left margin signals that it is a Core Function (CF) : not a
    degree of freedom in the valence set, but only used to ensure orthogonalization of
    the other valence basis functions on the frozen Core Orbitals.


 (power of) X  Y  Z  R     Alpha  on Atom
            ==========     =====     ==========

 F                                    1
                                  ---------------------------------------------------------------------------
            0  0  0  0    10.880      1
            0  0  0  0     7.700      2
            0  0  0  1     3.240      3
            0  0  0  1     1.940      4
            0  0  0  1     0.740      5
            1  0  0  0     4.540      6
            0  1  0  0     4.540      7
            0  0  1  0     4.540      8
            1  0  0  0     2.300      9
            0  1  0  0     2.300     10
            0  0  1  0     2.300     11
            1  0  0  0     1.240     12
            0  1  0  0     1.240     13
            0  0  1  0     1.240     14
            2  0  0  0     2.000     15
            1  1  0  0     2.000     16
            1  0  1  0     2.000     17
            0  2  0  0     2.000     18
            0  1  1  0     2.000     19
            0  0  2  0     2.000     20
            3  0  0  0     3.000     21
            2  1  0  0     3.000     22
            2  0  1  0     3.000     23
            1  2  0  0     3.000     24
            1  1  1  0     3.000     25
            1  0  2  0     3.000     26
            0  3  0  0     3.000     27
            0  2  1  0     3.000     28
            0  1  2  0     3.000     29
            0  0  3  0     3.000     30

 Total number of charge fitting functions (nprimf)        85
 Total number of Cartesian basis functions (naos)         30
 Total number of Cartesian core functions  (ncos)          0



 BAS: List of all Elementary Cartesian Basis Functions
 =====================================================

 The numbering in the list below (to the right of the function characteristics) is referred
 to in print-outs of MO eigenvectors and Mulliken populations in the BAS representation
 (as contrasted to the SFO representation).

 Notes:
 1. The functions are characterized by a polynomial prefactor (powers of x,y,z and r) and
    an exponential decay factor alpha.
 2. Since the basis sets are specific for an atom TYPE, the individual functions occur on
    all atoms of that type.
 3. The word 'Core' in the left margin signals that it is a Core Function (CF) : not a
    degree of freedom in the valence set, but only used to ensure orthogonalization of
    the other valence basis functions on the frozen Core Orbitals.


 (power of) X  Y  Z  R     Alpha  on Atom
            ==========     =====     ==========

 F                                    1
                                  ---------------------------------------------------------------------------
            0  0  0  0    10.880      1
            0  0  0  0     7.700      2
            0  0  0  1     3.240      3
            0  0  0  1     1.940      4
            0  0  0  1     0.740      5
            1  0  0  0     4.540      6
            0  1  0  0     4.540      7
            0  0  1  0     4.540      8
            1  0  0  0     2.300      9
            0  1  0  0     2.300     10
            0  0  1  0     2.300     11
            1  0  0  0     1.240     12
            0  1  0  0     1.240     13
            0  0  1  0     1.240     14
            2  0  0  0     2.000     15
            1  1  0  0     2.000     16
            1  0  1  0     2.000     17
            0  2  0  0     2.000     18
            0  1  1  0     2.000     19
            0  0  2  0     2.000     20
            3  0  0  0     3.000     21
            2  1  0  0     3.000     22
            2  0  1  0     3.000     23
            1  2  0  0     3.000     24
            1  1  1  0     3.000     25
            1  0  2  0     3.000     26
            0  3  0  0     3.000     27
            0  2  1  0     3.000     28
            0  1  2  0     3.000     29
            0  0  3  0     3.000     30
1
 ***************************************************************************************************



                                              ***********************
                                              *  T E C H N I C A L  *
                                              ***********************
  



 =============================================================
 P A R A L L E L I Z A T I O N  and  V E C T O R I Z A T I O N
 =============================================================
  
 Nr of parallel processes:                                1
 Maximum vector length in NumInt loops:                 128

 IO buffersize (Mb):                                     64.000000



 =====================
 S C F   U P D A T E S
 =====================
  
 Max. nr. of cycles:                               300
 Convergence criterion:                              0.0000000100
   secondary criterion:                              0.0000000100

 Mix parameter (when DIIS does not apply):           0.2000000000
 Special mix parameter for the first cycle:          1.0000000000
 Mixed ADIIS+DIIS will be used
    Max number of expansion vectors:                10
    Pure ADIIS when Max([F,P]) is above              0.1000000000
    Pure DIIS when Max([F,P]) is below               0.0010000000
 Automatic ElectronSmearing (in case of problematic SCF convergence) disabled



 =================
 P R E C I S I O N  ***  (General: NumInt, NeglectFunctionTails, ...)  ***
 =================
  

 NumInt:           Target precision:                12.0000000000
 -------           Initial precision:               10.0000000000
                   Min. precision (optimization):   10.0000000000

 Neglect Functions:          Basis functions:        0.1000000000E-13
 ------------------          Fit functions:          0.1000000000E-13



 ===========================
 L I N E A R   S C A L I N G
 ===========================
  

 Cut-off radii density fit:                        0.1000000000E-97
 Overlap cut-off criterion AO matrix elements:     0.1000000000E-97
 Cut-offs for Coulomb potential and fitted density:0.1000000000E-97
 Cut-off criterion for Coulomb multipole terms:    0.1000000000E-97
 Progressive Convergence parameter:                 0.000000000    
1
 ***************************************************************************************************



                                            ***************************
                                            *  C O M P U T A T I O N  *
                                            ***************************
  

 Number of elements of the density matrix on this node (used, total):       465       465



 ===========================================
 Numerical Integration : Fuzzy Cells (Becke)
 ===========================================
  
 Becke grid quality: VERYGOOD       
  
 Lebedev angular grid order:             min:  13 max:  41
 Nr. of radial points:                   min:  76 max:  76

 Total nr. of points:         76
 Nr. of blocks:                1
 Block length:                76
 Nr. of dummy points:          0


 Test of Precision of the Numerical Integration Grid
 ===================================================

 Integral of the Total Core Density:                   0.00000000000000



 ========================
 Density Fitting (zlmFit)
 ========================
  
 ZlmFit Fit Quality: VERYGOOD       
  
 Max L-expansion:                        min:   0 max:   0
 Nr. of radial interpolation points:     min: 170 max: 170



 =====
 S C F  ***  ScaSCF  ***
 =====
  

 CYCLE    1
 SCF Error: norm([F,P])=      0.000000000000, max([F,P])=      0.000000000000
 orbitals (Q,E):
 ---------------
 S :1...5            ( 2.00   -40.4878)  ( 2.00   -10.0106)  ( 0.00    -4.4145)  ( 0.00    -2.1243)
                     ( 0.00    34.3132)
 P :1...3            ( 5.00   -10.1248)  ( 0.00    -4.4262)  ( 0.00    -2.4124)
 D :1...1            ( 0.00    -4.0000)
 F :1...1            ( 0.00    -2.2500)

 CYCLE    2
  SDIIS (wt  0.000):  1.0000 -0.0000
 A-DIIS (wt  1.000):  0.0000  1.0000
  DIIS coefficients:  0.0000  1.0000
 SCF Error: norm([F,P])=     11.373794780581, max([F,P])=      4.777759414031
 orbitals (Q,E):
 ---------------
 S :1...3            ( 2.00   -18.8794)  ( 2.00    -0.0304)  ( 0.00     0.3093)
 P :1...2            ( 5.00     0.3553)  ( 0.00     1.5643)
 D :1...1            ( 0.00     1.6494)
 F :1...1            ( 0.00     4.0453)

 CYCLE    3
  SDIIS (wt  0.000):  0.2302  0.7698
 A-DIIS (wt  1.000):  0.4427  0.5573
  DIIS coefficients:  0.4427  0.5573
 SCF Error: norm([F,P])=      5.107371177545, max([F,P])=      3.125425661947
 orbitals (Q,E):
 ---------------
 S :1...3            ( 2.00   -24.7932)  ( 2.00    -1.7827)  ( 0.00    -0.0636)
 P :1...2            ( 5.00    -1.0793)  ( 0.00     0.2021)
 D :1...1            ( 0.00     0.6865)
 F :1...1            ( 0.00     2.8888)

 CYCLE    4
  SDIIS (wt  0.000): -0.0128  0.1085  0.9043
 A-DIIS (wt  1.000):  0.0000  0.0000  1.0000
  DIIS coefficients:  0.0000  0.0000  1.0000
 SCF Error: norm([F,P])=      0.965884247460, max([F,P])=      0.451655557762
 orbitals (Q,E):
 ---------------
 S :1...3            ( 2.00   -23.6749)  ( 2.00    -0.7847)  ( 0.00     0.0644)
 P :1...2            ( 5.00    -0.1299)  ( 0.00     0.5762)
 D :1...1            ( 0.00     1.2513)
 F :1...1            ( 0.00     3.5825)

 CYCLE    5
  SDIIS (wt  0.000):  0.0122 -0.0391  0.5749  0.4520
 A-DIIS (wt  1.000):  0.0000  0.0000  0.6712  0.3288
  DIIS coefficients:  0.0000  0.0000  0.6712  0.3288
 SCF Error: norm([F,P])=      1.674963411166, max([F,P])=      0.825318021724
 orbitals (Q,E):
 ---------------
 S :1...3            ( 2.00   -24.3044)  ( 2.00    -1.0529)  ( 0.00     0.0313)
 P :1...2            ( 5.00    -0.3714)  ( 0.00     0.4442)
 D :1...1            ( 0.00     1.1317)
 F :1...1            ( 0.00     3.4351)

 CYCLE    6
  SDIIS (wt  0.024):  0.0029  0.0040  0.0564 -0.0876  1.0243
 A-DIIS (wt  0.976):  0.0000  0.0000  0.0000  0.0000  1.0000
  DIIS coefficients:  0.0001  0.0001  0.0013 -0.0021  1.0006
 SCF Error: norm([F,P])=      0.199607562059, max([F,P])=      0.097634841195
 orbitals (Q,E):
 ---------------
 S :1...3            ( 2.00   -24.5137)  ( 2.00    -1.1478)  ( 0.00     0.0173)
 P :1...2            ( 5.00    -0.4644)  ( 0.00     0.4071)
 D :1...1            ( 0.00     1.0935)
 F :1...1            ( 0.00     3.3875)

 CYCLE    7
  SDIIS (wt  0.000): -0.0005  0.0010  0.0222 -0.0066  0.6116  0.3724
 A-DIIS (wt  1.000):  0.0000  0.0000  0.0000  0.0000  0.6122  0.3878
  DIIS coefficients:  0.0000  0.0000  0.0000  0.0000  0.6122  0.3878
 SCF Error: norm([F,P])=      0.266507541610, max([F,P])=      0.126514736478
 orbitals (Q,E):
 ---------------
 S :1...3            ( 2.00   -24.3946)  ( 2.00    -1.0985)  ( 0.00     0.0225)
 P :1...2            ( 5.00    -0.4159)  ( 0.00     0.4255)
 D :1...1            ( 0.00     1.1136)
 F :1...1            ( 0.00     3.4123)

 CYCLE    8
  SDIIS (wt  0.859):  0.0000 -0.0000 -0.0010  0.0023  0.0294 -0.0834  1.0527
 A-DIIS (wt  0.141):  0.0000  0.0000  0.0000  0.0000  0.0000  0.0000  1.0000
  DIIS coefficients:  0.0000 -0.0000 -0.0009  0.0020  0.0252 -0.0716  1.0453
 SCF Error: norm([F,P])=      0.030968782312, max([F,P])=      0.014981503364
 orbitals (Q,E):
 ---------------
 S :1...3            ( 2.00   -24.3770)  ( 2.00    -1.0904)  ( 0.00     0.0233)
 P :1...2            ( 5.00    -0.4080)  ( 0.00     0.4287)
 D :1...1            ( 0.00     1.1172)
 F :1...1            ( 0.00     3.4167)

 CYCLE    9
  SDIIS (wt  0.981): -0.0000  0.0000 -0.0001 -0.0004  0.0017  0.0154  0.0457  0.9377
 A-DIIS (wt  0.019):  0.0000  0.0000  0.0000  0.0000  0.0000  0.0000  0.0000  1.0000
  DIIS coefficients: -0.0000  0.0000 -0.0001 -0.0004  0.0017  0.0151  0.0448  0.9389
 SCF Error: norm([F,P])=      0.006059807167, max([F,P])=      0.002904332574
 orbitals (Q,E):
 ---------------
 S :1...3            ( 2.00   -24.3801)  ( 2.00    -1.0917)  ( 0.00     0.0232)
 P :1...2            ( 5.00    -0.4093)  ( 0.00     0.4282)
 D :1...1            ( 0.00     1.1167)
 F :1...1            ( 0.00     3.4160)

 CYCLE   10
  SDIIS (wt  1.000): -0.0000  0.0000  0.0000 -0.0000 -0.0005 -0.0009  1.0014
  DIIS coefficients: -0.0000  0.0000  0.0000 -0.0000 -0.0005 -0.0009  1.0014
 SCF Error: norm([F,P])=      0.000165576581, max([F,P])=      0.000079185113
 orbitals (Q,E):
 ---------------
 S :1...3            ( 2.00   -24.3800)  ( 2.00    -1.0917)  ( 0.00     0.0232)
 P :1...2            ( 5.00    -0.4092)  ( 0.00     0.4282)
 D :1...1            ( 0.00     1.1167)
 F :1...1            ( 0.00     3.4160)

 CYCLE   11
  SDIIS (wt  1.000): -0.0000  0.0000 -0.0000 -0.0003 -0.0117  1.0121
  DIIS coefficients: -0.0000  0.0000 -0.0000 -0.0003 -0.0117  1.0121
 SCF Error: norm([F,P])=      0.000000045102, max([F,P])=      0.000000021900
 orbitals (Q,E):
 ---------------
 S :1...3            ( 2.00   -24.3800)  ( 2.00    -1.0917)  ( 0.00     0.0232)
 P :1...2            ( 5.00    -0.4092)  ( 0.00     0.4282)
 D :1...1            ( 0.00     1.1167)
 F :1...1            ( 0.00     3.4160)

 CYCLE   12
  SDIIS (wt  1.000): -0.0000  0.0075  0.9925
  DIIS coefficients: -0.0000  0.0075  0.9925
 SCF Error: norm([F,P])=      0.000000000761, max([F,P])=      0.000000000372
 orbitals (Q,E):
 ---------------
 S :1...3            ( 2.00   -24.3800)  ( 2.00    -1.0917)  ( 0.00     0.0232)
 P :1...2            ( 5.00    -0.4092)  ( 0.00     0.4282)
 D :1...1            ( 0.00     1.1167)
 F :1...1            ( 0.00     3.4160)

 SCF CONVERGED

 CYCLE   13
1
 ***************************************************************************************************



                                                *******************
                                                *  R E S U L T S  *
                                                *******************
  
 *** Setting up for NEW gradients in Focky
 *** Using FIT density in Focky

 Orbital Energies, per Irrep and Spin:
 ======================================
                        Occup              E (au)              E (eV)       Diff (eV) with prev. cycle
                        -----      --------------------        ------       --------------------------
 S
               1        2.000     -0.24380013662793E+02      -663.414              -5.70E-10
               2        2.000     -0.10916696572490E+01       -29.706              -4.11E-10
               3        0.000      0.23171521938657E-01         0.631
               4        0.000      0.15801599788495E+01        42.998
               5        0.000      0.48367571090263E+02      1316.149
 P
               1        5.000     -0.40924594303694E+00       -11.136              -3.94E-10
               2        0.000      0.42818717158446E+00        11.652
               3        0.000      0.45634501130520E+01       124.178
 D
               1        0.000      0.11166683619357E+01        30.386
 F
               1        0.000      0.34160293329535E+01        92.955


 Partially Occupied:
               1 P                -0.40924594303694E+00
  
 HOMO :        2 S                -0.10916696572490E+01
 LUMO :        3 S                 0.23171521938657E-01
  


 Orbital Energies, all Irreps
 ========================================

 Irrep        no.  (spin)   Occup              E (au)                E (eV)
 ---------------------------------------------------------------------------
 S             1             2.00       -0.24380013662793E+02      -663.4139
 S             2             2.00       -0.10916696572490E+01       -29.7058
 P             1             5.00       -0.40924594303694E+00       -11.1361
 S             3             0.00        0.23171521938657E-01         0.6305
 P             2             0.00        0.42818717158446E+00        11.6516
 D             1             0.00        0.11166683619357E+01        30.3861
 S             4             0.00        0.15801599788495E+01        42.9983
 F             1             0.00        0.34160293329535E+01        92.9549
 P             3             0.00        0.45634501130520E+01       124.1778
 S             5             0.00        0.48367571090263E+02      1316.1486


 All Electron Calculation, thus no Orbital Energies of the Core Orbitals are calculated



 =======================================
 M U L L I K E N   P O P U L A T I O N S
 =======================================
  
 The survey below gives for each atom:
 a) the total charge (Z minus electrons)
 b) the net spin polarization (nr of electrons spin-A minus spin-B)
 c) for each spin the atomic electron valence density (integrated) per L-value.

 Atom              Charge    Spin density          S         P         D         F
 ----              ------    ------------       ------    ------    ------    ------
 1 F              -0.0000                       4.0000    5.0000    0.0000    0.0000

 Populations of individual BAS functions
 ----------------------------------------
 1 F            0.5735  1.4020  1.1462  0.8789 -0.0006  0.3652  0.3652  0.3652  0.9146  0.9146
                0.9146  0.3869  0.3869  0.3869  0.0000  0.0000  0.0000  0.0000  0.0000  0.0000
                0.0000  0.0000  0.0000  0.0000  0.0000  0.0000  0.0000  0.0000  0.0000  0.0000

 Gross Charges per Atom (Z minus electrons)
 ==========================================
            -0.0000
 Net Total: -0.00000000



 =======================================================================
 Electrostatic potential at the Nuclei due to electrons and other nuclei
 =======================================================================
  
         Atom                  Potential
         ----                  ---------
     1)   F                  26.51041126
 
 
 ========================
 No memory problems found
 ========================
 
 Maximum number of active allocate calls:         447
 
 *******************************************************************************

                             A D F   E X I T
 NORMAL TERMINATION



 =================
 Timing Statistics
 =================
  
 Total Used :                     CPU=        0.50      System=        0.03     Elapsed=        0.53

 Calls  Section                     ( Mean, Percentage )
 ---------------------------------------------------------------------------------------------------
     3  ><      ................      0.00    0.20             0.00    0.00             0.00    0.15
     1  INIT    ................      0.01    1.98             0.01   55.55             0.03    4.97
     1  GEOMET  ................      0.01    1.39             0.00    7.41             0.01    1.61
     1  INPUTA  ................      0.00    0.20             0.00    0.00             0.00    0.29
     1  MAINSY  ................      0.00    0.79             0.00    7.41             0.01    1.13
     1  SYMFIT  ................      0.00    0.00             0.00    3.70             0.00    0.15
     1  CORORT  ................      0.00    0.00             0.00    0.00             0.00    0.05
     1  SYMORB  ................      0.00    0.20             0.00    0.00             0.00    0.13
     1  CLSMAT  ................      0.00    0.99             0.00    0.00             0.01    0.98
     1  ORTHON  ................      0.00    0.40             0.00    0.00             0.00    0.28
     1  GENPT   ................      0.01    2.78             0.00    0.00             0.01    2.78
     1  PTBAS   ................      0.00    0.79             0.00    0.00             0.00    0.67
    13  FOCKY   ................      0.03   75.99             0.00    7.41             0.03   72.18
    13  FOCKTR  ................      0.00    1.79             0.00    3.70             0.00    2.03
    13  SDIIS   ................      0.00    3.77             0.00    3.70             0.00    3.92
     1  COREPS  ................      0.02    4.17             0.00    3.70             0.02    4.14
     1  POPAN   ................      0.01    1.19             0.00    0.00             0.01    0.98
     1  DEBYE   ................      0.00    0.00             0.00    0.00             0.00    0.10
     1  EXIT PROCEDURE .........      0.02    3.37             0.00    7.41             0.02    3.47


 Currently Open Files (EXIT00)
 ====================

 Unit    Access Format  Status   Type       Ident (file)
 -------------------------------------------------------
   3      SEQ    FORM   TRANSP  NORMAL      LOGFILE
                                          ( logfile )


 Buffered I/O statistics
 =======================
 Memory available:                     67108864
 Number of records fitting in memory:     16131
 Input :   0.1% of                        27818  *4k bytes
 Output:  13.5% of                         1383  *4k bytes
 Records from serial files evicted:           0
                    others evicted:           0
 Hash table lookups:      71870 with          0 conflicts (  0.00%)

 ***************************************************************************************************
 (LOGFILE)
 <Apr18-2019> <13:58:45>  ADF development version  RunTime: Apr18-2019 13:58:45  Nodes: 1  Procs: 1
 <Apr18-2019> <13:58:45>  Fluorine (TZ2P)
 <Apr18-2019> <13:58:45>  RunType   : CREATE
 <Apr18-2019> <13:58:45>  Net Charge: 0 (Nuclei minus Electrons)
 <Apr18-2019> <13:58:45>  Symmetry  : ATOM
  Coordinates
    Atom         X           Y           Z   (Angstrom)
    1.F         0.000000    0.000000    0.000000
 <Apr18-2019> <13:58:45>  >>>> CORORT
 <Apr18-2019> <13:58:45>  >>>> CLSMAT
 <Apr18-2019> <13:58:45>  >>>> ORTHON
 <Apr18-2019> <13:58:45>  >>>> GENPT
 <Apr18-2019> <13:58:45>  Block Length=  76
 <Apr18-2019> <13:58:45>  >>>> PTBAS
 <Apr18-2019> <13:58:45>  >>>> CYCLE
 <Apr18-2019> <13:58:45>              |Error|         MaxErr       Wt(A-DIIS)
 <Apr18-2019> <13:58:45>      1      0.00000000      0.00000000
 <Apr18-2019> <13:58:45>      2     11.37379478      4.77775941    100.0
 <Apr18-2019> <13:58:45>      3      5.10737118      3.12542566    100.0
 <Apr18-2019> <13:58:45>      4      0.96588425      0.45165556    100.0
 <Apr18-2019> <13:58:45>      5      1.67496341      0.82531802    100.0
 <Apr18-2019> <13:58:45>      6      0.19960756      0.09763484     97.6
 <Apr18-2019> <13:58:45>      7      0.26650754      0.12651474    100.0
 <Apr18-2019> <13:58:45>      8      0.03096878      0.01498150     14.1
 <Apr18-2019> <13:58:45>      9      0.00605981      0.00290433      1.9
 <Apr18-2019> <13:58:45>     10      0.00016558      0.00007919      0.0
 <Apr18-2019> <13:58:45>     11      0.00000005      0.00000002      0.0
 <Apr18-2019> <13:58:45>     12      0.00000000      0.00000000      0.0
 <Apr18-2019> <13:58:45>  SCF converged
 <Apr18-2019> <13:58:45>     13      0.00000000      0.00000000      0.0
 <Apr18-2019> <13:58:45>  >>>> POPAN
 <Apr18-2019> <13:58:45>  >>>> DEBYE
 <Apr18-2019> <13:58:45>  NORMAL TERMINATION
 <Apr18-2019> <13:58:45>  END

Create Cl   file=TZ2P-Cl
XC
  GGA blyp
  DISPERSION Grimme3 BJDAMP
End
End Input

 *******************************************************************************
 *                                                                             *
 *  -------------------------------------                                      *
 *   Amsterdam Density Functional  (ADF)         development version           *
 *  -------------------------------------                                      *
 *                                               r61132 2017-09-08             *
 *                                                                             *
 *                                                                             *
 *                              =================                              *
 *                              |               |                              *
 *                              |     A D F     |                              *
 *                              |               |                              *
 *                              =================                              *
 *                                                                             *
 *                                                                             *
 *   Online information and documentation:  https://www.scm.com/support/       *
 *   E-mail:  support@scm.com   info@scm.com                                   *
 *                                                                             *
 *   Scientific publications using ADF results must be properly referenced     *
 *   See the User Manuals (or the web site) for recommended citations          *
 *   The terms and conditions of the End User License Agreement apply to       *
 *   the use of ADF, https://www.scm.com/license-terms/                        *
 *                                                                             *
 **********************  x86_64_linux_intel / intelmpi  ************************
 
 Licensed to: VU/FEW (+ SARA) / ALGEMEEN / Amsterdam / THE NETHERLANDS
 SCM User ID: u7668
  
 ADF development version  RunTime: Apr18-2019 13:58:45  Nodes: 1  Procs: 1

 Temporary files are created in /local/datastore0/tcst25/186702/kid_0.qJOHRc

 Chlorine (TZ2P)



 ===========================
 A T T A C H E D   F I L E S
 ===========================
  
 CREATE - Data File:    TZ2P-Cl
                        Chlorine (TZ2P)



 ===============================
 M O D E L   P A R A M E T E R S
 ===============================
  
 DENSITY FUNCTIONAL POTENTIAL (scf)
    LDA:                               Exchange only                           == Not Default ==
    Gradient Corrections:              Becke88 LYP                             == Not Default ==

 SPIN  (restricted / unrestr.)
    Molecule:                          Restricted                               

 OTHER ASPECTS
    Relativistic Corrections:          ---                                      

    Nuclear Charge Density Model:      Point Charge Nuclei                      
    Core Treatment:                    Frozen Orbital(s)                        

    Hyperfine or Zeeman Interaction:   ---                                      

 Settings for Grimme 3 dispersion correction

      damping                        BJ
      s6                          1.000
      a1                          0.430
      s8                          2.700
      a2                          4.236

 Other (technical) parameters

      alpha                      14.000
      version                         4
 



 =====================================
 S Y M M E T R Y ,   E L E C T R O N S
 =====================================
  
 Symmetry: ATOM

 Irreducible Representations, including subspecies
 -------------------------------------------------
 S
 P:x  P:y  P:z
 D:z2  D:x2-y2  D:xy  D:xz  D:yz
 F:z3  F:z  F:xyz  F:z2x  F:z2y  F:x  F:y


 Configuration of Valence Electrons
 ==================================

          Occupation Numbers
          -------------------------------------------------
 S        3*2
 P        6 5
 D        0
 F        0
          -------------------------------------------------

 Total:   17

 Net Charge: 0 (Nuclei minus Electrons)

 Preset values for MO occupations will be applied through SCF cycle no. 1000000
 Thereafter, the program will assign electrons to MOs that are spatially
 similar to the occupied MOs in a "reference" cycle ("KeepOrbitals").
 The reference cycle is always the PREVIOUS cycle: it will evolve with
 the SCF procedure.



 ================================
 (Slater-type)  F U N C T I O N S  ***  (Basis and Fit)  ***
 ================================
  

 Atom Type    1  (Cl)
 ==============

 Valence Basis Sets:  14
 -----------------------
   1 S   20.300000
   1 S   15.250000
   2 S    6.250000
   2 S    4.450000
   2 P    8.850000
   2 P    5.050000
   3 S    3.450000
   3 S    2.300000
   3 S    1.600000
   3 P    3.350000
   3 P    2.050000
   3 P    1.200000
   3 D    2.000000
   4 F    2.000000


 BAS: List of all Elementary Cartesian Basis Functions
 =====================================================

 The numbering in the list below (to the right of the function characteristics) is referred
 to in print-outs of MO eigenvectors and Mulliken populations in the BAS representation
 (as contrasted to the SFO representation).

 Notes:
 1. The functions are characterized by a polynomial prefactor (powers of x,y,z and r) and
    an exponential decay factor alpha.
 2. Since the basis sets are specific for an atom TYPE, the individual functions occur on
    all atoms of that type.
 3. The word 'Core' in the left margin signals that it is a Core Function (CF) : not a
    degree of freedom in the valence set, but only used to ensure orthogonalization of
    the other valence basis functions on the frozen Core Orbitals.


 (power of) X  Y  Z  R     Alpha  on Atom
            ==========     =====     ==========

 Cl                                   1
                                  ---------------------------------------------------------------------------
            0  0  0  0    20.300      1
            0  0  0  0    15.250      2
            0  0  0  1     6.250      3
            0  0  0  1     4.450      4
            1  0  0  0     8.850      5
            0  1  0  0     8.850      6
            0  0  1  0     8.850      7
            1  0  0  0     5.050      8
            0  1  0  0     5.050      9
            0  0  1  0     5.050     10
            0  0  0  2     3.450     11
            0  0  0  2     2.300     12
            0  0  0  2     1.600     13
            1  0  0  1     3.350     14
            0  1  0  1     3.350     15
            0  0  1  1     3.350     16
            1  0  0  1     2.050     17
            0  1  0  1     2.050     18
            0  0  1  1     2.050     19
            1  0  0  1     1.200     20
            0  1  0  1     1.200     21
            0  0  1  1     1.200     22
            2  0  0  0     2.000     23
            1  1  0  0     2.000     24
            1  0  1  0     2.000     25
            0  2  0  0     2.000     26
            0  1  1  0     2.000     27
            0  0  2  0     2.000     28
            3  0  0  0     2.000     29
            2  1  0  0     2.000     30
            2  0  1  0     2.000     31
            1  2  0  0     2.000     32
            1  1  1  0     2.000     33
            1  0  2  0     2.000     34
            0  3  0  0     2.000     35
            0  2  1  0     2.000     36
            0  1  2  0     2.000     37
            0  0  3  0     2.000     38

 Total number of charge fitting functions (nprimf)       106
 Total number of Cartesian basis functions (naos)         38
 Total number of Cartesian core functions  (ncos)          0



 BAS: List of all Elementary Cartesian Basis Functions
 =====================================================

 The numbering in the list below (to the right of the function characteristics) is referred
 to in print-outs of MO eigenvectors and Mulliken populations in the BAS representation
 (as contrasted to the SFO representation).

 Notes:
 1. The functions are characterized by a polynomial prefactor (powers of x,y,z and r) and
    an exponential decay factor alpha.
 2. Since the basis sets are specific for an atom TYPE, the individual functions occur on
    all atoms of that type.
 3. The word 'Core' in the left margin signals that it is a Core Function (CF) : not a
    degree of freedom in the valence set, but only used to ensure orthogonalization of
    the other valence basis functions on the frozen Core Orbitals.


 (power of) X  Y  Z  R     Alpha  on Atom
            ==========     =====     ==========

 Cl                                   1
                                  ---------------------------------------------------------------------------
            0  0  0  0    20.300      1
            0  0  0  0    15.250      2
            0  0  0  1     6.250      3
            0  0  0  1     4.450      4
            1  0  0  0     8.850      5
            0  1  0  0     8.850      6
            0  0  1  0     8.850      7
            1  0  0  0     5.050      8
            0  1  0  0     5.050      9
            0  0  1  0     5.050     10
            0  0  0  2     3.450     11
            0  0  0  2     2.300     12
            0  0  0  2     1.600     13
            1  0  0  1     3.350     14
            0  1  0  1     3.350     15
            0  0  1  1     3.350     16
            1  0  0  1     2.050     17
            0  1  0  1     2.050     18
            0  0  1  1     2.050     19
            1  0  0  1     1.200     20
            0  1  0  1     1.200     21
            0  0  1  1     1.200     22
            2  0  0  0     2.000     23
            1  1  0  0     2.000     24
            1  0  1  0     2.000     25
            0  2  0  0     2.000     26
            0  1  1  0     2.000     27
            0  0  2  0     2.000     28
            3  0  0  0     2.000     29
            2  1  0  0     2.000     30
            2  0  1  0     2.000     31
            1  2  0  0     2.000     32
            1  1  1  0     2.000     33
            1  0  2  0     2.000     34
            0  3  0  0     2.000     35
            0  2  1  0     2.000     36
            0  1  2  0     2.000     37
            0  0  3  0     2.000     38
1
 ***************************************************************************************************



                                              ***********************
                                              *  T E C H N I C A L  *
                                              ***********************
  



 =============================================================
 P A R A L L E L I Z A T I O N  and  V E C T O R I Z A T I O N
 =============================================================
  
 Nr of parallel processes:                                1
 Maximum vector length in NumInt loops:                 128

 IO buffersize (Mb):                                     64.000000



 =====================
 S C F   U P D A T E S
 =====================
  
 Max. nr. of cycles:                               300
 Convergence criterion:                              0.0000000100
   secondary criterion:                              0.0000000100

 Mix parameter (when DIIS does not apply):           0.2000000000
 Special mix parameter for the first cycle:          1.0000000000
 Mixed ADIIS+DIIS will be used
    Max number of expansion vectors:                10
    Pure ADIIS when Max([F,P]) is above              0.1000000000
    Pure DIIS when Max([F,P]) is below               0.0010000000
 Automatic ElectronSmearing (in case of problematic SCF convergence) disabled



 =================
 P R E C I S I O N  ***  (General: NumInt, NeglectFunctionTails, ...)  ***
 =================
  

 NumInt:           Target precision:                12.0000000000
 -------           Initial precision:               10.0000000000
                   Min. precision (optimization):   10.0000000000

 Neglect Functions:          Basis functions:        0.1000000000E-13
 ------------------          Fit functions:          0.1000000000E-13



 ===========================
 L I N E A R   S C A L I N G
 ===========================
  

 Cut-off radii density fit:                        0.1000000000E-97
 Overlap cut-off criterion AO matrix elements:     0.1000000000E-97
 Cut-offs for Coulomb potential and fitted density:0.1000000000E-97
 Cut-off criterion for Coulomb multipole terms:    0.1000000000E-97
 Progressive Convergence parameter:                 0.000000000    
1
 ***************************************************************************************************



                                            ***************************
                                            *  C O M P U T A T I O N  *
                                            ***************************
  

 Number of elements of the density matrix on this node (used, total):       741       741



 ===========================================
 Numerical Integration : Fuzzy Cells (Becke)
 ===========================================
  
 Becke grid quality: VERYGOOD       
  
 Lebedev angular grid order:             min:  13 max:  41
 Nr. of radial points:                   min:  93 max:  93

 Total nr. of points:         93
 Nr. of blocks:                1
 Block length:                93
 Nr. of dummy points:          0


 Test of Precision of the Numerical Integration Grid
 ===================================================

 Integral of the Total Core Density:                   0.00000000000000



 ========================
 Density Fitting (zlmFit)
 ========================
  
 ZlmFit Fit Quality: VERYGOOD       
  
 Max L-expansion:                        min:   0 max:   0
 Nr. of radial interpolation points:     min: 200 max: 200



 =====
 S C F  ***  ScaSCF  ***
 =====
  

 CYCLE    1
 SCF Error: norm([F,P])=      0.000000000000, max([F,P])=      0.000000000000
 orbitals (Q,E):
 ---------------
 S :1...7            ( 2.00  -144.4893)  ( 2.00   -36.0966)  ( 2.00   -16.0338)  ( 0.00    -8.9253)
                     ( 0.00    -5.5262)  ( 0.00    -3.6296)  ( 0.00   175.9783)
 P :1...5            ( 6.00   -36.1179)  ( 5.00   -15.7666)  ( 0.00    -8.4199)  ( 0.00    -4.8064)
                     ( 0.00    -2.9092)
 D :1...1            ( 0.00    -9.3333)
 F :1...1            ( 0.00    -6.5000)

 CYCLE    2
  SDIIS (wt  0.000):  1.0000 -0.0000
 A-DIIS (wt  1.000):  0.0000  1.0000
  DIIS coefficients:  0.0000  1.0000
 SCF Error: norm([F,P])=     37.918093115371, max([F,P])=     10.754162001971
 orbitals (Q,E):
 ---------------
 S :1...4            ( 2.00   -86.3665)  ( 2.00    -3.0042)  ( 2.00     0.0879)  ( 0.00     0.9074)
 P :1...3            ( 6.00    -0.5941)  ( 5.00     0.2005)  ( 0.00     1.0624)
 D :1...1            ( 0.00     1.3908)
 F :1...1            ( 0.00     1.7118)

 CYCLE    3
  SDIIS (wt  0.000):  0.2468  0.7532
 A-DIIS (wt  1.000):  0.2184  0.7816
  DIIS coefficients:  0.2184  0.7816
 SCF Error: norm([F,P])=     20.757708249348, max([F,P])=      6.871796656039
 orbitals (Q,E):
 ---------------
 S :1...4            ( 2.00  -105.5772)  ( 2.00   -12.2185)  ( 2.00    -1.9200)  ( 0.00    -0.1982)
 P :1...3            ( 6.00   -10.2793)  ( 5.00    -1.3974)  ( 0.00    -0.0873)
 D :1...1            ( 0.00    -0.4679)
 F :1...1            ( 0.00     0.6062)

 CYCLE    4
  SDIIS (wt  0.000): -0.0788  0.1328  0.9460
 A-DIIS (wt  1.000):  0.0000  0.0000  1.0000
  DIIS coefficients:  0.0000  0.0000  1.0000
 SCF Error: norm([F,P])=      6.021405452047, max([F,P])=      2.061487593708
 orbitals (Q,E):
 ---------------
 S :1...4            ( 2.00   -97.6728)  ( 2.00    -7.4155)  ( 2.00    -0.2425)  ( 0.00     0.4293)
 P :1...3            ( 6.00    -5.1248)  ( 5.00     0.0322)  ( 0.00     0.5151)
 D :1...1            ( 0.00     0.8498)
 F :1...1            ( 0.00     1.4674)

 CYCLE    5
  SDIIS (wt  0.000): -0.0198 -0.0624  0.3895  0.6927
 A-DIIS (wt  1.000):  0.0000  0.0000  0.4691  0.5309
  DIIS coefficients:  0.0000  0.0000  0.4691  0.5309
 SCF Error: norm([F,P])=      4.122826282833, max([F,P])=      1.762338952725
 orbitals (Q,E):
 ---------------
 S :1...4            ( 2.00  -100.7640)  ( 2.00    -9.3467)  ( 2.00    -0.9097)  ( 0.00     0.1217)
 P :1...3            ( 6.00    -7.1584)  ( 5.00    -0.4570)  ( 0.00     0.1672)
 D :1...1            ( 0.00     0.2335)
 F :1...1            ( 0.00     1.0657)

 CYCLE    6
  SDIIS (wt  0.000): -0.0001 -0.0138  0.0424  0.0981  0.8734
 A-DIIS (wt  1.000):  0.0000  0.0000  0.0000  0.0000  1.0000
  DIIS coefficients:  0.0000  0.0000  0.0000  0.0000  1.0000
 SCF Error: norm([F,P])=      0.297134459880, max([F,P])=      0.111907135573
 orbitals (Q,E):
 ---------------
 S :1...4            ( 2.00  -100.6199)  ( 2.00    -9.0705)  ( 2.00    -0.6673)  ( 0.00     0.2275)
 P :1...3            ( 6.00    -6.8928)  ( 5.00    -0.2439)  ( 0.00     0.2570)
 D :1...1            ( 0.00     0.4575)
 F :1...1            ( 0.00     1.2382)

 CYCLE    7
  SDIIS (wt  0.000): -0.0002  0.0003  0.0119 -0.0199  0.3831  0.6249
 A-DIIS (wt  1.000):  0.0000  0.0000  0.0000  0.0000  0.4431  0.5569
  DIIS coefficients:  0.0000  0.0000  0.0000  0.0000  0.4431  0.5569
 SCF Error: norm([F,P])=      0.268270877863, max([F,P])=      0.112251171075
 orbitals (Q,E):
 ---------------
 S :1...4            ( 2.00  -100.8158)  ( 2.00    -9.2442)  ( 2.00    -0.7560)  ( 0.00     0.1940)
 P :1...3            ( 6.00    -7.0691)  ( 5.00    -0.3171)  ( 0.00     0.2236)
 D :1...1            ( 0.00     0.3804)
 F :1...1            ( 0.00     1.1860)

 CYCLE    8
  SDIIS (wt  0.746):  0.0001 -0.0001 -0.0028  0.0035  0.0906  0.1300  0.7787
 A-DIIS (wt  0.254):  0.0000  0.0000  0.0000  0.0000  0.0000  0.0000  1.0000
  DIIS coefficients:  0.0000 -0.0001 -0.0021  0.0026  0.0676  0.0969  0.8350
 SCF Error: norm([F,P])=      0.071559445743, max([F,P])=      0.026187079053
 orbitals (Q,E):
 ---------------
 S :1...4            ( 2.00  -100.7523)  ( 2.00    -9.2108)  ( 2.00    -0.7461)  ( 0.00     0.1973)
 P :1...3            ( 6.00    -7.0328)  ( 5.00    -0.3089)  ( 0.00     0.2267)
 D :1...1            ( 0.00     0.3881)
 F :1...1            ( 0.00     1.1908)

 CYCLE    9
  SDIIS (wt  0.957):  0.0000 -0.0000 -0.0001  0.0003  0.0037 -0.0063  0.1578  0.8445
 A-DIIS (wt  0.043):  0.0000  0.0000  0.0000  0.0000  0.0000  0.0000  0.0000  1.0000
  DIIS coefficients:  0.0000 -0.0000 -0.0001  0.0003  0.0036 -0.0060  0.1511  0.8511
 SCF Error: norm([F,P])=      0.013066268529, max([F,P])=      0.005220141314
 orbitals (Q,E):
 ---------------
 S :1...4            ( 2.00  -100.7623)  ( 2.00    -9.2169)  ( 2.00    -0.7484)  ( 0.00     0.1965)
 P :1...3            ( 6.00    -7.0393)  ( 5.00    -0.3108)  ( 0.00     0.2259)
 D :1...1            ( 0.00     0.3862)
 F :1...1            ( 0.00     1.1896)

 CYCLE   10
  SDIIS (wt  1.000):  0.0000  0.0000 -0.0000 -0.0000  0.0002  0.0011 -0.0030  0.0039  0.9977
  DIIS coefficients:  0.0000  0.0000 -0.0000 -0.0000  0.0002  0.0011 -0.0030  0.0039  0.9977
 SCF Error: norm([F,P])=      0.000485727205, max([F,P])=      0.000202934402
 orbitals (Q,E):
 ---------------
 S :1...4            ( 2.00  -100.7620)  ( 2.00    -9.2166)  ( 2.00    -0.7483)  ( 0.00     0.1965)
 P :1...3            ( 6.00    -7.0390)  ( 5.00    -0.3107)  ( 0.00     0.2259)
 D :1...1            ( 0.00     0.3863)
 F :1...1            ( 0.00     1.1896)

 CYCLE   11
  SDIIS (wt  1.000):  0.0000  0.0000  0.0000  0.0000 -0.0002 -0.0009  0.0045  0.9965
  DIIS coefficients:  0.0000  0.0000  0.0000  0.0000 -0.0002 -0.0009  0.0045  0.9965
 SCF Error: norm([F,P])=      0.000002451026, max([F,P])=      0.000000874874
 orbitals (Q,E):
 ---------------
 S :1...4            ( 2.00  -100.7620)  ( 2.00    -9.2166)  ( 2.00    -0.7483)  ( 0.00     0.1965)
 P :1...3            ( 6.00    -7.0390)  ( 5.00    -0.3107)  ( 0.00     0.2259)
 D :1...1            ( 0.00     0.3863)
 F :1...1            ( 0.00     1.1896)

 CYCLE   12
  SDIIS (wt  1.000):  0.0000  0.0000 -0.0000 -0.0000  0.0001  0.0049  0.9950
  DIIS coefficients:  0.0000  0.0000 -0.0000 -0.0000  0.0001  0.0049  0.9950
 SCF Error: norm([F,P])=      0.000000029116, max([F,P])=      0.000000011194
 orbitals (Q,E):
 ---------------
 S :1...4            ( 2.00  -100.7620)  ( 2.00    -9.2166)  ( 2.00    -0.7483)  ( 0.00     0.1965)
 P :1...3            ( 6.00    -7.0390)  ( 5.00    -0.3107)  ( 0.00     0.2259)
 D :1...1            ( 0.00     0.3863)
 F :1...1            ( 0.00     1.1896)

 CYCLE   13
  SDIIS (wt  1.000):  0.0000 -0.0004  0.0111  0.9893
  DIIS coefficients:  0.0000 -0.0004  0.0111  0.9893
 SCF Error: norm([F,P])=      0.000000001290, max([F,P])=      0.000000000495
 orbitals (Q,E):
 ---------------
 S :1...4            ( 2.00  -100.7620)  ( 2.00    -9.2166)  ( 2.00    -0.7483)  ( 0.00     0.1965)
 P :1...3            ( 6.00    -7.0390)  ( 5.00    -0.3107)  ( 0.00     0.2259)
 D :1...1            ( 0.00     0.3863)
 F :1...1            ( 0.00     1.1896)

 SCF CONVERGED

 CYCLE   14
1
 ***************************************************************************************************



                                                *******************
                                                *  R E S U L T S  *
                                                *******************
  
 *** Setting up for NEW gradients in Focky
 *** Using FIT density in Focky

 Orbital Energies, per Irrep and Spin:
 ======================================
                        Occup              E (au)              E (eV)       Diff (eV) with prev. cycle
                        -----      --------------------        ------       --------------------------
 S
               1        2.000     -0.10076196025470E+03     -2741.872               4.83E-10
               2        2.000     -0.92166234791376E+01      -250.797               4.96E-10
               3        2.000     -0.74829309878317E+00       -20.362               4.12E-10
               4        0.000      0.19650378945431E+00         5.347
               5        0.000      0.20105214794381E+01        54.709
               6        0.000      0.12737820956871E+02       346.614
               7        0.000      0.21467502602048E+03      5841.605
 P
               1        6.000     -0.70390087591571E+01      -191.541               4.92E-10
               2        5.000     -0.31074821072056E+00        -8.456               3.59E-10
               3        0.000      0.22590803353600E+00         6.147
               4        0.000      0.21023976914888E+01        57.209
               5        0.000      0.18828233069566E+02       512.342
 D
               1        0.000      0.38627333037828E+00        10.511
 F
               1        0.000      0.11896264283968E+01        32.371


 Partially Occupied:
               2 P                -0.31074821072056E+00
  
 HOMO :        3 S                -0.74829309878317E+00
 LUMO :        4 S                 0.19650378945431E+00
  


 Orbital Energies, all Irreps
 ========================================

 Irrep        no.  (spin)   Occup              E (au)                E (eV)
 ---------------------------------------------------------------------------
 S             1             2.00       -0.10076196025470E+03     -2741.8724
 S             2             2.00       -0.92166234791376E+01      -250.7971
 P             1             6.00       -0.70390087591571E+01      -191.5412
 S             3             2.00       -0.74829309878317E+00       -20.3621
 P             2             5.00       -0.31074821072056E+00        -8.4559
 S             4             0.00        0.19650378945431E+00         5.3471
 P             3             0.00        0.22590803353600E+00         6.1473
 D             1             0.00        0.38627333037828E+00        10.5110
 F             1             0.00        0.11896264283968E+01        32.3714
 S             5             0.00        0.20105214794381E+01        54.7091
 P             4             0.00        0.21023976914888E+01        57.2092
 S             6             0.00        0.12737820956871E+02       346.6137
 P             5             0.00        0.18828233069566E+02       512.3423
 S             7             0.00        0.21467502602048E+03      5841.6047


 All Electron Calculation, thus no Orbital Energies of the Core Orbitals are calculated



 =======================================
 M U L L I K E N   P O P U L A T I O N S
 =======================================
  
 The survey below gives for each atom:
 a) the total charge (Z minus electrons)
 b) the net spin polarization (nr of electrons spin-A minus spin-B)
 c) for each spin the atomic electron valence density (integrated) per L-value.

 Atom              Charge    Spin density          S         P         D         F
 ----              ------    ------------       ------    ------    ------    ------
 1 Cl              0.0000                       6.0000   11.0000    0.0000    0.0000

 Populations of individual BAS functions
 ----------------------------------------
 1 Cl           0.5041  1.4544  1.7124  0.2493  0.7286  0.7286  0.7286  1.2681  1.2681  1.2681
                0.6256  1.0927  0.3615  0.2681  0.2681  0.2681  1.0016  1.0016  1.0016  0.4002
                0.4002  0.4002  0.0000  0.0000  0.0000  0.0000  0.0000  0.0000  0.0000  0.0000
                0.0000  0.0000  0.0000  0.0000  0.0000  0.0000  0.0000  0.0000

 Gross Charges per Atom (Z minus electrons)
 ==========================================
             0.0000
 Net Total:  0.00000000



 =======================================================================
 Electrostatic potential at the Nuclei due to electrons and other nuclei
 =======================================================================
  
         Atom                  Potential
         ----                  ---------
     1)   Cl                 64.38336388
 
 
 ========================
 No memory problems found
 ========================
 
 Maximum number of active allocate calls:         447
 
 *******************************************************************************

                             A D F   E X I T
 NORMAL TERMINATION



 =================
 Timing Statistics
 =================
  
 Total Used :                     CPU=        0.63      System=        0.03     Elapsed=        0.66

 Calls  Section                     ( Mean, Percentage )
 ---------------------------------------------------------------------------------------------------
     3  ><      ................      0.00    0.16             0.00    0.00             0.00    0.12
     1  INIT    ................      0.01    1.58             0.01   48.15             0.03    3.87
     1  GEOMET  ................      0.01    0.95             0.00   11.11             0.01    1.28
     1  INPUTA  ................      0.00    0.16             0.00    0.00             0.00    0.24
     1  MAINSY  ................      0.00    0.63             0.00    7.41             0.01    0.90
     1  SYMFIT  ................      0.00    0.00             0.00    3.70             0.00    0.12
     1  CORORT  ................      0.00    0.00             0.00    0.00             0.00    0.04
     1  SYMORB  ................      0.00    0.16             0.00    0.00             0.00    0.10
     1  CLSMAT  ................      0.01    0.79             0.00    0.00             0.01    0.79
     1  ORTHON  ................      0.00    0.32             0.00    0.00             0.00    0.23
     1  GENPT   ................      0.02    2.84             0.00    0.00             0.02    2.85
     1  PTBAS   ................      0.00    0.63             0.00    0.00             0.00    0.53
    14  FOCKY   ................      0.04   78.67             0.00   11.11             0.04   75.74
    14  FOCKTR  ................      0.00    2.05             0.00    0.00             0.00    1.84
    14  SDIIS   ................      0.00    3.32             0.00   11.11             0.00    3.54
     1  COREPS  ................      0.03    4.11             0.00    0.00             0.03    4.04
     1  POPAN   ................      0.01    0.95             0.00    0.00             0.01    0.79
     1  DEBYE   ................      0.00    0.00             0.00    0.00             0.00    0.09
     1  EXIT PROCEDURE .........      0.02    2.69             0.00    7.41             0.02    2.89


 Currently Open Files (EXIT00)
 ====================

 Unit    Access Format  Status   Type       Ident (file)
 -------------------------------------------------------
   3      SEQ    FORM   TRANSP  NORMAL      LOGFILE
                                          ( logfile )


 Buffered I/O statistics
 =======================
 Memory available:                     67108864
 Number of records fitting in memory:     16131
 Input :   0.1% of                        29192  *4k bytes
 Output:  12.9% of                         1456  *4k bytes
 Records from serial files evicted:           0
                    others evicted:           0
 Hash table lookups:      75541 with          0 conflicts (  0.00%)

 ***************************************************************************************************
 (LOGFILE)
 <Apr18-2019> <13:58:45>  ADF development version  RunTime: Apr18-2019 13:58:45  Nodes: 1  Procs: 1
 <Apr18-2019> <13:58:45>  Fluorine (TZ2P)
 <Apr18-2019> <13:58:45>  RunType   : CREATE
 <Apr18-2019> <13:58:45>  Net Charge: 0 (Nuclei minus Electrons)
 <Apr18-2019> <13:58:45>  Symmetry  : ATOM
  Coordinates
    Atom         X           Y           Z   (Angstrom)
    1.F         0.000000    0.000000    0.000000
 <Apr18-2019> <13:58:45>  >>>> CORORT
 <Apr18-2019> <13:58:45>  >>>> CLSMAT
 <Apr18-2019> <13:58:45>  >>>> ORTHON
 <Apr18-2019> <13:58:45>  >>>> GENPT
 <Apr18-2019> <13:58:45>  Block Length=  76
 <Apr18-2019> <13:58:45>  >>>> PTBAS
 <Apr18-2019> <13:58:45>  >>>> CYCLE
 <Apr18-2019> <13:58:45>              |Error|         MaxErr       Wt(A-DIIS)
 <Apr18-2019> <13:58:45>      1      0.00000000      0.00000000
 <Apr18-2019> <13:58:45>      2     11.37379478      4.77775941    100.0
 <Apr18-2019> <13:58:45>      3      5.10737118      3.12542566    100.0
 <Apr18-2019> <13:58:45>      4      0.96588425      0.45165556    100.0
 <Apr18-2019> <13:58:45>      5      1.67496341      0.82531802    100.0
 <Apr18-2019> <13:58:45>      6      0.19960756      0.09763484     97.6
 <Apr18-2019> <13:58:45>      7      0.26650754      0.12651474    100.0
 <Apr18-2019> <13:58:45>      8      0.03096878      0.01498150     14.1
 <Apr18-2019> <13:58:45>      9      0.00605981      0.00290433      1.9
 <Apr18-2019> <13:58:45>     10      0.00016558      0.00007919      0.0
 <Apr18-2019> <13:58:45>     11      0.00000005      0.00000002      0.0
 <Apr18-2019> <13:58:45>     12      0.00000000      0.00000000      0.0
 <Apr18-2019> <13:58:45>  SCF converged
 <Apr18-2019> <13:58:45>     13      0.00000000      0.00000000      0.0
 <Apr18-2019> <13:58:45>  >>>> POPAN
 <Apr18-2019> <13:58:45>  >>>> DEBYE
 <Apr18-2019> <13:58:45>  NORMAL TERMINATION
 <Apr18-2019> <13:58:45>  END
 <Apr18-2019> <13:58:45>  ADF development version  RunTime: Apr18-2019 13:58:45  Nodes: 1  Procs: 1
 <Apr18-2019> <13:58:45>  Chlorine (TZ2P)
 <Apr18-2019> <13:58:45>  RunType   : CREATE
 <Apr18-2019> <13:58:45>  Net Charge: 0 (Nuclei minus Electrons)
 <Apr18-2019> <13:58:45>  Symmetry  : ATOM
  Coordinates
    Atom         X           Y           Z   (Angstrom)
    1.Cl        0.000000    0.000000    0.000000
 <Apr18-2019> <13:58:45>  >>>> CORORT
 <Apr18-2019> <13:58:45>  >>>> CLSMAT
 <Apr18-2019> <13:58:45>  >>>> ORTHON
 <Apr18-2019> <13:58:45>  >>>> GENPT
 <Apr18-2019> <13:58:45>  Block Length=  93
 <Apr18-2019> <13:58:45>  >>>> PTBAS
 <Apr18-2019> <13:58:45>  >>>> CYCLE
 <Apr18-2019> <13:58:45>              |Error|         MaxErr       Wt(A-DIIS)
 <Apr18-2019> <13:58:45>      1      0.00000000      0.00000000
 <Apr18-2019> <13:58:45>      2     37.91809312     10.75416200    100.0
 <Apr18-2019> <13:58:45>      3     20.75770825      6.87179666    100.0
 <Apr18-2019> <13:58:46>      4      6.02140545      2.06148759    100.0
 <Apr18-2019> <13:58:46>      5      4.12282628      1.76233895    100.0
 <Apr18-2019> <13:58:46>      6      0.29713446      0.11190714    100.0
 <Apr18-2019> <13:58:46>      7      0.26827088      0.11225117    100.0
 <Apr18-2019> <13:58:46>      8      0.07155945      0.02618708     25.4
 <Apr18-2019> <13:58:46>      9      0.01306627      0.00522014      4.3
 <Apr18-2019> <13:58:46>     10      0.00048573      0.00020293      0.0
 <Apr18-2019> <13:58:46>     11      0.00000245      0.00000087      0.0
 <Apr18-2019> <13:58:46>     12      0.00000003      0.00000001      0.0
 <Apr18-2019> <13:58:46>     13      0.00000000      0.00000000      0.0
 <Apr18-2019> <13:58:46>  SCF converged
 <Apr18-2019> <13:58:46>     14      0.00000000      0.00000000      0.0
 <Apr18-2019> <13:58:46>  >>>> POPAN
 <Apr18-2019> <13:58:46>  >>>> DEBYE
 <Apr18-2019> <13:58:46>  NORMAL TERMINATION
 <Apr18-2019> <13:58:46>  END


 Parallel Execution: Process Information
 ==============================================================================
 Rank   Node Name                              NodeID   MyNodeRank  NodeMaster
    0   BAZIS-cn076                               0          0          0
    1   BAZIS-cn076                               0          1         -1
    2   BAZIS-cn076                               0          2         -1
    3   BAZIS-cn076                               0          3         -1
    4   BAZIS-cn076                               0          4         -1
    5   BAZIS-cn076                               0          5         -1
    6   BAZIS-cn076                               0          6         -1
    7   BAZIS-cn076                               0          7         -1
    8   BAZIS-cn076                               0          8         -1
    9   BAZIS-cn076                               0          9         -1
   10   BAZIS-cn076                               0         10         -1
   11   BAZIS-cn076                               0         11         -1
 ==============================================================================


May use up to 30736MB of RAM as shared memory on node 0


XC
  GGA blyp
  DISPERSION Grimme3 BJDAMP
END

ANALYTICALFREQ
END

SCF
  iterations 250
END

Geometry
  Iterations 300
  Optim Cartesian
  Convergence E=1e-4 grad=1e-4
End

SYMMETRY nosym
CHARGE -1

ZLMFIT
  Quality normal
END

BECKEGRID
  Quality good
End

ATOMS
F      -4.94867129       3.04098476       0.02199102
Cl     -3.76372578       1.14672480       0.05741844
Cl    -6.06298381       5.11120939      -0.21661069
END

Fragments
F t21.F
Cl t21.Cl
End
end input

 *******************************************************************************
 *                                                                             *
 *  -------------------------------------                                      *
 *   Amsterdam Density Functional  (ADF)         development version           *
 *  -------------------------------------                                      *
 *                                               r61132 2017-09-08             *
 *                                                                             *
 *                                                                             *
 *                              =================                              *
 *                              |               |                              *
 *                              |     A D F     |                              *
 *                              |               |                              *
 *                              =================                              *
 *                                                                             *
 *                                                                             *
 *   Online information and documentation:  https://www.scm.com/support/       *
 *   E-mail:  support@scm.com   info@scm.com                                   *
 *                                                                             *
 *   Scientific publications using ADF results must be properly referenced     *
 *   See the User Manuals (or the web site) for recommended citations          *
 *   The terms and conditions of the End User License Agreement apply to       *
 *   the use of ADF, https://www.scm.com/license-terms/                        *
 *                                                                             *
 **********************  x86_64_linux_intel / intelmpi  ************************
 
 Licensed to: VU/FEW (+ SARA) / ALGEMEEN / Amsterdam / THE NETHERLANDS
 SCM User ID: u7668
  
 ADF development version  RunTime: Apr18-2019 13:58:46  Nodes: 1  Procs: 12

 Temporary files are created in /local/datastore0/tcst25/186702/kid_0.WhNdio


Communication costs MPI_COMM_WORLD:      2.492 usec per message,   0.0134 usec per 8-byte item
Communication costs for intra-node:      2.504 usec per message,   0.0134 usec per 8-byte item

 *** (NO TITLE) ***



 ===========================
 A T T A C H E D   F I L E S
 ===========================
  



 ===============================
 M O D E L   P A R A M E T E R S
 ===============================
  
 DENSITY FUNCTIONAL POTENTIAL (scf)
    LDA:                               Exchange only                           == Not Default ==
    Gradient Corrections:              Becke88 LYP                             == Not Default ==

 SPIN  (restricted / unrestr.)
    Molecule:                          Restricted                               
    Fragments:                         Restricted                               

 OTHER ASPECTS
    Relativistic Corrections:          ---                                      

    Nuclear Charge Density Model:      Point Charge Nuclei                      
    Core Treatment:                    Frozen Orbital(s)                        

    Hyperfine or Zeeman Interaction:   ---                                      

 Settings for Grimme 3 dispersion correction

      damping                        BJ
      s6                          1.000
      a1                          0.430
      s8                          2.700
      a2                          4.236

 Other (technical) parameters

      alpha                      14.000
      version                         4
 


 Fragment File(s)
 ----------------
 F:
         file : t21.F
         jobid: ADF development version  RunTime: Apr18-2019 13:58:45  Nodes: 1  Procs: 1
         title: Fluorine (TZ2P)
 Cl:
         file : t21.Cl
         jobid: ADF development version  RunTime: Apr18-2019 13:58:45  Nodes: 1  Procs: 1
         title: Chlorine (TZ2P)



                                   *********************************************
                                   *  R U N   T Y P E : GEOMETRY OPTIMIZATION  *
                                   *********************************************
  



 ===============
 G E O M E T R Y  ***  Planar Molecule  ***
 ===============
  

 ATOMS
 =====                            X Y Z                    CHARGE
                                (Angstrom)             Nucl     +Core       At.Mass
                       --------------------------    ----------------       -------
    1  F              -4.9487    3.0410    0.0220      9.00      9.00       18.9984
    2  Cl             -3.7637    1.1467    0.0574     17.00     17.00       34.9689
    3  Cl             -6.0630    5.1112   -0.2166     17.00     17.00       34.9689


 FRAGMENTS
 =========                                     Atoms in this Fragment     Cart. coord.s (Angstrom)
                                               -------------------------------------------------------
    1  F                                                 1  F           -4.9487    3.0410    0.0220
    2  Cl                                                2  Cl          -3.7637    1.1467    0.0574
    3  Cl                                                3  Cl          -6.0630    5.1112   -0.2166


 Interatomic Distance Matrix (Angstrom)
 --------------------------------------

   1)     0.000
   2)     2.235   0.000
   3)     2.363   4.591   0.000

 Min. Distance =    2.2346
 Max. Distance =    4.5912



 =====================================
 S Y M M E T R Y ,   E L E C T R O N S
 =====================================
  
 Symmetry: NOSYM

 Irreducible Representations, including subspecies
 -------------------------------------------------
 A


 Configuration of Valence Electrons
 ==================================
 ( determined in the SCF procedure )

 Total:   44

 Net Charge: -1 (Nuclei minus Electrons)

 Aufbau principle for MO occupations will be applied through SCF cycle no.     125
 Thereafter, the program will assign electrons to MOs that are spatially
 similar to the occupied MOs in a "reference" cycle ("KeepOrbitals").
 The reference cycle is always the PREVIOUS cycle: it will evolve with
 the SCF procedure.
1
 ***************************************************************************************************



                                      ****************************************
                                      *  B U I L D : (Fragments, Functions)  *
                                      ****************************************
  



 =======
 S F O s  ***  (Symmetrized Fragment Orbitals)  ***
 =======
  
 SFOs are linear combinations of (valence) Fragment Orbitals (FOs), such that the SFOs transform as the
 irreducible representations of the (molecular) symmetry group. Each SFO is therefore characterized by
 an irrep of the molecule and by a few (or only one) generating FOs.
 The SFOs constitute a symmetry-adapted basis for the Fock matrix. The MO eigenvector coefficients in
 this basis provide a direct interpretation of the MOs in terms of Frontier Orbital Theory.

 The SFOs are combined with auxiliary Core Functions (CFs) to ensure orthogonalization on the (frozen)
 Core Orbitals (COs). The Core-orthogonalized SFOs (CSFOs) constitute the true Fock basis.

 The FOs, and hence also the (C)SFOs are combinations of the elementary basis functions (BAS). The basis
 functions that participate in the description of the SFOs depend on the irrep. The indices of the
 involved functions are printed below for each irrep.
 (The complete list of primitive basis functions is printed in another section)

 Total nr. of (C)SFOs (summation over all irreps) :    94

 NOTE: a (C)SFO that is defined as a combination of more than one FO is usually NOT normalized.



                                       === A ===
 Nr. of SFOs :   94
 Cartesian basis functions that participate in this irrep (total number =   106) :
      1     2     3     4     5     6     9    12     7    10
     13     8    11    14    15    16    17    18    19    20
     21    22    23    24    25    26    27    28    29    30
     31    32    33    34    41    42    43    35    38    44
     47    50    36    39    45    48    51    37    40    46
     49    52    53    54    55    56    57    58    59    60
     61    62    63    64    65    66    67    68    69    70
     71    72    79    80    81    73    76    82    85    88
     74    77    83    86    89    75    78    84    87    90
     91    92    93    94    95    96    97    98    99   100
    101   102   103   104   105   106

    SFO  (index         Fragment          Generating    Expansion in Fragment Orbitals
  indx  incl.CFs)   Occup   Orb.Energy   FragmentType  Coeff.   Orbital     on Fragment
 --------------------------------------------------------------------------------------
     1       1      2.000     -24.380 au  F             1.00      1 S               1
                        (    -663.414 eV)
     2       2      2.000      -1.092 au  F             1.00      2 S               1
                        (     -29.706 eV)
     3       3       --         0.023 au  F             1.00      3 S               1
                        (       0.631 eV)
     4       4       --         1.580 au  F             1.00      4 S               1
                        (      42.998 eV)
     5       5       --        48.368 au  F             1.00      5 S               1
                        (    1316.149 eV)
     6       6      1.667      -0.409 au  F             1.00      1 P:x             1
                        (     -11.136 eV)
     7       7       --         0.428 au  F             1.00      2 P:x             1
                        (      11.652 eV)
     8       8       --         4.563 au  F             1.00      3 P:x             1
                        (     124.178 eV)
     9       9      1.667      -0.409 au  F             1.00      1 P:y             1
                        (     -11.136 eV)
    10      10       --         0.428 au  F             1.00      2 P:y             1
                        (      11.652 eV)
    11      11       --         4.563 au  F             1.00      3 P:y             1
                        (     124.178 eV)
    12      12      1.667      -0.409 au  F             1.00      1 P:z             1
                        (     -11.136 eV)
    13      13       --         0.428 au  F             1.00      2 P:z             1
                        (      11.652 eV)
    14      14       --         4.563 au  F             1.00      3 P:z             1
                        (     124.178 eV)
    15      15       --         1.117 au  F             1.00      1 D:z2            1
                        (      30.386 eV)
    16      16       --         1.117 au  F             1.00      1 D:x2-y2         1
                        (      30.386 eV)
    17      17       --         1.117 au  F             1.00      1 D:xy            1
                        (      30.386 eV)
    18      18       --         1.117 au  F             1.00      1 D:xz            1
                        (      30.386 eV)
    19      19       --         1.117 au  F             1.00      1 D:yz            1
                        (      30.386 eV)
    20      20       --         3.416 au  F             1.00      1 F:z3            1
                        (      92.955 eV)
    21      21       --         3.416 au  F             1.00      1 F:z             1
                        (      92.955 eV)
    22      22       --         3.416 au  F             1.00      1 F:xyz           1
                        (      92.955 eV)
    23      23       --         3.416 au  F             1.00      1 F:z2x           1
                        (      92.955 eV)
    24      24       --         3.416 au  F             1.00      1 F:z2y           1
                        (      92.955 eV)
    25      25       --         3.416 au  F             1.00      1 F:x             1
                        (      92.955 eV)
    26      26       --         3.416 au  F             1.00      1 F:y             1
                        (      92.955 eV)
    27      27      2.000    -100.762 au  Cl            1.00      1 S               2
                        (   -2741.872 eV)
    28      28      2.000      -9.217 au  Cl            1.00      2 S               2
                        (    -250.797 eV)
    29      29      2.000      -0.748 au  Cl            1.00      3 S               2
                        (     -20.362 eV)
    30      30       --         0.197 au  Cl            1.00      4 S               2
                        (       5.347 eV)
    31      31       --         2.011 au  Cl            1.00      5 S               2
                        (      54.709 eV)
    32      32       --        12.738 au  Cl            1.00      6 S               2
                        (     346.614 eV)
    33      33       --       214.675 au  Cl            1.00      7 S               2
                        (    5841.605 eV)
    34      34      2.000      -7.039 au  Cl            1.00      1 P:x             2
                        (    -191.541 eV)
    35      35      1.667      -0.311 au  Cl            1.00      2 P:x             2
                        (      -8.456 eV)
    36      36       --         0.226 au  Cl            1.00      3 P:x             2
                        (       6.147 eV)
    37      37       --         2.102 au  Cl            1.00      4 P:x             2
                        (      57.209 eV)
    38      38       --        18.828 au  Cl            1.00      5 P:x             2
                        (     512.342 eV)
    39      39      2.000      -7.039 au  Cl            1.00      1 P:y             2
                        (    -191.541 eV)
    40      40      1.667      -0.311 au  Cl            1.00      2 P:y             2
                        (      -8.456 eV)
    41      41       --         0.226 au  Cl            1.00      3 P:y             2
                        (       6.147 eV)
    42      42       --         2.102 au  Cl            1.00      4 P:y             2
                        (      57.209 eV)
    43      43       --        18.828 au  Cl            1.00      5 P:y             2
                        (     512.342 eV)
    44      44      2.000      -7.039 au  Cl            1.00      1 P:z             2
                        (    -191.541 eV)
    45      45      1.667      -0.311 au  Cl            1.00      2 P:z             2
                        (      -8.456 eV)
    46      46       --         0.226 au  Cl            1.00      3 P:z             2
                        (       6.147 eV)
    47      47       --         2.102 au  Cl            1.00      4 P:z             2
                        (      57.209 eV)
    48      48       --        18.828 au  Cl            1.00      5 P:z             2
                        (     512.342 eV)
    49      49       --         0.386 au  Cl            1.00      1 D:z2            2
                        (      10.511 eV)
    50      50       --         0.386 au  Cl            1.00      1 D:x2-y2         2
                        (      10.511 eV)
    51      51       --         0.386 au  Cl            1.00      1 D:xy            2
                        (      10.511 eV)
    52      52       --         0.386 au  Cl            1.00      1 D:xz            2
                        (      10.511 eV)
    53      53       --         0.386 au  Cl            1.00      1 D:yz            2
                        (      10.511 eV)
    54      54       --         1.190 au  Cl            1.00      1 F:z3            2
                        (      32.371 eV)
    55      55       --         1.190 au  Cl            1.00      1 F:z             2
                        (      32.371 eV)
    56      56       --         1.190 au  Cl            1.00      1 F:xyz           2
[...]
 <Apr18-2019> <13:58:48>  gradient max                        0.02665753
 <Apr18-2019> <13:58:48>  gradient rms                        0.01461902
 <Apr18-2019> <13:58:48>  cart. step max                      0.11787659     0.01000000    F
 <Apr18-2019> <13:58:48>  cart. step rms                      0.06110412     0.00666667    F
  Coordinates in Geometry Cycle 2
    Atom         X           Y           Z   (Angstrom)
    1.F        -4.933044    3.061615   -0.009954
    2.Cl       -3.834084    1.243971    0.066137
    3.Cl       -6.008252    4.993333   -0.193384
 <Apr18-2019> <13:58:48>  >>>> CORORT
 <Apr18-2019> <13:58:48>  >>>> CLSMAT
 <Apr18-2019> <13:58:48>  >>>> ORTHON
 <Apr18-2019> <13:58:48>  >>>> GENPT
 <Apr18-2019> <13:58:48>  Block Length= 128
 <Apr18-2019> <13:58:48>  >>>> PTBAS
 <Apr18-2019> <13:58:48>  >>>> CYCLE
 <Apr18-2019> <13:58:49>              |Error|         MaxErr       Wt(A-DIIS)
 <Apr18-2019> <13:58:49>      1      0.23270292      0.10314561
 <Apr18-2019> <13:58:49>      2      0.07387395      0.02095237    100.0
 <Apr18-2019> <13:58:49>      3      0.02638059      0.00635168    100.0
 <Apr18-2019> <13:58:49>      4      0.09135921      0.03084330    100.0
 <Apr18-2019> <13:58:49>      5      0.02635778      0.00545556      4.5
 <Apr18-2019> <13:58:49>      6      0.00413117      0.00137090      0.4
 <Apr18-2019> <13:58:49>      7      0.00029600      0.00007838      0.0
 <Apr18-2019> <13:58:49>      8      0.00012317      0.00004369      0.0
 <Apr18-2019> <13:58:49>      9      0.00002524      0.00000785      0.0
 <Apr18-2019> <13:58:49>     10      0.00000351      0.00000114      0.0
 <Apr18-2019> <13:58:49>     11      0.00000058      0.00000014      0.0
 <Apr18-2019> <13:58:49>  SCF converged
 <Apr18-2019> <13:58:49>     12      0.00000013      0.00000003      0.0
 <Apr18-2019> <13:58:49>  >>>> TOTEN
 <Apr18-2019> <13:58:50>  >>>> POPAN
 <Apr18-2019> <13:58:50>  >>>> DEBYE
 <Apr18-2019> <13:58:50>  >>>> ENGRAD
 <Apr18-2019> <13:58:50>  current energy                               -0.31337194 Hartree
 <Apr18-2019> <13:58:50>  energy change                      -0.00617915     0.00010000    F
 <Apr18-2019> <13:58:50>  constrained gradient max            0.01415408     0.00010000    F
 <Apr18-2019> <13:58:50>  constrained gradient rms            0.00705415     0.00006667    F
 <Apr18-2019> <13:58:50>  gradient max                        0.01415408
 <Apr18-2019> <13:58:50>  gradient rms                        0.00705415
 <Apr18-2019> <13:58:50>  cart. step max                      0.12092472     0.01000000    F
 <Apr18-2019> <13:58:50>  cart. step rms                      0.06234220     0.00666667    F
  Coordinates in Geometry Cycle 3
    Atom         X           Y           Z   (Angstrom)
    1.F        -4.911352    3.106000   -0.065490
    2.Cl       -3.904781    1.320511    0.089945
    3.Cl       -5.959247    4.872408   -0.161656
 <Apr18-2019> <13:58:50>  >>>> CORORT
 <Apr18-2019> <13:58:50>  >>>> CLSMAT
 <Apr18-2019> <13:58:50>  >>>> ORTHON
 <Apr18-2019> <13:58:50>  >>>> GENPT
 <Apr18-2019> <13:58:50>  Block Length= 128
 <Apr18-2019> <13:58:50>  >>>> PTBAS
 <Apr18-2019> <13:58:50>  >>>> CYCLE
 <Apr18-2019> <13:58:50>              |Error|         MaxErr       Wt(A-DIIS)
 <Apr18-2019> <13:58:50>      1      0.28494983      0.11885894
 <Apr18-2019> <13:58:50>      2      0.12931163      0.03942506    100.0
 <Apr18-2019> <13:58:50>      3      0.06288087      0.01837995    100.0
 <Apr18-2019> <13:58:50>      4      0.08822039      0.02330183    100.0
 <Apr18-2019> <13:58:50>      5      0.07247849      0.02116485    100.0
 <Apr18-2019> <13:58:50>      6      0.02224367      0.00706494      6.1
 <Apr18-2019> <13:58:50>      7      0.00232557      0.00072173      0.0
 <Apr18-2019> <13:58:51>      8      0.00011999      0.00002516      0.0
 <Apr18-2019> <13:58:51>      9      0.00006093      0.00001660      0.0
 <Apr18-2019> <13:58:51>     10      0.00000404      0.00000114      0.0
 <Apr18-2019> <13:58:51>     11      0.00000139      0.00000034      0.0
 <Apr18-2019> <13:58:51>  SCF converged
 <Apr18-2019> <13:58:51>     12      0.00000025      0.00000007      0.0
 <Apr18-2019> <13:58:51>  >>>> TOTEN
 <Apr18-2019> <13:58:51>  >>>> POPAN
 <Apr18-2019> <13:58:51>  >>>> DEBYE
 <Apr18-2019> <13:58:51>  >>>> ENGRAD
 <Apr18-2019> <13:58:51>  current energy                               -0.31374779 Hartree
 <Apr18-2019> <13:58:51>  energy change                      -0.00037585     0.00010000    F
 <Apr18-2019> <13:58:51>  constrained gradient max            0.01385265     0.00010000    F
 <Apr18-2019> <13:58:51>  constrained gradient rms            0.00748145     0.00006667    F
 <Apr18-2019> <13:58:51>  gradient max                        0.01385265
 <Apr18-2019> <13:58:51>  gradient rms                        0.00748145
 <Apr18-2019> <13:58:51>  cart. step max                      0.03013130     0.01000000    F
 <Apr18-2019> <13:58:51>  cart. step rms                      0.01558555     0.00666667    F
  Coordinates in Geometry Cycle 4
    Atom         X           Y           Z   (Angstrom)
    1.F        -4.910183    3.102713   -0.064448
    2.Cl       -3.889030    1.293667    0.091598
    3.Cl       -5.976168    4.902539   -0.164352
 <Apr18-2019> <13:58:51>  >>>> CORORT
 <Apr18-2019> <13:58:51>  >>>> CLSMAT
 <Apr18-2019> <13:58:51>  >>>> ORTHON
 <Apr18-2019> <13:58:51>  >>>> GENPT
 <Apr18-2019> <13:58:51>  Block Length= 128
 <Apr18-2019> <13:58:51>  >>>> PTBAS
 <Apr18-2019> <13:58:51>  >>>> CYCLE
 <Apr18-2019> <13:58:51>              |Error|         MaxErr       Wt(A-DIIS)
 <Apr18-2019> <13:58:51>      1      0.08399885      0.03677900
 <Apr18-2019> <13:58:51>      2      0.01943999      0.00548239    100.0
 <Apr18-2019> <13:58:52>      3      0.10842950      0.03577075    100.0
 <Apr18-2019> <13:58:52>      4      0.04272426      0.01338666    100.0
 <Apr18-2019> <13:58:52>      5      0.00905433      0.00233520      1.3
 <Apr18-2019> <13:58:52>      6      0.00076705      0.00024069      0.0
 <Apr18-2019> <13:58:52>      7      0.00016034      0.00004349      0.0
 <Apr18-2019> <13:58:52>      8      0.00005203      0.00001528      0.0
 <Apr18-2019> <13:58:52>      9      0.00001205      0.00000354      0.0
 <Apr18-2019> <13:58:52>     10      0.00000058      0.00000018      0.0
 <Apr18-2019> <13:58:52>  SCF converged
 <Apr18-2019> <13:58:52>     11      0.00000013      0.00000004      0.0
 <Apr18-2019> <13:58:52>  >>>> TOTEN
 <Apr18-2019> <13:58:52>  >>>> POPAN
 <Apr18-2019> <13:58:52>  >>>> DEBYE
 <Apr18-2019> <13:58:52>  >>>> ENGRAD
 <Apr18-2019> <13:58:52>  current energy                               -0.31443158 Hartree
 <Apr18-2019> <13:58:52>  energy change                      -0.00068378     0.00010000    F
 <Apr18-2019> <13:58:52>  constrained gradient max            0.00457028     0.00010000    F
 <Apr18-2019> <13:58:52>  constrained gradient rms            0.00255203     0.00006667    F
 <Apr18-2019> <13:58:52>  gradient max                        0.00457028
 <Apr18-2019> <13:58:52>  gradient rms                        0.00255203
 <Apr18-2019> <13:58:52>  cart. step max                      0.05876412     0.01000000    F
 <Apr18-2019> <13:58:52>  cart. step rms                      0.03117110     0.00666667    F
  Coordinates in Geometry Cycle 5
    Atom         X           Y           Z   (Angstrom)
    1.F        -4.950978    3.083519   -0.005684
    2.Cl       -3.861468    1.289054    0.064390
    3.Cl       -5.962935    4.926346   -0.195907
 <Apr18-2019> <13:58:52>  >>>> CORORT
 <Apr18-2019> <13:58:52>  >>>> CLSMAT
 <Apr18-2019> <13:58:52>  >>>> ORTHON
 <Apr18-2019> <13:58:52>  >>>> GENPT
 <Apr18-2019> <13:58:53>  Block Length= 128
 <Apr18-2019> <13:58:53>  >>>> PTBAS
 <Apr18-2019> <13:58:53>  >>>> CYCLE
 <Apr18-2019> <13:58:53>              |Error|         MaxErr       Wt(A-DIIS)
 <Apr18-2019> <13:58:53>      1      0.08977391      0.03161988
 <Apr18-2019> <13:58:53>      2      0.01344381      0.00274563    100.0
 <Apr18-2019> <13:58:53>      3      0.02132064      0.00540737    100.0
 <Apr18-2019> <13:58:53>      4      0.02090389      0.00569949    100.0
 <Apr18-2019> <13:58:53>      5      0.01545188      0.00501902    100.0
 <Apr18-2019> <13:58:53>      6      0.01899546      0.00590305    100.0
 <Apr18-2019> <13:58:53>      7      0.00273126      0.00065730      0.0
 <Apr18-2019> <13:58:53>      8      0.00003823      0.00000837      0.0
 <Apr18-2019> <13:58:53>      9      0.00000894      0.00000221      0.0
 <Apr18-2019> <13:58:53>     10      0.00000110      0.00000031      0.0
 <Apr18-2019> <13:58:53>  SCF converged
 <Apr18-2019> <13:58:54>     11      0.00000021      0.00000005      0.0
 <Apr18-2019> <13:58:54>  >>>> TOTEN
 <Apr18-2019> <13:58:54>  >>>> POPAN
 <Apr18-2019> <13:58:54>  >>>> DEBYE
 <Apr18-2019> <13:58:54>  >>>> ENGRAD
 <Apr18-2019> <13:58:54>  current energy                               -0.31441347 Hartree
 <Apr18-2019> <13:58:54>  energy change                       0.00001811     0.00010000    T
 <Apr18-2019> <13:58:54>  constrained gradient max            0.00301330     0.00010000    F
 <Apr18-2019> <13:58:54>  constrained gradient rms            0.00156584     0.00006667    F
 <Apr18-2019> <13:58:54>  gradient max                        0.00301330
 <Apr18-2019> <13:58:54>  gradient rms                        0.00156584
 <Apr18-2019> <13:58:54>  cart. step max                      0.03666840     0.01000000    F
 <Apr18-2019> <13:58:54>  cart. step rms                      0.01934136     0.00666667    F
  Coordinates in Geometry Cycle 6
    Atom         X           Y           Z   (Angstrom)
    1.F        -4.931586    3.104934   -0.042352
    2.Cl       -3.875726    1.283462    0.084134
    3.Cl       -5.968070    4.910523   -0.178983
 <Apr18-2019> <13:58:54>  >>>> CORORT
 <Apr18-2019> <13:58:54>  >>>> CLSMAT
 <Apr18-2019> <13:58:54>  >>>> ORTHON
 <Apr18-2019> <13:58:54>  >>>> GENPT
 <Apr18-2019> <13:58:54>  Block Length= 128
 <Apr18-2019> <13:58:54>  >>>> PTBAS
 <Apr18-2019> <13:58:54>  >>>> CYCLE
 <Apr18-2019> <13:58:54>              |Error|         MaxErr       Wt(A-DIIS)
 <Apr18-2019> <13:58:54>      1      0.05921968      0.01968154
 <Apr18-2019> <13:58:54>      2      0.05217725      0.01749924    100.0
 <Apr18-2019> <13:58:54>      3      0.03126183      0.01024049    100.0
 <Apr18-2019> <13:58:54>      4      0.01636733      0.00489128      3.9
 <Apr18-2019> <13:58:54>      5      0.00626735      0.00200675      1.0
 <Apr18-2019> <13:58:54>      6      0.00145522      0.00041483      0.0
 <Apr18-2019> <13:58:55>      7      0.00023396      0.00008132      0.0
 <Apr18-2019> <13:58:55>      8      0.00002428      0.00000545      0.0
 <Apr18-2019> <13:58:55>      9      0.00000680      0.00000134      0.0
 <Apr18-2019> <13:58:55>     10      0.00000103      0.00000034      0.0
 <Apr18-2019> <13:58:55>  SCF converged
 <Apr18-2019> <13:58:55>     11      0.00000025      0.00000007      0.0
 <Apr18-2019> <13:58:55>  >>>> TOTEN
 <Apr18-2019> <13:58:55>  >>>> POPAN
 <Apr18-2019> <13:58:55>  >>>> DEBYE
 <Apr18-2019> <13:58:55>  >>>> ENGRAD
 <Apr18-2019> <13:58:55>  current energy                               -0.31452645 Hartree
 <Apr18-2019> <13:58:55>  energy change                      -0.00011298     0.00010000    F
 <Apr18-2019> <13:58:55>  constrained gradient max            0.00276370     0.00010000    F
 <Apr18-2019> <13:58:55>  constrained gradient rms            0.00133555     0.00006667    F
 <Apr18-2019> <13:58:55>  gradient max                        0.00276370
 <Apr18-2019> <13:58:55>  gradient rms                        0.00133555
 <Apr18-2019> <13:58:55>  cart. step max                      0.00400659     0.01000000    T
 <Apr18-2019> <13:58:55>  cart. step rms                      0.00257156     0.00666667    T
  Coordinates in Geometry Cycle 7
    Atom         X           Y           Z   (Angstrom)
    1.F        -4.928074    3.101931   -0.044102
    2.Cl       -3.875297    1.282458    0.084373
    3.Cl       -5.972010    4.914529   -0.177472
 <Apr18-2019> <13:58:55>  >>>> CORORT
 <Apr18-2019> <13:58:55>  >>>> CLSMAT
 <Apr18-2019> <13:58:55>  >>>> ORTHON
 <Apr18-2019> <13:58:55>  >>>> GENPT
 <Apr18-2019> <13:58:55>  Block Length= 128
 <Apr18-2019> <13:58:55>  >>>> PTBAS
 <Apr18-2019> <13:58:55>  >>>> CYCLE
 <Apr18-2019> <13:58:55>              |Error|         MaxErr       Wt(A-DIIS)
 <Apr18-2019> <13:58:55>      1      0.01384275      0.00529132
 <Apr18-2019> <13:58:55>      2      0.02000781      0.00693416    100.0
 <Apr18-2019> <13:58:56>      3      0.13710519      0.04628704    100.0
 <Apr18-2019> <13:58:56>      4      0.05842612      0.01988728    100.0
 <Apr18-2019> <13:58:56>      5      0.01885463      0.00646363      5.5
 <Apr18-2019> <13:58:56>      6      0.00049130      0.00016522      0.0
 <Apr18-2019> <13:58:56>      7      0.00006328      0.00001733      0.0
 <Apr18-2019> <13:58:56>      8      0.00000927      0.00000279      0.0
 <Apr18-2019> <13:58:56>      9      0.00000262      0.00000074      0.0
 <Apr18-2019> <13:58:56>  SCF converged
 <Apr18-2019> <13:58:56>     10      0.00000056      0.00000020      0.0
 <Apr18-2019> <13:58:56>  >>>> TOTEN
 <Apr18-2019> <13:58:56>  >>>> POPAN
 <Apr18-2019> <13:58:56>  >>>> DEBYE
 <Apr18-2019> <13:58:56>  >>>> ENGRAD
 <Apr18-2019> <13:58:56>  current energy                               -0.31454729 Hartree
 <Apr18-2019> <13:58:56>  energy change                      -0.00002084     0.00010000    T
 <Apr18-2019> <13:58:56>  constrained gradient max            0.00161113     0.00010000    F
 <Apr18-2019> <13:58:56>  constrained gradient rms            0.00078724     0.00006667    F
 <Apr18-2019> <13:58:56>  gradient max                        0.00161113
 <Apr18-2019> <13:58:56>  gradient rms                        0.00078724
 <Apr18-2019> <13:58:56>  cart. step max                      0.00537186     0.01000000    T
 <Apr18-2019> <13:58:56>  cart. step rms                      0.00288692     0.00666667    T
  Coordinates in Geometry Cycle 8
    Atom         X           Y           Z   (Angstrom)
    1.F        -4.925224    3.099808   -0.045746
    2.Cl       -3.873690    1.279289    0.084848
    3.Cl       -5.976467    4.919822   -0.176303
 <Apr18-2019> <13:58:56>  >>>> CORORT
 <Apr18-2019> <13:58:56>  >>>> CLSMAT
 <Apr18-2019> <13:58:56>  >>>> ORTHON
 <Apr18-2019> <13:58:56>  >>>> GENPT
 <Apr18-2019> <13:58:56>  Block Length= 128
 <Apr18-2019> <13:58:56>  >>>> PTBAS
 <Apr18-2019> <13:58:56>  >>>> CYCLE
 <Apr18-2019> <13:58:57>              |Error|         MaxErr       Wt(A-DIIS)
 <Apr18-2019> <13:58:57>      1      0.01494835      0.00677874
 <Apr18-2019> <13:58:57>      2      0.01500619      0.00518568    100.0
 <Apr18-2019> <13:58:57>      3      0.10346157      0.03518958    100.0
 <Apr18-2019> <13:58:57>      4      0.04405633      0.01501208    100.0
 <Apr18-2019> <13:58:57>      5      0.01415747      0.00485236      3.9
 <Apr18-2019> <13:58:57>      6      0.00035043      0.00011960      0.0
 <Apr18-2019> <13:58:57>      7      0.00004234      0.00001130      0.0
 <Apr18-2019> <13:58:57>      8      0.00000603      0.00000154      0.0
 <Apr18-2019> <13:58:57>      9      0.00000142      0.00000034      0.0
 <Apr18-2019> <13:58:57>  SCF converged
 <Apr18-2019> <13:58:57>     10      0.00000032      0.00000011      0.0
 <Apr18-2019> <13:58:57>  >>>> TOTEN
 <Apr18-2019> <13:58:58>  >>>> POPAN
 <Apr18-2019> <13:58:58>  >>>> DEBYE
 <Apr18-2019> <13:58:58>  >>>> ENGRAD
 <Apr18-2019> <13:58:58>  current energy                               -0.31455800 Hartree
 <Apr18-2019> <13:58:58>  energy change                      -0.00001070     0.00010000    T
 <Apr18-2019> <13:58:58>  constrained gradient max            0.00013121     0.00010000    F
 <Apr18-2019> <13:58:58>  constrained gradient rms            0.00006478     0.00006667    T
 <Apr18-2019> <13:58:58>  gradient max                        0.00013121
 <Apr18-2019> <13:58:58>  gradient rms                        0.00006478
 <Apr18-2019> <13:58:58>  cart. step max                      0.00049816     0.01000000    T
 <Apr18-2019> <13:58:58>  cart. step rms                      0.00024318     0.00666667    T
  Coordinates in Geometry Cycle 9
    Atom         X           Y           Z   (Angstrom)
    1.F        -4.925125    3.099637   -0.045734
    2.Cl       -3.873652    1.278883    0.085098
    3.Cl       -5.976604    4.920399   -0.176566
 <Apr18-2019> <13:58:58>  >>>> CORORT
 <Apr18-2019> <13:58:58>  >>>> CLSMAT
 <Apr18-2019> <13:58:58>  >>>> ORTHON
 <Apr18-2019> <13:58:58>  >>>> GENPT
 <Apr18-2019> <13:58:58>  Block Length= 128
 <Apr18-2019> <13:58:58>  >>>> PTBAS
 <Apr18-2019> <13:58:58>  >>>> CYCLE
 <Apr18-2019> <13:58:58>              |Error|         MaxErr       Wt(A-DIIS)
 <Apr18-2019> <13:58:58>      1      0.00126886      0.00053918
 <Apr18-2019> <13:58:58>      2      0.00094566      0.00032273    100.0
 <Apr18-2019> <13:58:58>      3      0.00654159      0.00223338    100.0
 <Apr18-2019> <13:58:58>      4      0.00277430      0.00094395      0.0
 <Apr18-2019> <13:58:58>      5      0.00020161      0.00006587      0.0
 <Apr18-2019> <13:58:58>      6      0.00002337      0.00000752      0.0
 <Apr18-2019> <13:58:58>      7      0.00000313      0.00000087      0.0
 <Apr18-2019> <13:58:58>  SCF converged
 <Apr18-2019> <13:58:58>      8      0.00000055      0.00000013      0.0
 <Apr18-2019> <13:58:58>  >>>> TOTEN
 <Apr18-2019> <13:58:59>  >>>> POPAN
 <Apr18-2019> <13:58:59>  >>>> DEBYE
 <Apr18-2019> <13:58:59>  >>>> ENGRAD
 <Apr18-2019> <13:58:59>  current energy                               -0.31455808 Hartree
 <Apr18-2019> <13:58:59>  energy change                      -0.00000008     0.00010000    T
 <Apr18-2019> <13:58:59>  constrained gradient max            0.00000098     0.00010000    T
 <Apr18-2019> <13:58:59>  constrained gradient rms            0.00000046     0.00006667    T
 <Apr18-2019> <13:58:59>  gradient max                        0.00000098
 <Apr18-2019> <13:58:59>  gradient rms                        0.00000046
 <Apr18-2019> <13:58:59>  cart. step max                      0.00000414     0.01000000    T
 <Apr18-2019> <13:58:59>  cart. step rms                      0.00000194     0.00666667    T
 <Apr18-2019> <13:58:59>  GEOMETRY CONVERGED
 <Apr18-2019> <13:58:59>  Calculating Energy Terms for Final Geometry
  Coordinates in Geometry Cycle 9
    Atom         X           Y           Z   (Angstrom)
    1.F        -4.925125    3.099637   -0.045734
    2.Cl       -3.873652    1.278883    0.085098
    3.Cl       -5.976604    4.920399   -0.176566
 <Apr18-2019> <13:58:59>  >>>> CORORT
 <Apr18-2019> <13:58:59>  >>>> CLSMAT
 <Apr18-2019> <13:58:59>  >>>> ORTHON
 <Apr18-2019> <13:58:59>  >>>> GENPT
 <Apr18-2019> <13:58:59>  Block Length= 128
 <Apr18-2019> <13:58:59>  >>>> PTBAS
 <Apr18-2019> <13:58:59>  >>>> CYCLE
 <Apr18-2019> <13:58:59>              |Error|         MaxErr       Wt(A-DIIS)
 <Apr18-2019> <13:58:59>      1      0.00000016      0.00000005
 <Apr18-2019> <13:58:59>      2      0.00000061      0.00000020    100.0
 <Apr18-2019> <13:58:59>  SCF converged
 <Apr18-2019> <13:58:59>      3      0.00000243      0.00000079    100.0
 <Apr18-2019> <13:58:59>  >>>> TOTEN
 <Apr18-2019> <13:58:59>  >>>> POPAN
 <Apr18-2019> <13:58:59>  >>>> DEBYE
 <Apr18-2019> <13:58:59>  >>>> AMETS
 <Apr18-2019> <13:58:59>  >>>> POPUL
 <Apr18-2019> <13:58:59>   Bond Energy          -0.31455808 a.u.
 <Apr18-2019> <13:58:59>   Bond Energy          -8.55956084 eV
 <Apr18-2019> <13:58:59>   Bond Energy        -197.39       kcal/mol
 <Apr18-2019> <13:58:59>  >>>> ENHESS
 <Apr18-2019> <13:58:59>  === NUCLEUS:     1
 <Apr18-2019> <13:59:01>  === NUCLEUS:     2
 <Apr18-2019> <13:59:03>  === NUCLEUS:     3
 <Apr18-2019> <13:59:05>  >>>> CALC_HESS_PMAT
 <Apr18-2019> <13:59:05>  >>>> CALC_HESS_WMAT
 <Apr18-2019> <13:59:06>  NORMAL TERMINATION
 <Apr18-2019> <13:59:06>  END
