

 Parallel Execution: Process Information
 ==============================================================================
 Rank   Node Name                              NodeID   MyNodeRank  NodeMaster
    0   BAZIS-cn026                               0          0          0
    1   BAZIS-cn026                               0          1         -1
    2   BAZIS-cn026                               0          2         -1
    3   BAZIS-cn026                               0          3         -1
    4   BAZIS-cn026                               0          4         -1
    5   BAZIS-cn026                               0          5         -1
    6   BAZIS-cn026                               0          6         -1
    7   BAZIS-cn026                               0          7         -1
    8   BAZIS-cn026                               0          8         -1
    9   BAZIS-cn026                               0          9         -1
   10   BAZIS-cn026                               0         10         -1
   11   BAZIS-cn026                               0         11         -1
 ==============================================================================


May use up to 30771MB of RAM as shared memory on node 0


XC
    GGA BP86
END

SCF
    iterations 250
END

EPRINT
    SFO Eig Ovl
END

ZLMFIT
    Quality normal
END

BECKEGRID
    Quality good
End

SYMMETRY nosym
CHARGE -1

ATOMS
1.Br       -4.900312    3.058824   -0.044166 f=BrCl
2.Cl       -3.592957    0.908502    0.038438 f=BrCl
3.Br       -6.282112    5.331592   -0.131473 f=Br
END

Fragments
BrCl /home/tcst25/advanced_comp_chemistry/exercise2/halogen/ClBrBr/frag1_BrCl.t21
Br /home/tcst25/advanced_comp_chemistry/exercise2/halogen/ClBrBr/frag2_Br.t21
End
end input

 *******************************************************************************
 *                                                                             *
 *  -------------------------------------                                      *
 *   Amsterdam Density Functional  (ADF)         2017                          *
 *  -------------------------------------                                      *
 *                                               r58813 2017-04-12             *
 *                                                                             *
 *                                                                             *
 *                              =================                              *
 *                              |               |                              *
 *                              |     A D F     |                              *
 *                              |               |                              *
 *                              =================                              *
 *                                                                             *
 *                                                                             *
 *   Online information and documentation:  https://www.scm.com/support/       *
 *   E-mail:  support@scm.com   info@scm.com                                   *
 *                                                                             *
 *   Scientific publications using ADF results must be properly referenced     *
 *   See the User Manuals (or the web site) for recommended citations          *
 *   The terms and conditions of the End User License Agreement apply to       *
 *   the use of ADF, https://www.scm.com/license-terms/                        *
 *                                                                             *
 **********************  x86_64_linux_intel / intelmpi  ************************
 
 Licensed to: VU/FEW (+ SARA) / ALGEMEEN / Amsterdam / THE NETHERLANDS
 SCM User ID: u7668
  
 ADF 2017  RunTime: May09-2019 17:12:05  Nodes: 1  Procs: 12

 Temporary files are created in /local/datastore0/tcst25/189774/kid_0.hH9Yud


Communication costs MPI_COMM_WORLD:      3.835 usec per message,   0.0176 usec per 8-byte item
Communication costs for intra-node:      3.855 usec per message,   0.0175 usec per 8-byte item

 *** (NO TITLE) ***



 ===========================
 A T T A C H E D   F I L E S
 ===========================
  



 ===============================
 M O D E L   P A R A M E T E R S
 ===============================
  
 DENSITY FUNCTIONAL POTENTIAL (scf)
    LDA:                               VWN                                      
    Gradient Corrections:              Becke88 Perdew86                        == Not Default ==

 SPIN  (restricted / unrestr.)
    Molecule:                          Restricted                               
    Fragments:                         Restricted                               

 OTHER ASPECTS
    Relativistic Corrections:          ---                                      

    Nuclear Charge Density Model:      Point Charge Nuclei                      
    Core Treatment:                    Frozen Orbital(s)                        

    Hyperfine or Zeeman Interaction:   ---                                      


 Fragment File(s)
 ----------------
 BrCl:
         file : /home/tcst25/advanced_comp_chemistry/exercise2/halogen/ClBrBr/frag1_BrCl.t21
         jobid: ADF 2017  RunTime: May09-2019 16:32:21  Nodes: 1  Procs: 12
         title: *** (NO TITLE) ***
 Br:
         file : /home/tcst25/advanced_comp_chemistry/exercise2/halogen/ClBrBr/frag2_Br.t21
         jobid: ADF 2017  RunTime: May09-2019 16:32:21  Nodes: 1  Procs: 12
         title: *** (NO TITLE) ***



                                        ************************************
                                        *  R U N   T Y P E : SINGLE POINT  *
                                        ************************************
  



 ===============
 G E O M E T R Y  ***  Linear Molecule  ***
 ===============
  

 ATOMS
 =====                            X Y Z                    CHARGE
                                (Angstrom)             Nucl     +Core       At.Mass
                       --------------------------    ----------------       -------
    1  Br             -4.9003    3.0588   -0.0442     35.00     35.00       78.9183
    2  Cl             -3.5930    0.9085    0.0384     17.00     17.00       34.9689
    3  Br             -6.2821    5.3316   -0.1315     35.00     35.00       78.9183


 FRAGMENTS
 =========                                     Atoms in this Fragment     Cart. coord.s (Angstrom)
                                               -------------------------------------------------------
    1  BrCl                                              1  Br          -4.9003    3.0588   -0.0442
                                                         2  Cl          -3.5930    0.9085    0.0384
    2  Br                                                3  Br          -6.2821    5.3316   -0.1315


 Interatomic Distance Matrix (Angstrom)
 --------------------------------------

   1)     0.000
   2)     2.518   0.000
   3)     2.661   5.179   0.000

 Min. Distance =    2.5179
 Max. Distance =    5.1792



 =====================================
 S Y M M E T R Y ,   E L E C T R O N S
 =====================================
  
 Symmetry: NOSYM

 Irreducible Representations, including subspecies
 -------------------------------------------------
 A


 Configuration of Valence Electrons
 ==================================
 ( determined in the SCF procedure )

 Total:   88

 Net Charge: -1 (Nuclei minus Electrons)

 Aufbau principle for MO occupations will be applied through SCF cycle no.     125
 Thereafter, the program will assign electrons to MOs that are spatially
 similar to the occupied MOs in a "reference" cycle ("KeepOrbitals").
 The reference cycle is always the PREVIOUS cycle: it will evolve with
 the SCF procedure.
1
 ***************************************************************************************************



                                      ****************************************
                                      *  B U I L D : (Fragments, Functions)  *
                                      ****************************************
  

 The individual fragments are copies of the corresponding 'Master' fragments defined on the fragment files.
 However, they may have been rotated (and translated) with respect to the Master. The local coordinate axes
 of each fragment (which define for instance the spatial orientation in the current molecule of a fragment
 P:x orbital) are not necessarily those of the molecule.
 The local frame (if different from the molecular one) is printed to enable an interpretation of the expan-
 sion of an MO in Fragment Orbitals.



                                             **************************
                                             *  Fragment Type : BrCl  *
                                             **************************
  

 Fragment no.    1   (in the list of all fragments)
 -----------------
 The local coordinate frame is identical to the molecular frame.

 Check Atomic Coordinates:

                  Master (on file)          After Computed Tranformation               As specified on Input
           ----------------------------     ----------------------------     ---------------------------------
     1)    -4.90031   3.05882  -0.04417     -4.90031   3.05882  -0.04417       1  -4.90031   3.05882  -0.04417
     2)    -3.59296   0.90850   0.03844     -3.59296   0.90850   0.03844       2  -3.59296   0.90850   0.03844



                                              ************************
                                              *  Fragment Type : Br  *
                                              ************************
  

 Fragment no.    2   (in the list of all fragments)
 -----------------
 The local coordinate frame is identical to the molecular frame.

 Check Atomic Coordinates:

                  Master (on file)          After Computed Tranformation               As specified on Input
           ----------------------------     ----------------------------     ---------------------------------
     1)    -6.28211   5.33159  -0.13147     -6.28211   5.33159  -0.13147       3  -6.28211   5.33159  -0.13147



 =======
 S F O s  ***  (Symmetrized Fragment Orbitals)  ***
 =======
  
 SFOs are linear combinations of (valence) Fragment Orbitals (FOs), such that the SFOs transform as the
 irreducible representations of the (molecular) symmetry group. Each SFO is therefore characterized by
 an irrep of the molecule and by a few (or only one) generating FOs.
 The SFOs constitute a symmetry-adapted basis for the Fock matrix. The MO eigenvector coefficients in
 this basis provide a direct interpretation of the MOs in terms of Frontier Orbital Theory.

 The SFOs are combined with auxiliary Core Functions (CFs) to ensure orthogonalization on the (frozen)
 Core Orbitals (COs). The Core-orthogonalized SFOs (CSFOs) constitute the true Fock basis.

 The FOs, and hence also the (C)SFOs are combinations of the elementary basis functions (BAS). The basis
 functions that participate in the description of the SFOs depend on the irrep. The indices of the
 involved functions are printed below for each irrep.
 (The complete list of primitive basis functions is printed in another section)

 Total nr. of (C)SFOs (summation over all irreps) :   146

 NOTE: a (C)SFO that is defined as a combination of more than one FO is usually NOT normalized.



                                       === A ===
 Nr. of SFOs :  146
 Cartesian basis functions that participate in this irrep (total number =   164) :
      1     2     3    10    11    36    37    38     4     7
     12    15    39    42    45     5     8    13    16    40
     43    46     6     9    14    17    41    44    47    18
     24    30    48    19    25    31    49    20    26    32
     50    21    27    33    51    22    28    34    52    23
     29    35    53    54    55    56    57    58    59    60
     61    62    63    64    65    66    67    74    75    76
     68    71    77    80    83    69    72    78    81    84
     70    73    79    82    85    86    87    88    89    90
     91    92    93    94    95    96    97    98    99   100
    101   102   103   104   111   112   137   138   139   105
    108   113   116   140   143   146   106   109   114   117
    141   144   147   107   110   115   118   142   145   148
    119   125   131   149   120   126   132   150   121   127
    133   151   122   128   134   152   123   129   135   153
    124   130   136   154   155   156   157   158   159   160
    161   162   163   164

    SFO  (index         Fragment          Generating    Expansion in Fragment Orbitals
  indx  incl.CFs)   Occup   Orb.Energy   FragmentType  Coeff.   Orbital     on Fragment
 --------------------------------------------------------------------------------------
     1       1      2.000    -481.052 au  BrCl          1.00      1 A               1
                        (  -13090.083 eV)
     2       2      2.000    -100.765 au  BrCl          1.00      2 A               1
                        (   -2741.963 eV)
     3       3      2.000     -61.807 au  BrCl          1.00      3 A               1
                        (   -1681.846 eV)
     4       4      2.000     -55.741 au  BrCl          1.00      4 A               1
                        (   -1516.802 eV)
     5       5      2.000     -55.734 au  BrCl          1.00      5 A               1
                        (   -1516.603 eV)
     6       6      2.000     -55.734 au  BrCl          1.00      6 A               1
                        (   -1516.603 eV)
     7       7      2.000      -9.216 au  BrCl          1.00      7 A               1
                        (    -250.771 eV)
     8       8      2.000      -8.426 au  BrCl          1.00      8 A               1
                        (    -229.296 eV)
     9       9      2.000      -7.049 au  BrCl          1.00      9 A               1
                        (    -191.804 eV)
    10      10      2.000      -7.032 au  BrCl          1.00     10 A               1
                        (    -191.361 eV)
    11      11      2.000      -7.032 au  BrCl          1.00     11 A               1
                        (    -191.361 eV)
    12      12      2.000      -6.340 au  BrCl          1.00     12 A               1
                        (    -172.521 eV)
    13      13      2.000      -6.319 au  BrCl          1.00     13 A               1
                        (    -171.951 eV)
    14      14      2.000      -6.319 au  BrCl          1.00     14 A               1
                        (    -171.951 eV)
    15      15      2.000      -2.544 au  BrCl          1.00     15 A               1
                        (     -69.221 eV)
    16      16      2.000      -2.539 au  BrCl          1.00     16 A               1
                        (     -69.083 eV)
    17      17      2.000      -2.539 au  BrCl          1.00     17 A               1
                        (     -69.083 eV)
    18      18      2.000      -2.524 au  BrCl          1.00     18 A               1
                        (     -68.668 eV)
    19      19      2.000      -2.524 au  BrCl          1.00     19 A               1
                        (     -68.668 eV)
    20      20      2.000      -0.770 au  BrCl          1.00     20 A               1
                        (     -20.941 eV)
    21      21      2.000      -0.708 au  BrCl          1.00     21 A               1
                        (     -19.278 eV)
    22      22      2.000      -0.386 au  BrCl          1.00     22 A               1
                        (     -10.494 eV)
    23      23      2.000      -0.318 au  BrCl          1.00     23 A               1
                        (      -8.643 eV)
    24      24      2.000      -0.318 au  BrCl          1.00     24 A               1
                        (      -8.643 eV)
    25      25      2.000      -0.275 au  BrCl          1.00     25 A               1
                        (      -7.473 eV)
    26      26      2.000      -0.275 au  BrCl          1.00     26 A               1
                        (      -7.473 eV)
    27      27       --        -0.234 au  BrCl          1.00     27 A               1
                        (      -6.362 eV)
    28      28       --         0.108 au  BrCl          1.00     28 A               1
                        (       2.946 eV)
    29      29       --         0.136 au  BrCl          1.00     29 A               1
                        (       3.714 eV)
    30      30       --         0.136 au  BrCl          1.00     30 A               1
                        (       3.714 eV)
    31      31       --         0.178 au  BrCl          1.00     31 A               1
                        (       4.845 eV)
    32      32       --         0.196 au  BrCl          1.00     32 A               1
                        (       5.346 eV)
    33      33       --         0.207 au  BrCl          1.00     33 A               1
                        (       5.636 eV)
    34      34       --         0.207 au  BrCl          1.00     34 A               1
                        (       5.636 eV)
    35      35       --         0.257 au  BrCl          1.00     35 A               1
                        (       6.991 eV)
    36      36       --         0.257 au  BrCl          1.00     36 A               1
                        (       6.991 eV)
    37      37       --         0.266 au  BrCl          1.00     37 A               1
                        (       7.246 eV)
    38      38       --         0.266 au  BrCl          1.00     38 A               1
                        (       7.246 eV)
    39      39       --         0.329 au  BrCl          1.00     39 A               1
                        (       8.952 eV)
    40      40       --         0.370 au  BrCl          1.00     40 A               1
                        (      10.057 eV)
    41      41       --         0.403 au  BrCl          1.00     41 A               1
                        (      10.954 eV)
    42      42       --         0.403 au  BrCl          1.00     42 A               1
                        (      10.954 eV)
    43      43       --         0.459 au  BrCl          1.00     43 A               1
                        (      12.478 eV)
    44      44       --         0.459 au  BrCl          1.00     44 A               1
                        (      12.478 eV)
    45      45       --         0.713 au  BrCl          1.00     45 A               1
                        (      19.398 eV)
    46      46       --         0.822 au  BrCl          1.00     46 A               1
                        (      22.376 eV)
    47      47       --         0.822 au  BrCl          1.00     47 A               1
                        (      22.376 eV)
    48      48       --         0.849 au  BrCl          1.00     48 A               1
                        (      23.115 eV)
    49      49       --         0.849 au  BrCl          1.00     49 A               1
                        (      23.115 eV)
    50      50       --         0.886 au  BrCl          1.00     50 A               1
                        (      24.116 eV)
    51      51       --         0.886 au  BrCl          1.00     51 A               1
                        (      24.116 eV)
    52      52       --         0.939 au  BrCl          1.00     52 A               1
                        (      25.556 eV)
    53      53       --         1.184 au  BrCl          1.00     53 A               1
                        (      32.210 eV)
    54      54       --         1.184 au  BrCl          1.00     54 A               1
                        (      32.210 eV)
    55      55       --         1.209 au  BrCl          1.00     55 A               1
                        (      32.904 eV)
    56      56       --         1.209 au  BrCl          1.00     56 A               1
                        (      32.904 eV)
    57      57       --         1.259 au  BrCl          1.00     57 A               1
                        (      34.254 eV)
    58      58       --         1.265 au  BrCl          1.00     58 A               1
                        (      34.421 eV)
    59      59       --         1.265 au  BrCl          1.00     59 A               1
                        (      34.421 eV)
    60      60       --         1.382 au  BrCl          1.00     60 A               1
                        (      37.593 eV)
    61      61       --         1.402 au  BrCl          1.00     61 A               1
                        (      38.155 eV)
    62      62       --         1.402 au  BrCl          1.00     62 A               1
                        (      38.156 eV)
    63      63       --         2.099 au  BrCl          1.00     63 A               1
                        (      57.130 eV)
    64      64       --         2.161 au  BrCl          1.00     64 A               1
                        (      58.811 eV)
    65      65       --         2.161 au  BrCl          1.00     65 A               1
                        (      58.811 eV)
    66      66       --         2.269 au  BrCl          1.00     66 A               1
                        (      61.734 eV)
    67      67       --         2.682 au  BrCl          1.00     67 A               1
                        (      72.971 eV)
    68      68       --         2.682 au  BrCl          1.00     68 A               1
                        (      72.971 eV)
    69      69       --         2.718 au  BrCl          1.00     69 A               1
                        (      73.972 eV)
    70      70       --         2.754 au  BrCl          1.00     70 A               1
                        (      74.950 eV)
    71      71       --         2.754 au  BrCl          1.00     71 A               1
                        (      74.951 eV)
    72      72       --         3.154 au  BrCl          1.00     72 A               1
                        (      85.818 eV)
    73      73       --         8.853 au  BrCl          1.00     73 A               1
                        (     240.895 eV)
    74      74       --         8.853 au  BrCl          1.00     74 A               1
                        (     240.896 eV)
    75      75       --         8.976 au  BrCl          1.00     75 A               1
                        (     244.248 eV)
    76      76       --        13.036 au  BrCl          1.00     76 A               1
                        (     354.737 eV)
    77      77       --        14.709 au  BrCl          1.00     77 A               1
                        (     400.240 eV)
    78      78       --        18.926 au  BrCl          1.00     78 A               1
                        (     515.004 eV)
    79      79       --        18.926 au  BrCl          1.00     79 A               1
                        (     515.004 eV)
    80      80       --        19.255 au  BrCl          1.00     80 A               1
                        (     523.962 eV)
    81      81       --        20.600 au  BrCl          1.00     81 A               1
                        (     560.556 eV)
    82      82       --        20.600 au  BrCl          1.00     82 A               1
                        (     560.556 eV)
    83      83       --        20.699 au  BrCl          1.00     83 A               1
                        (     563.247 eV)
    84      84       --        20.699 au  BrCl          1.00     84 A               1
                        (     563.248 eV)
    85      85       --        21.116 au  BrCl          1.00     85 A               1
                        (     574.599 eV)
    86      86       --       100.919 au  BrCl          1.00     86 A               1
                        (    2746.155 eV)
    87      87       --       100.919 au  BrCl          1.00     87 A               1
                        (    2746.155 eV)
    88      88       --       101.233 au  BrCl          1.00     88 A               1
                        (    2754.696 eV)
    89      89       --       216.073 au  BrCl          1.00     89 A               1
                        (    5879.648 eV)
    90      90       --       748.119 au  BrCl          1.00     90 A               1
                        (   20357.363 eV)
    91      91      2.000    -480.688 au  Br            1.00      1 A               2
                        (  -13080.195 eV)
    92      92      2.000     -61.445 au  Br            1.00      2 A               2
                        (   -1672.008 eV)
    93      93      2.000     -55.375 au  Br            1.00      3 A               2
                        (   -1506.824 eV)
    94      94      2.000     -55.375 au  Br            1.00      4 A               2
                        (   -1506.824 eV)
    95      95      2.000     -55.375 au  Br            1.00      5 A               2
                        (   -1506.824 eV)
    96      96      2.000      -8.066 au  Br            1.00      6 A               2
                        (    -219.480 eV)
    97      97      2.000      -5.966 au  Br            1.00      7 A               2
                        (    -162.330 eV)
    98      98      2.000      -5.966 au  Br            1.00      8 A               2
                        (    -162.330 eV)
    99      99      2.000      -5.966 au  Br            1.00      9 A               2
                        (    -162.330 eV)
   100     100      2.000      -2.173 au  Br            1.00     10 A               2
                        (     -59.143 eV)
   101     101      2.000      -2.173 au  Br            1.00     11 A               2
                        (     -59.143 eV)
   102     102      2.000      -2.173 au  Br            1.00     12 A               2
                        (     -59.143 eV)
   103     103      2.000      -2.173 au  Br            1.00     13 A               2
                        (     -59.143 eV)
   104     104      2.000      -2.173 au  Br            1.00     14 A               2
                        (     -59.143 eV)
   105     105      2.000      -0.386 au  Br            1.00     15 A               2
                        (     -10.500 eV)
   106     106      2.000       0.016 au  Br            1.00     16 A               2
                        (       0.447 eV)
   107     107      2.000       0.016 au  Br            1.00     17 A               2
                        (       0.447 eV)
   108     108      2.000       0.016 au  Br            1.00     18 A               2
                        (       0.447 eV)
   109     109       --         0.352 au  Br            1.00     19 A               2
                        (       9.589 eV)
   110     110       --         0.352 au  Br            1.00     20 A               2
                        (       9.589 eV)
   111     111       --         0.352 au  Br            1.00     21 A               2
                        (       9.589 eV)
   112     112       --         0.501 au  Br            1.00     22 A               2
                        (      13.634 eV)
   113     113       --         0.551 au  Br            1.00     23 A               2
                        (      15.005 eV)
   114     114       --         0.551 au  Br            1.00     24 A               2
                        (      15.005 eV)
   115     115       --         0.551 au  Br            1.00     25 A               2
                        (      15.005 eV)
   116     116       --         0.551 au  Br            1.00     26 A               2
                        (      15.005 eV)
   117     117       --         0.551 au  Br            1.00     27 A               2
                        (      15.005 eV)
   118     118       --         1.141 au  Br            1.00     28 A               2
                        (      31.038 eV)
   119     119       --         1.141 au  Br            1.00     29 A               2
                        (      31.038 eV)
   120     120       --         1.141 au  Br            1.00     30 A               2
                        (      31.038 eV)
   121     121       --         1.141 au  Br            1.00     31 A               2
                        (      31.038 eV)
   122     122       --         1.141 au  Br            1.00     32 A               2
                        (      31.038 eV)
   123     123       --         1.141 au  Br            1.00     33 A               2
                        (      31.038 eV)
   124     124       --         1.141 au  Br            1.00     34 A               2
                        (      31.038 eV)
   125     125       --         1.505 au  Br            1.00     35 A               2
                        (      40.949 eV)
   126     126       --         1.505 au  Br            1.00     36 A               2
                        (      40.949 eV)
   127     127       --         1.505 au  Br            1.00     37 A               2
                        (      40.949 eV)
   128     128       --         2.776 au  Br            1.00     38 A               2
                        (      75.551 eV)
   129     129       --         3.002 au  Br            1.00     39 A               2
                        (      81.690 eV)
   130     130       --         3.002 au  Br            1.00     40 A               2
                        (      81.690 eV)
   131     131       --         3.002 au  Br            1.00     41 A               2
                        (      81.690 eV)
   132     132       --         3.002 au  Br            1.00     42 A               2
                        (      81.690 eV)
   133     133       --         3.002 au  Br            1.00     43 A               2
                        (      81.690 eV)
   134     134       --         9.163 au  Br            1.00     44 A               2
                        (     249.341 eV)
   135     135       --         9.163 au  Br            1.00     45 A               2
                        (     249.341 eV)
   136     136       --         9.163 au  Br            1.00     46 A               2
                        (     249.341 eV)
   137     137       --        14.623 au  Br            1.00     47 A               2
                        (     397.911 eV)
   138     138       --        20.941 au  Br            1.00     48 A               2
                        (     569.821 eV)
   139     139       --        20.941 au  Br            1.00     49 A               2
                        (     569.821 eV)
   140     140       --        20.941 au  Br            1.00     50 A               2
                        (     569.821 eV)
   141     141       --        20.941 au  Br            1.00     51 A               2
                        (     569.821 eV)
   142     142       --        20.941 au  Br            1.00     52 A               2
                        (     569.821 eV)
   143     143       --       101.209 au  Br            1.00     53 A               2
                        (    2754.029 eV)
   144     144       --       101.209 au  Br            1.00     54 A               2
                        (    2754.029 eV)
   145     145       --       101.209 au  Br            1.00     55 A               2
                        (    2754.029 eV)
   146     146       --       746.807 au  Br            1.00     56 A               2
                        (   20321.657 eV)



 ================================
 (Slater-type)  F U N C T I O N S  ***  (Basis and Fit)  ***
 ================================
  

 Atom Type    1  (Br)
 ==============

 Valence Basis Sets:  20
 -----------------------
   1 S   41.300000
   1 S   32.800000
   2 S   13.900000
   2 P   19.450000
   2 P   13.100000
   3 S    7.200000
   3 S    4.950000
   3 P    7.900000
   3 P    5.050000
   3 D   10.900000
   3 D    6.050000
   3 D    3.500000
   4 S    4.500000
   4 S    2.800000
   4 S    1.800000
   4 P    3.250000
   4 P    1.950000
   4 P    1.200000
   4 D    1.800000
   4 F    1.800000

 Atom Type    2  (Cl)
 ==============

 Valence Basis Sets:  14
 -----------------------
   1 S   20.300000
   1 S   15.250000
   2 S    6.250000
   2 S    4.450000
   2 P    8.850000
   2 P    5.050000
   3 S    3.450000
   3 S    2.300000
   3 S    1.600000
   3 P    3.350000
   3 P    2.050000
   3 P    1.200000
   3 D    2.000000
   4 F    2.000000

 Atom Type    3  (Br)
 ==============

 Valence Basis Sets:  20
 -----------------------
   1 S   41.300000
   1 S   32.800000
   2 S   13.900000
   2 P   19.450000
   2 P   13.100000
   3 S    7.200000
   3 S    4.950000
   3 P    7.900000
   3 P    5.050000
   3 D   10.900000
   3 D    6.050000
   3 D    3.500000
   4 S    4.500000
   4 S    2.800000
   4 S    1.800000
   4 P    3.250000
   4 P    1.950000
   4 P    1.200000
   4 D    1.800000
   4 F    1.800000


 BAS: List of all Elementary Cartesian Basis Functions
 =====================================================

 The numbering in the list below (to the right of the function characteristics) is referred
 to in print-outs of MO eigenvectors and Mulliken populations in the BAS representation
 (as contrasted to the SFO representation).

 Notes:
 1. The functions are characterized by a polynomial prefactor (powers of x,y,z and r) and
    an exponential decay factor alpha.
 2. Since the basis sets are specific for an atom TYPE, the individual functions occur on
    all atoms of that type.
 3. The word 'Core' in the left margin signals that it is a Core Function (CF) : not a
    degree of freedom in the valence set, but only used to ensure orthogonalization of
    the other valence basis functions on the frozen Core Orbitals.


 (power of) X  Y  Z  R     Alpha  on Atom
            ==========     =====     ==========

 Br                                   1
                                  ---------------------------------------------------------------------------
            0  0  0  0    41.300      1
            0  0  0  0    32.800      2
            0  0  0  1    13.900      3
            1  0  0  0    19.450      4
            0  1  0  0    19.450      5
            0  0  1  0    19.450      6
            1  0  0  0    13.100      7
            0  1  0  0    13.100      8
            0  0  1  0    13.100      9
            0  0  0  2     7.200     10
            0  0  0  2     4.950     11
            1  0  0  1     7.900     12
            0  1  0  1     7.900     13
            0  0  1  1     7.900     14
            1  0  0  1     5.050     15
            0  1  0  1     5.050     16
            0  0  1  1     5.050     17
            2  0  0  0    10.900     18
            1  1  0  0    10.900     19
            1  0  1  0    10.900     20
            0  2  0  0    10.900     21
            0  1  1  0    10.900     22
            0  0  2  0    10.900     23
            2  0  0  0     6.050     24
            1  1  0  0     6.050     25
            1  0  1  0     6.050     26
            0  2  0  0     6.050     27
            0  1  1  0     6.050     28
            0  0  2  0     6.050     29
            2  0  0  0     3.500     30
            1  1  0  0     3.500     31
            1  0  1  0     3.500     32
            0  2  0  0     3.500     33
            0  1  1  0     3.500     34
            0  0  2  0     3.500     35
            0  0  0  3     4.500     36
            0  0  0  3     2.800     37
            0  0  0  3     1.800     38
            1  0  0  2     3.250     39
            0  1  0  2     3.250     40
            0  0  1  2     3.250     41
            1  0  0  2     1.950     42
            0  1  0  2     1.950     43
            0  0  1  2     1.950     44
            1  0  0  2     1.200     45
            0  1  0  2     1.200     46
            0  0  1  2     1.200     47
            2  0  0  1     1.800     48
            1  1  0  1     1.800     49
            1  0  1  1     1.800     50
            0  2  0  1     1.800     51
            0  1  1  1     1.800     52
            0  0  2  1     1.800     53
            3  0  0  0     1.800     54
            2  1  0  0     1.800     55
            2  0  1  0     1.800     56
            1  2  0  0     1.800     57
            1  1  1  0     1.800     58
            1  0  2  0     1.800     59
            0  3  0  0     1.800     60
            0  2  1  0     1.800     61
            0  1  2  0     1.800     62
            0  0  3  0     1.800     63

 Cl                                   2
                                  ---------------------------------------------------------------------------
            0  0  0  0    20.300     64
            0  0  0  0    15.250     65
            0  0  0  1     6.250     66
            0  0  0  1     4.450     67
            1  0  0  0     8.850     68
            0  1  0  0     8.850     69
            0  0  1  0     8.850     70
            1  0  0  0     5.050     71
            0  1  0  0     5.050     72
            0  0  1  0     5.050     73
            0  0  0  2     3.450     74
            0  0  0  2     2.300     75
            0  0  0  2     1.600     76
            1  0  0  1     3.350     77
            0  1  0  1     3.350     78
            0  0  1  1     3.350     79
            1  0  0  1     2.050     80
            0  1  0  1     2.050     81
            0  0  1  1     2.050     82
            1  0  0  1     1.200     83
            0  1  0  1     1.200     84
            0  0  1  1     1.200     85
            2  0  0  0     2.000     86
            1  1  0  0     2.000     87
            1  0  1  0     2.000     88
            0  2  0  0     2.000     89
            0  1  1  0     2.000     90
            0  0  2  0     2.000     91
            3  0  0  0     2.000     92
            2  1  0  0     2.000     93
            2  0  1  0     2.000     94
            1  2  0  0     2.000     95
            1  1  1  0     2.000     96
            1  0  2  0     2.000     97
            0  3  0  0     2.000     98
            0  2  1  0     2.000     99
            0  1  2  0     2.000    100
            0  0  3  0     2.000    101

 Br                                   3
                                  ---------------------------------------------------------------------------
            0  0  0  0    41.300    102
            0  0  0  0    32.800    103
            0  0  0  1    13.900    104
            1  0  0  0    19.450    105
            0  1  0  0    19.450    106
            0  0  1  0    19.450    107
            1  0  0  0    13.100    108
            0  1  0  0    13.100    109
            0  0  1  0    13.100    110
            0  0  0  2     7.200    111
            0  0  0  2     4.950    112
            1  0  0  1     7.900    113
            0  1  0  1     7.900    114
            0  0  1  1     7.900    115
            1  0  0  1     5.050    116
            0  1  0  1     5.050    117
            0  0  1  1     5.050    118
            2  0  0  0    10.900    119
            1  1  0  0    10.900    120
            1  0  1  0    10.900    121
            0  2  0  0    10.900    122
            0  1  1  0    10.900    123
            0  0  2  0    10.900    124
            2  0  0  0     6.050    125
            1  1  0  0     6.050    126
            1  0  1  0     6.050    127
            0  2  0  0     6.050    128
            0  1  1  0     6.050    129
            0  0  2  0     6.050    130
            2  0  0  0     3.500    131
            1  1  0  0     3.500    132
            1  0  1  0     3.500    133
            0  2  0  0     3.500    134
            0  1  1  0     3.500    135
            0  0  2  0     3.500    136
            0  0  0  3     4.500    137
            0  0  0  3     2.800    138
            0  0  0  3     1.800    139
            1  0  0  2     3.250    140
            0  1  0  2     3.250    141
            0  0  1  2     3.250    142
            1  0  0  2     1.950    143
            0  1  0  2     1.950    144
            0  0  1  2     1.950    145
            1  0  0  2     1.200    146
            0  1  0  2     1.200    147
            0  0  1  2     1.200    148
            2  0  0  1     1.800    149
            1  1  0  1     1.800    150
            1  0  1  1     1.800    151
            0  2  0  1     1.800    152
            0  1  1  1     1.800    153
            0  0  2  1     1.800    154
            3  0  0  0     1.800    155
            2  1  0  0     1.800    156
            2  0  1  0     1.800    157
            1  2  0  0     1.800    158
            1  1  1  0     1.800    159
            1  0  2  0     1.800    160
            0  3  0  0     1.800    161
            0  2  1  0     1.800    162
            0  1  2  0     1.800    163
            0  0  3  0     1.800    164

 Total number of charge fitting functions (nprimf)       446
 Total number of Cartesian basis functions (naos)        164
 Total number of Cartesian core functions  (ncos)          0

1
 ***************************************************************************************************



                                              ***********************
                                              *  T E C H N I C A L  *
                                              ***********************
  



 =============================================================
 P A R A L L E L I Z A T I O N  and  V E C T O R I Z A T I O N
 =============================================================
  
 Nr of parallel processes:                               12
 Maximum vector length in NumInt loops:                 128

 IO buffersize (Mb):                                     64.000000



 =====================
 S C F   U P D A T E S
 =====================
  
 Max. nr. of cycles:                               250
 Convergence criterion:                              0.0000010000
   secondary criterion:                              0.0010000000

 Mix parameter (when DIIS does not apply):           0.2000000000
 Mixed ADIIS+DIIS will be used
    Max number of expansion vectors:                10
    Pure ADIIS when Max([F,P]) is above              0.1000000000
    Pure DIIS when Max([F,P]) is below               0.0010000000
 Automatic ElectronSmearing (in case of problematic SCF convergence) disabled



 =================
 P R E C I S I O N  ***  (General: NumInt, NeglectFunctionTails, ...)  ***
 =================
  

 NumInt:           Target precision:                 6.0000000000
 -------           Initial precision:                6.0000000000
                   Min. precision (optimization):    6.0000000000

 Neglect Functions:          Basis functions:        0.1000000000E-07
 ------------------          Fit functions:          0.1000000000E-07



 ===========================
 L I N E A R   S C A L I N G
 ===========================
  

 Cut-off radii density fit:                        0.1000000000E-09
 Overlap cut-off criterion AO matrix elements:     0.1000000000E-07
 Cut-offs for Coulomb potential and fitted density:0.1000000000E-09
 Cut-off criterion for Coulomb multipole terms:    0.1000000000E-09
 Progressive Convergence parameter:                 0.000000000    
1
 ***************************************************************************************************



                                            ***************************
                                            *  C O M P U T A T I O N  *
                                            ***************************
  

 Number of elements of the density matrix on this node (used, total):      2016     13530



 ===========================================
 Numerical Integration : Fuzzy Cells (Becke)
 ===========================================
  
 Becke grid quality: GOOD           
  
 Lebedev angular grid order:             min:  11 max:  31
 Nr. of radial points:                   min:  80 max:  90

 Total nr. of points:      56050
 Nr. of blocks:              438
 Block length:               128
 Nr. of dummy points:         14


 Test of Precision of the Numerical Integration Grid
 ===================================================

 Integral of the Total Core Density:                   0.00000000000000



 ========================
 Density Fitting (zlmFit)
 ========================
  
 ZlmFit Fit Quality: NORMAL         
  
 Max L-expansion:                        min:   7 max:   7
 Nr. of radial interpolation points:     min:  60 max:  72



 =====
 S C F  ***  ScaSCF  ***
 =====
  
 Initial density matrix is calculated as sum of fragments

 CYCLE    1
 SCF Error: norm([F,P])=      1.741323250948, max([F,P])=      0.883826889137
 orbitals (Q,E):
 ---------------
 A :35...54          ( 2.00    -0.5532)  ( 2.00    -0.4276)  ( 2.00    -0.2659)  ( 2.00    -0.2170)
                     ( 2.00    -0.2170)  ( 2.00    -0.1212)  ( 2.00    -0.1211)  ( 2.00    -0.1129)
                     ( 2.00    -0.0155)  ( 2.00    -0.0155)  ( 0.00     0.0316)  ( 0.00     0.2376)
                     ( 0.00     0.2792)  ( 0.00     0.2854)  ( 0.00     0.2854)  ( 0.00     0.3275)
                     ( 0.00     0.3275)  ( 0.00     0.3445)  ( 0.00     0.3646)  ( 0.00     0.3646)

 CYCLE    2
  SDIIS (wt  0.000):  0.2085  0.7915
 A-DIIS (wt  1.000):  0.9196  0.0804
  DIIS coefficients:  0.9196  0.0804
 SCF Error: norm([F,P])=      0.870758635262, max([F,P])=      0.349514792865
 orbitals (Q,E):
 ---------------
 A :35...45          ( 2.00    -0.5412)  ( 2.00    -0.4561)  ( 2.00    -0.2410)  ( 2.00    -0.1863)
                     ( 2.00    -0.1863)  ( 2.00    -0.1118)  ( 2.00    -0.1118)  ( 2.00    -0.1100)
                     ( 2.00    -0.0403)  ( 2.00    -0.0403)  ( 0.00     0.0183)

 CYCLE    3
  SDIIS (wt  0.000):  0.0383 -1.6071  2.5689
 A-DIIS (wt  1.000):  0.8827  0.0000  0.1173
  DIIS coefficients:  0.8827  0.0000  0.1173
 SCF Error: norm([F,P])=      0.601256478592, max([F,P])=      0.260688989943
 orbitals (Q,E):
 ---------------
 A :35...45          ( 2.00    -0.5423)  ( 2.00    -0.4589)  ( 2.00    -0.2378)  ( 2.00    -0.1811)
                     ( 2.00    -0.1811)  ( 2.00    -0.1129)  ( 2.00    -0.1129)  ( 2.00    -0.1100)
                     ( 2.00    -0.0430)  ( 2.00    -0.0430)  ( 0.00     0.0164)

 CYCLE    4
  SDIIS (wt  0.000): -1.4756 -0.5244  3.0000
 A-DIIS (wt  1.000):  0.0000  0.0000  1.0000
  DIIS coefficients:  0.0000  0.0000  1.0000
 SCF Error: norm([F,P])=      0.575005309827, max([F,P])=      0.253582368515
 orbitals (Q,E):
 ---------------
 A :35...45          ( 2.00    -0.4967)  ( 2.00    -0.3223)  ( 2.00    -0.2900)  ( 2.00    -0.2745)
                     ( 2.00    -0.2745)  ( 2.00    -0.0673)  ( 2.00    -0.0673)  ( 2.00    -0.0548)
                     ( 2.00     0.0930)  ( 2.00     0.0930)  ( 0.00     0.1271)

 CYCLE    5
  SDIIS (wt  0.000): -0.9047 -1.2146  3.0000  0.1193
 A-DIIS (wt  1.000):  0.0000  0.0000  0.7835  0.2165
  DIIS coefficients:  0.0000  0.0000  0.7835  0.2165
 SCF Error: norm([F,P])=      1.572794053899, max([F,P])=      0.515319347169
 orbitals (Q,E):
 ---------------
 A :35...45          ( 2.00    -0.5093)  ( 2.00    -0.4579)  ( 2.00    -0.1982)  ( 2.00    -0.1528)
                     ( 2.00    -0.1528)  ( 2.00    -0.0971)  ( 2.00    -0.0785)  ( 2.00    -0.0785)
                     ( 2.00    -0.0376)  ( 2.00    -0.0376)  ( 0.00     0.0430)

 CYCLE    6
  SDIIS (wt  0.000): -0.2009 -2.0000  2.7647  0.0114  0.4248
 A-DIIS (wt  1.000):  0.0000  0.0000  0.4274  0.0000  0.5726
  DIIS coefficients:  0.0000  0.0000  0.4274  0.0000  0.5726
 SCF Error: norm([F,P])=      0.496106137749, max([F,P])=      0.140858824808
 orbitals (Q,E):
 ---------------
 A :35...45          ( 2.00    -0.5196)  ( 2.00    -0.4919)  ( 2.00    -0.2127)  ( 2.00    -0.1482)
                     ( 2.00    -0.1482)  ( 2.00    -0.0951)  ( 2.00    -0.0906)  ( 2.00    -0.0906)
                     ( 2.00    -0.0719)  ( 2.00    -0.0719)  ( 0.00     0.0057)

 CYCLE    7
  SDIIS (wt  0.000): -0.4064  1.3815 -0.6967 -0.0499  0.3016  0.4698
 A-DIIS (wt  1.000):  0.0000  0.0000  0.1260  0.0000  0.1604  0.7137
  DIIS coefficients:  0.0000  0.0000  0.1260  0.0000  0.1604  0.7137
 SCF Error: norm([F,P])=      0.292814915282, max([F,P])=      0.112697671746
 orbitals (Q,E):
 ---------------
 A :35...45          ( 2.00    -0.5219)  ( 2.00    -0.4737)  ( 2.00    -0.1974)  ( 2.00    -0.1358)
                     ( 2.00    -0.1358)  ( 2.00    -0.1083)  ( 2.00    -0.0991)  ( 2.00    -0.0991)
                     ( 2.00    -0.0556)  ( 2.00    -0.0556)  ( 0.00     0.0258)

 CYCLE    8
  SDIIS (wt  0.000): -0.1137 -0.2855  0.5078 -0.0082  0.1028  0.4998  0.2970
 A-DIIS (wt  1.000):  0.0000  0.0000  0.0000  0.0000  0.0000  0.6158  0.3842
  DIIS coefficients:  0.0000  0.0000  0.0000  0.0000  0.0000  0.6158  0.3842
 SCF Error: norm([F,P])=      0.400084435819, max([F,P])=      0.138802420265
 orbitals (Q,E):
 ---------------
 A :35...45          ( 2.00    -0.5295)  ( 2.00    -0.4907)  ( 2.00    -0.2016)  ( 2.00    -0.1289)
                     ( 2.00    -0.1289)  ( 2.00    -0.1035)  ( 2.00    -0.1005)  ( 2.00    -0.1005)
                     ( 2.00    -0.0705)  ( 2.00    -0.0705)  ( 0.00     0.0136)

 CYCLE    9
  SDIIS (wt  0.837):  0.0189 -0.8235  0.8653 -0.0055  0.0235  0.2578  0.1141  0.5494
 A-DIIS (wt  0.163):  0.0000  0.0000  0.0000  0.0000  0.0000  0.0402  0.0000  0.9598
  DIIS coefficients:  0.0158 -0.6894  0.7243 -0.0046  0.0196  0.2224  0.0955  0.6163
 SCF Error: norm([F,P])=      0.078363424062, max([F,P])=      0.017124991781
 orbitals (Q,E):
 ---------------
 A :35...45          ( 2.00    -0.5277)  ( 2.00    -0.4911)  ( 2.00    -0.2046)  ( 2.00    -0.1331)
                     ( 2.00    -0.1330)  ( 2.00    -0.1012)  ( 2.00    -0.0980)  ( 2.00    -0.0980)
                     ( 2.00    -0.0720)  ( 2.00    -0.0720)  ( 0.00     0.0109)

 CYCLE   10
  SDIIS (wt  0.943):  0.0010 -0.0504  0.0528 -0.0010  0.0017  0.0309  0.0136  0.2852  0.6663
 A-DIIS (wt  0.057):  0.0000  0.0000  0.0000  0.0000  0.0000  0.0000  0.0000  0.1679  0.8321
  DIIS coefficients:  0.0009 -0.0476  0.0498 -0.0009  0.0016  0.0291  0.0128  0.2785  0.6757
 SCF Error: norm([F,P])=      0.027181839181, max([F,P])=      0.006653774427
 orbitals (Q,E):
 ---------------
 A :35...45          ( 2.00    -0.5281)  ( 2.00    -0.4912)  ( 2.00    -0.2036)  ( 2.00    -0.1316)
                     ( 2.00    -0.1316)  ( 2.00    -0.1018)  ( 2.00    -0.0986)  ( 2.00    -0.0986)
                     ( 2.00    -0.0717)  ( 2.00    -0.0717)  ( 0.00     0.0116)

 CYCLE   11
  SDIIS (wt  0.997):  0.0000 -0.0004  0.0008  0.0001 -0.0018  0.0000  0.0014  0.0917  0.3079  0.6003
 A-DIIS (wt  0.003):  0.0000  0.0000  0.0000  0.0000  0.0000  0.0000  0.0000  0.0000  0.0000  1.0000
  DIIS coefficients:  0.0000 -0.0004  0.0008  0.0001 -0.0018  0.0000  0.0014  0.0914  0.3068  0.6016
 SCF Error: norm([F,P])=      0.003502538322, max([F,P])=      0.001336673447
 orbitals (Q,E):
 ---------------
 A :35...45          ( 2.00    -0.5280)  ( 2.00    -0.4911)  ( 2.00    -0.2036)  ( 2.00    -0.1317)
                     ( 2.00    -0.1317)  ( 2.00    -0.1017)  ( 2.00    -0.0985)  ( 2.00    -0.0985)
                     ( 2.00    -0.0717)  ( 2.00    -0.0717)  ( 0.00     0.0116)

 CYCLE   12
  SDIIS (wt  1.000): -0.0035  0.0041  0.0001 -0.0009 -0.0003  0.0003  0.0240  0.0814  0.2040  0.6909
  DIIS coefficients: -0.0035  0.0041  0.0001 -0.0009 -0.0003  0.0003  0.0240  0.0814  0.2040  0.6909
 SCF Error: norm([F,P])=      0.000423496599, max([F,P])=      0.000180567458
 orbitals (Q,E):
 ---------------
 A :35...45          ( 2.00    -0.5281)  ( 2.00    -0.4911)  ( 2.00    -0.2037)  ( 2.00    -0.1318)
                     ( 2.00    -0.1318)  ( 2.00    -0.1018)  ( 2.00    -0.0986)  ( 2.00    -0.0986)
                     ( 2.00    -0.0717)  ( 2.00    -0.0717)  ( 0.00     0.0116)

 CYCLE   13
  SDIIS (wt  1.000):  0.0002  0.0000 -0.0004 -0.0005 -0.0002  0.0056  0.0200  0.0537  0.3289  0.5926
  DIIS coefficients:  0.0002  0.0000 -0.0004 -0.0005 -0.0002  0.0056  0.0200  0.0537  0.3289  0.5926
 SCF Error: norm([F,P])=      0.000114859052, max([F,P])=      0.000028614242
 orbitals (Q,E):
 ---------------
 A :35...45          ( 2.00    -0.5281)  ( 2.00    -0.4911)  ( 2.00    -0.2037)  ( 2.00    -0.1318)
                     ( 2.00    -0.1318)  ( 2.00    -0.1018)  ( 2.00    -0.0986)  ( 2.00    -0.0986)
                     ( 2.00    -0.0717)  ( 2.00    -0.0717)  ( 0.00     0.0116)

 CYCLE   14
  SDIIS (wt  1.000):  0.0000 -0.0000 -0.0001 -0.0000 -0.0004 -0.0004 -0.0054  0.0071  0.1128  0.8865
  DIIS coefficients:  0.0000 -0.0000 -0.0001 -0.0000 -0.0004 -0.0004 -0.0054  0.0071  0.1128  0.8865
 SCF Error: norm([F,P])=      0.000035325982, max([F,P])=      0.000013571131
 orbitals (Q,E):
 ---------------
 A :35...45          ( 2.00    -0.5281)  ( 2.00    -0.4911)  ( 2.00    -0.2037)  ( 2.00    -0.1318)
                     ( 2.00    -0.1318)  ( 2.00    -0.1018)  ( 2.00    -0.0986)  ( 2.00    -0.0986)
                     ( 2.00    -0.0717)  ( 2.00    -0.0717)  ( 0.00     0.0116)

 CYCLE   15
  SDIIS (wt  1.000): -0.0000 -0.0000  0.0000 -0.0001 -0.0002 -0.0022 -0.0039  0.0259  0.4052  0.5754
  DIIS coefficients: -0.0000 -0.0000  0.0000 -0.0001 -0.0002 -0.0022 -0.0039  0.0259  0.4052  0.5754
 SCF Error: norm([F,P])=      0.000009393921, max([F,P])=      0.000003393657
 orbitals (Q,E):
 ---------------
 A :35...45          ( 2.00    -0.5281)  ( 2.00    -0.4911)  ( 2.00    -0.2037)  ( 2.00    -0.1318)
                     ( 2.00    -0.1318)  ( 2.00    -0.1018)  ( 2.00    -0.0986)  ( 2.00    -0.0986)
                     ( 2.00    -0.0717)  ( 2.00    -0.0717)  ( 0.00     0.0116)

 CYCLE   16
  SDIIS (wt  1.000): -0.0000  0.0000 -0.0000 -0.0000 -0.0006 -0.0017  0.0073  0.1332  0.2104  0.6515
  DIIS coefficients: -0.0000  0.0000 -0.0000 -0.0000 -0.0006 -0.0017  0.0073  0.1332  0.2104  0.6515
 SCF Error: norm([F,P])=      0.000000692766, max([F,P])=      0.000000268940
 orbitals (Q,E):
 ---------------
 A :35...45          ( 2.00    -0.5281)  ( 2.00    -0.4911)  ( 2.00    -0.2037)  ( 2.00    -0.1318)
                     ( 2.00    -0.1318)  ( 2.00    -0.1018)  ( 2.00    -0.0986)  ( 2.00    -0.0986)
                     ( 2.00    -0.0717)  ( 2.00    -0.0717)  ( 0.00     0.0116)

 SCF CONVERGED

 CYCLE   17
1
 ***************************************************************************************************



                                                *******************
                                                *  R E S U L T S  *
                                                *******************
  
 *** Setting up for NEW gradients in Focky
 *** Using FIT density in Focky

 Orbital Energies, per Irrep and Spin:
 ======================================
                        Occup              E (au)              E (eV)       Diff (eV) with prev. cycle
                        -----      --------------------        ------       --------------------------
 A
              35        2.000     -0.52807127498098E+00       -14.370              -1.63E-07
              36        2.000     -0.49108433711455E+00       -13.363              -2.54E-08
              37        2.000     -0.20367408216132E+00        -5.542              -7.87E-08
              38        2.000     -0.13176527404053E+00        -3.586              -5.44E-08
              39        2.000     -0.13176218376115E+00        -3.585              -5.44E-08
              40        2.000     -0.10175116279409E+00        -2.769              -1.00E-07
              41        2.000     -0.98554445189419E-01        -2.682              -1.55E-07
              42        2.000     -0.98552892005862E-01        -2.682              -1.55E-07
              43        2.000     -0.71677290793230E-01        -1.950              -3.72E-08
              44        2.000     -0.71676310364663E-01        -1.950              -3.72E-08
              45        0.000      0.11598527930023E-01         0.316
              46        0.000      0.24435808695793E+00         6.649
              47        0.000      0.28493566482502E+00         7.753
              48        0.000      0.28493965728817E+00         7.754
              49        0.000      0.29832104567969E+00         8.118
              50        0.000      0.32657197739382E+00         8.886
              51        0.000      0.32657549369935E+00         8.887
              52        0.000      0.35405989071012E+00         9.634
              53        0.000      0.35406879726579E+00         9.635
              54        0.000      0.36402106893576E+00         9.906
  
 HOMO :       44 A                -0.71676310364663E-01
 LUMO :       45 A                 0.11598527930023E-01
  


 All Electron Calculation, thus no Orbital Energies of the Core Orbitals are calculated


 Fit test: (difference of exact and fit density, squared integrated, result summed over spins)
         Sum-of-Fragments:                             0.00161442383344
         Orthogonalized Fragments:                     0.00161674152837
         SCF:                                          0.00161962027027



 ==========================
 Electron Density at Nuclei
 ==========================
  
 The electron density is calculated at points on a small sphere around the center of a nucleus.
 The printed electron density is the average electron density on these points.
 The radius of the sphere is the printed approximate finite nuclear radius.

         Atom        Nuclear Radius (Angstrom)             Electron Density (a.u.)
         ----        -------------------------             -----------------------
     1)   Br                0.0000536685                            29315.30914
     2)   Cl                0.0000426624                             3210.61184
     3)   Br                0.0000536685                            29313.22241



 =======================================
 M U L L I K E N   P O P U L A T I O N S
 =======================================
  
 The survey below gives for each atom:
 a) the total charge (Z minus electrons)
 b) the net spin polarization (nr of electrons spin-A minus spin-B)
 c) for each spin the atomic electron valence density (integrated) per L-value.

 Atom              Charge    Spin density          S         P         D         F
 ----              ------    ------------       ------    ------    ------    ------
 1 Br             -0.0973                       7.9947   16.9711   10.1149    0.0167
 2 Cl             -0.4348                       5.9775   11.4345    0.0188    0.0040
 3 Br             -0.4679                       7.9904   17.4389   10.0316    0.0071

 Populations of individual BAS functions
 ----------------------------------------
 1 Br           0.3611  1.5681  2.0733  0.7130  0.7125  0.7134  1.2650  1.2660  1.2644  1.4387
                0.5883  1.1361  1.1254  1.1424  0.8927  0.9024  0.8871  0.2678  0.4017  0.4018
                0.2676  0.4016  0.2680  0.7772  1.1650  1.1661  0.7755  1.1653  0.7782  0.2882
                0.4345  0.4322  0.2929  0.4334  0.2856  0.2931  1.2516  0.4205  0.5636  0.4125
                0.6519  0.9439  0.7510  1.0566  0.2052  0.0984  0.2675  0.0052  0.0464  0.0056
                0.0454  0.0151 -0.0054 -0.0029 -0.0004  0.0014  0.0145  0.0023 -0.0060  0.0170
                0.0121 -0.0101 -0.0111
 2 Cl           0.5055  1.4530  1.7123  0.2554  0.7268  0.7235  0.7287  1.2714  1.2758  1.2689
                0.6024  1.0398  0.4092  0.2825  0.2410  0.3067  1.0318  0.9417  1.0845  0.5319
                0.4242  0.5949  0.0004  0.0065  0.0013  0.0135  0.0035 -0.0063 -0.0015 -0.0015
                0.0008  0.0063  0.0005 -0.0034  0.0087  0.0063 -0.0056 -0.0065
 3 Br           0.3611  1.5681  2.0732  0.7131  0.7128  0.7132  1.2649  1.2654  1.2646  1.4363
                0.5983  1.1371  1.1319  1.1401  0.8916  0.8963  0.8888  0.2677  0.4014  0.4016
                0.2677  0.4015  0.2676  0.7769  1.1647  1.1654  0.7755  1.1650  0.7777  0.2885
                0.4340  0.4329  0.2915  0.4335  0.2869  0.2674  1.2114  0.4746  0.5840  0.5090
                0.6278  0.9570  0.8560  1.0159  0.2991  0.2320  0.3383  0.0020  0.0100  0.0025
                0.0165  0.0064 -0.0059 -0.0023 -0.0011  0.0009  0.0091  0.0010 -0.0044  0.0114
                0.0078 -0.0075 -0.0078

 Gross Charges per Atom (Z minus electrons)
 ==========================================
            -0.0973   -0.4348   -0.4679
 Net Total: -1.00000000


 Atom-Atom Population Matrix (off-diagonal elements not doubled)
 ===============================================================

     1 :    35.0360
     2 :     0.0297   17.3947
     3 :     0.0316    0.0104   35.4259


 Frag-Frag Population Matrix (off-diagonal elements not doubled)
 ===============================================================

     1 :    52.4901
     2 :     0.0420   35.4259



 =================================================
 H I R S H F E L D   C H A R G E   A N A L Y S I S
 =================================================
  
 For each fragment: the (numerical) integral of rho(scf) * rho(fragment)/rho(sum-of-fragments)
 (nuclear charges are included, electrons are counted negative)

 The fragments and their ordering are defined in the early G E O M E T R Y output section.
 If you use single-atom fragments, this usually implies that all atoms of the same
 chemical type are grouped together. This may not be the order in which you listed them
 in the input file!

    1  BrCl                     -0.4084
    2  Br                       -0.5916

 Sum of these charges (accuracy NumInt/Tails) =          -1.00000054



 =============================
 V O R O N O I   C H A R G E S
 =============================
  
 For each atom: the (numerical) integral of the total electronic charge density in its Voronoi cell,
 i.e. the region of space that is closer to that atom than to any other atom.
 (cf. Wigner-Seitz cells in crystals)

 Within the Voronoi cell the subintegrals over the atomic sphere and the remaining part are evaluated
 separately to give the numbers of electrons (negative charge) in these regions.
 The net total charge in the cell (including the nuclear charge) is also given.

 Values are provided for
    a) the Initial (sum-of-fragments) density
    b) the Orthogonalized-Fragments density
    c) the SCF density
    d) the Voronoi Deformation Density (VDD): the difference SCF-Initial for the complete atomic cell
 ---------------------------------------------------------------------------------------------------
 Total NetCharge:              -1.000                     -1.000                     -1.000    0.000
 (accuracy NumInt/Tails)

 Remark: the 'NetTotal' Voronoi charges often do not match the Mulliken and/or Hirshfeld charges very
 well. This is caused by the fact that chemically different atoms are not treated in accordance with
 their relative sizes. (Voronoi cells are defined by boundary planes halfway between the atoms.)
 However, the CHANGES in charge, comparing 'Initial' to 'SCF' for instance, do give a fair indication
 of the flow of charge caused by the relaxation from sum-of-fragments to self-consistency.

 Warning: the absolute accuracy of the VDD charges obtained using the Fuzzy Cells (Becke) integration
 scheme is much poorer than the one obtained with an 'equivalent' Voronoi integration grid. 



 =================================================================
 M U L T I P O L E   D E R I V E D   C H A R G E   A N A L Y S I S
 =================================================================

 This charge analysis uses the atomic multipoles (obtained from the fitted density) up to some level X,
 and reconstructs these multipoles exactly (up to level X) by distributing charges over all atoms.
 This is achieved by using Lagrange multipliers and a weight function to keep the multipoles local.

 Dummy atoms can be included (by setting INCDUM in MDC-block to 1) to obtain a fractional charge.
 This is generally useful and necessary only for small symmetrical molecules, when there are not
 enough degrees of freedom to reconstruct the multipoles.

 Since the atomic multipoles are reconstructed up to level X,
 the molecular multipoles are represented also up to level X.
 The recommended level is to reconstruct up to quadrupole : -> MDC-q charges.

 See: M. Swart, P.Th. van Duijnen, J.G. Snijders, J.Comput.Chem., (2001), p. 79-88.

 ------------------------------------------------------------- 
 Atomic electronic multipole moments from SCF equations (a.u.)
 ------------------------------------------------------------- 

   atom        charge        dip-x     dip-y     dip-z      quad-xx   quad-xy   quad-xz   quad-yy   quad-yz   quad-zz
 --------------------------------------------------------------------------------------------------------------------
    1 Br    -0.062084     0.113629 -0.186889  0.007183    -0.236489 -1.097968  0.042229  1.470518 -0.069395 -1.234029
    2 Cl    -0.509324    -0.015242  0.024989 -0.001001    -0.099428 -0.461882  0.017795  0.618486 -0.029274 -0.519057
    3 Br    -0.428592     0.126745 -0.208416  0.008026    -0.159984 -0.742616  0.028553  0.994581 -0.046977 -0.834597

 --------------------------------------- 
 Multipole derived atomic charges (a.u.)
 --------------------------------------- 

 The MDC-m charges are just the Monopole terms in the multipole expansion, while for the MDC-d charges
 also the Dipoles are reconstructed. The usually preferred charges are the MDC-q charges.
 These reconstruct the Monopoles, Dipoles and Quadrupoles (both atomic AND molecular).

        Atom    Level:     MDC-m        MDC-d        MDC-q
 ---------------------------------------------------------
     1     Br          -0.062084    -0.018351    -0.062031
     2     Cl          -0.509324    -0.487492    -0.465048
     3     Br          -0.428592    -0.494157    -0.472921

 ------------------------------------------------ 
 Average absolute deviations in atomic multipoles
 ------------------------------------------------ 

 Stated here are the average differences between the atomic multipoles
 and the reconstructed atomic multipoles (from the distributed charges).
 If these values are not zero, this means there are not enough degrees of freedom,
 to be able to reconstruct the atomic multipoles. (This usually happens only
 for small and/or highly symmetric molecules). If this is the case, one could add
 dummy atoms as extra point charges (and setting INCDUM in MDC-block to 1).

 Level:                                 MDC-d        MDC-q
 ---------------------------------------------------------
 Charge   (a.u.)                       0.0000       0.0000
 Dipole   (Debye)                      0.0000       0.0000
 Quad.    (a.u.)                       0.3213       0.2060

 --------------------------------------- 
 Represented molecular multipole moments
 --------------------------------------- 

 Given here are the Molecular multipole moments from the atomic charges, and from the Fit Density.
 Note that the atomic charges represent the latter, NOT the ones from the Exact density.

            Q (a.u.)             Dipole moment (Debye)                                          Quadrupole moment (a.u.)
                                 x         y         z              xx        xy        xz        yy        yz        zz
------------------------------------------------------------------------------------------------------------------------
MDC-m        -1.0000       23.1835  -14.1104    0.1898        -65.6501   90.7849   -1.5914   -2.4645    1.5589   68.1145
MDC-d        -1.0000       23.7557  -15.0516    0.2259        -67.5668   98.6549   -1.8469   -5.3508    1.7775   72.9176
MDC-q        -1.0000       23.7557  -15.0516    0.2259        -67.6667   97.9597   -1.8202   -4.7300    1.7336   72.3967
 
Fit.Dens.    -1.0000       23.7557  -15.0516    0.2259        -67.9129   97.3966   -1.7984   -3.1992    1.6981   71.1121



 =============
 Dipole Moment  ***  (Debye)  ***
 =============
  
 Vector   :        23.76215944    -15.06214807      0.22633245
 Magnitude:        28.13467171

 This molecular dipole moment is calculated with analytic integration
 ************************************************************************************
 Since the molecule is NOT NEUTRAL, the dipole moment depends on the choice of origin
 ************************************************************************************



 =========================================
 Quadrupole Moment (Buckingham convention)  ***  (a.u.)  ***
 =========================================
  
      quad-xx        quad-xy        quad-xz        quad-yy        quad-yz        quad-zz
    -67.93669042    96.32047574    -1.75658777    -3.21933443     1.62702457    71.15602485

 This molecular quadrupole moment is calculated with analytic integration
1



                                             *************************
                                             *  SFO MO coefficients  *
                                             *************************
  


                                       === A ===
 MOs expanded in CFs+SFOs
 ========================

 The SFOs have been characterized in an earlier part of output.
 To deduce the bonding / antibonding nature of SFO combinations in an MO, consider the products
 of the coefficients AND THE OVERLAP between the SFOs (may be NEGATIVE). The SFO overlap matrix
 is printed later, in the SFO Populations section.

 (The CF coefficients are not printed)

 MOs :      1        2        3        4        5        6        7        8        9       10
 occup:   2.00     2.00     2.00     2.00     2.00     2.00     2.00     2.00     2.00     2.00
 CF+SFO
     1  -1.0000   0.0000   0.0000  -0.0000  -0.0000   0.0000   0.0000   0.0000  -0.0000   0.0000
     2   0.0000   0.0000   1.0000   0.0000  -0.0000  -0.0000   0.0000  -0.0000  -0.0000   0.0000
     3  -0.0000  -0.0000  -0.0000   1.0000   0.0000  -0.0007   0.0000  -0.0000   0.0000  -0.0000
     4   0.0000  -0.0000  -0.0000   0.0007   0.0000   1.0000   0.0000   0.0000  -0.0000  -0.0000
     5  -0.0000  -0.0000  -0.0000  -0.0000   0.0000  -0.0000   0.9999   0.0133   0.0000  -0.0000
     6  -0.0000  -0.0000  -0.0000  -0.0000  -0.0000   0.0000   0.0133  -0.9999  -0.0000  -0.0000
     7   0.0000   0.0000  -0.0001   0.0000  -0.0000  -0.0000  -0.0000   0.0000  -0.0000   0.0000
     8  -0.0000   0.0000   0.0000   0.0001  -0.0000  -0.0000   0.0000   0.0000  -0.0000   0.0000
     9   0.0000   0.0000  -0.0000   0.0000  -0.0000  -0.0000  -0.0000   0.0000  -0.0000   0.0000
    10  -0.0000   0.0000   0.0000  -0.0000  -0.0000   0.0000  -0.0000   0.0000   0.0000   0.0000
    11   0.0000   0.0000  -0.0000   0.0000  -0.0000  -0.0000   0.0000   0.0000  -0.0000  -0.0000
    12  -0.0000  -0.0000  -0.0000   0.0000   0.0000   0.0000  -0.0000  -0.0000  -0.0000  -0.0000
    13   0.0000   0.0000   0.0000  -0.0000  -0.0000  -0.0000   0.0000  -0.0000  -0.0000  -0.0000
    14  -0.0000  -0.0000  -0.0000   0.0000   0.0000   0.0000  -0.0000  -0.0000   0.0000   0.0000
    15   0.0000   0.0000   0.0000   0.0000   0.0000  -0.0000   0.0000   0.0000  -0.0000   0.0000
    16  -0.0000  -0.0000  -0.0000  -0.0000  -0.0000  -0.0000   0.0000  -0.0000  -0.0000  -0.0000
    17  -0.0000  -0.0000  -0.0000  -0.0000  -0.0000  -0.0000   0.0000   0.0000  -0.0000  -0.0000
    18  -0.0000  -0.0000  -0.0000  -0.0000  -0.0000   0.0000  -0.0000  -0.0000  -0.0000  -0.0000
    19   0.0000   0.0000   0.0000   0.0000   0.0000   0.0000  -0.0000   0.0000  -0.0000  -0.0000
    20   0.0000   0.0000   0.0000  -0.0000  -0.0000   0.0000  -0.0000   0.0000  -0.0000   0.0000
    21   0.0000   0.0000   0.0000  -0.0000  -0.0000   0.0000  -0.0000   0.0000  -0.0000   0.0000
    22  -0.0000  -0.0000  -0.0000   0.0000   0.0000  -0.0000   0.0000  -0.0000   0.0000  -0.0000
    23   0.0000   0.0000   0.0000   0.0000  -0.0000   0.0000  -0.0000   0.0000  -0.0000  -0.0000
    24  -0.0000  -0.0000  -0.0000  -0.0000   0.0000  -0.0000   0.0000   0.0000   0.0000   0.0000
    25  -0.0000  -0.0000  -0.0000  -0.0000   0.0000  -0.0000   0.0000  -0.0000   0.0000   0.0000
    26   0.0000   0.0000   0.0000   0.0000  -0.0000   0.0000  -0.0000  -0.0000  -0.0000  -0.0000
    27   0.0000   0.0000   0.0000  -0.0000  -0.0000   0.0000   0.0000   0.0000  -0.0000   0.0000
    28  -0.0000  -0.0000  -0.0001   0.0000   0.0000   0.0000  -0.0000  -0.0000   0.0000  -0.0000
    29   0.0000   0.0000   0.0000   0.0000  -0.0000  -0.0000   0.0000  -0.0000  -0.0000   0.0000
    30  -0.0000  -0.0000  -0.0000   0.0000   0.0000   0.0000  -0.0000  -0.0000   0.0000  -0.0000
    31   0.0000   0.0000   0.0000   0.0000  -0.0000  -0.0000   0.0000  -0.0000   0.0000  -0.0000
    32   0.0000   0.0000   0.0000   0.0000  -0.0000  -0.0000   0.0000   0.0000  -0.0000   0.0000
    33   0.0000   0.0000   0.0000   0.0000  -0.0000   0.0000  -0.0000   0.0000  -0.0000  -0.0000
    34  -0.0000  -0.0000  -0.0000  -0.0000   0.0000  -0.0000   0.0000   0.0000   0.0000   0.0000
    35  -0.0000   0.0000   0.0000  -0.0000  -0.0000  -0.0000   0.0000  -0.0000  -0.0000  -0.0000
    36   0.0000   0.0000   0.0000   0.0000  -0.0000   0.0000  -0.0000  -0.0000   0.0000   0.0000
    37  -0.0000   0.0000  -0.0000  -0.0000  -0.0000  -0.0000   0.0000   0.0000   0.0000   0.0000
    38   0.0000   0.0000   0.0000   0.0000   0.0000   0.0000  -0.0000   0.0000  -0.0000  -0.0000
    39  -0.0000  -0.0000   0.0000   0.0000  -0.0000  -0.0000  -0.0000  -0.0000   0.0000  -0.0000
    40  -0.0000   0.0000  -0.0000   0.0000   0.0000   0.0000   0.0000   0.0000  -0.0000   0.0000
    41  -0.0000  -0.0000   0.0000  -0.0000  -0.0000   0.0000  -0.0000  -0.0000   0.0000   0.0000
    42   0.0000  -0.0000   0.0000   0.0000   0.0000   0.0000  -0.0000   0.0000   0.0000   0.0000
    43   0.0000  -0.0000   0.0000  -0.0000  -0.0000  -0.0000   0.0000  -0.0000   0.0000   0.0000
    44   0.0000   0.0000   0.0000   0.0000  -0.0000   0.0000  -0.0000  -0.0000  -0.0000  -0.0000
    45   0.0000   0.0000   0.0000  -0.0000   0.0000   0.0000   0.0000   0.0000  -0.0000   0.0000
    46   0.0000  -0.0000   0.0000  -0.0000   0.0000  -0.0000   0.0000  -0.0000   0.0000   0.0000
    47  -0.0000  -0.0000  -0.0000   0.0000  -0.0000   0.0000  -0.0000  -0.0000  -0.0000  -0.0000
    48  -0.0000   0.0000  -0.0000   0.0000   0.0000   0.0000   0.0000   0.0000   0.0000  -0.0000
    49  -0.0000  -0.0000  -0.0000   0.0000   0.0000   0.0000   0.0000  -0.0000   0.0000  -0.0000
    50   0.0000   0.0000   0.0000   0.0000   0.0000   0.0000  -0.0000  -0.0000   0.0000   0.0000
    51  -0.0000  -0.0000  -0.0000   0.0000  -0.0000   0.0000   0.0000  -0.0000   0.0000  -0.0000
    52  -0.0000  -0.0000  -0.0000   0.0000  -0.0000   0.0000   0.0000   0.0000   0.0000  -0.0000
    53  -0.0000  -0.0000  -0.0000  -0.0000  -0.0000  -0.0000   0.0000   0.0000   0.0000  -0.0000
    54  -0.0000  -0.0000  -0.0000  -0.0000  -0.0000  -0.0000   0.0000  -0.0000   0.0000  -0.0000
    55   0.0000   0.0000   0.0000  -0.0000   0.0000   0.0000   0.0000  -0.0000  -0.0000  -0.0000
    56   0.0000   0.0000   0.0000  -0.0000   0.0000   0.0000   0.0000  -0.0000  -0.0000  -0.0000
    57   0.0000   0.0000   0.0000  -0.0000   0.0000  -0.0000   0.0000   0.0000  -0.0000   0.0000
    58  -0.0000  -0.0000  -0.0000   0.0000  -0.0000   0.0000  -0.0000  -0.0000   0.0000  -0.0000
    59   0.0000   0.0000   0.0000  -0.0000   0.0000  -0.0000   0.0000  -0.0000  -0.0000   0.0000
    60  -0.0000  -0.0000  -0.0000   0.0000  -0.0000   0.0000  -0.0000  -0.0000   0.0000  -0.0000
    61  -0.0000  -0.0000  -0.0000   0.0000  -0.0000   0.0000  -0.0000   0.0000   0.0000   0.0000
    62   0.0000   0.0000   0.0000  -0.0000   0.0000  -0.0000   0.0000   0.0000  -0.0000  -0.0000
    63   0.0000   0.0000   0.0000  -0.0000  -0.0000  -0.0000  -0.0000  -0.0000   0.0000  -0.0000
    64  -0.0000  -0.0000  -0.0000  -0.0000  -0.0000  -0.0000   0.0000  -0.0000   0.0000   0.0000
    65  -0.0000  -0.0000  -0.0000   0.0000  -0.0000   0.0000   0.0000   0.0000   0.0000   0.0000
    66  -0.0000  -0.0000  -0.0000   0.0000   0.0000  -0.0000   0.0000  -0.0000  -0.0000   0.0000
    67   0.0000  -0.0000  -0.0000  -0.0000   0.0000  -0.0000   0.0000   0.0000  -0.0000   0.0000
    68  -0.0000   0.0000   0.0000  -0.0000  -0.0000  -0.0000   0.0000  -0.0000   0.0000   0.0000
    69   0.0000  -0.0000  -0.0000  -0.0000   0.0000   0.0000  -0.0000  -0.0000  -0.0000   0.0000
    70  -0.0000   0.0000   0.0000  -0.0000  -0.0000  -0.0000   0.0000  -0.0000  -0.0000  -0.0000
    71   0.0000  -0.0000  -0.0000  -0.0000   0.0000  -0.0000   0.0000   0.0000  -0.0000  -0.0000
    72  -0.0000  -0.0000  -0.0000   0.0000  -0.0000   0.0000   0.0000   0.0000   0.0000  -0.0000
    73  -0.0000  -0.0000  -0.0000  -0.0000   0.0000  -0.0000  -0.0000  -0.0000   0.0000   0.0000
    74  -0.0000  -0.0000  -0.0000   0.0000   0.0000  -0.0000   0.0000  -0.0000  -0.0000  -0.0000
    75  -0.0000  -0.0000  -0.0000   0.0000   0.0000  -0.0000  -0.0000   0.0000  -0.0000   0.0000
    76   0.0000  -0.0000   0.0001  -0.0000   0.0000   0.0000  -0.0000   0.0000  -0.0000  -0.0000
    77   0.0000  -0.0000  -0.0000  -0.0001   0.0000   0.0000  -0.0000   0.0000   0.0000  -0.0000
    78   0.0000   0.0000  -0.0000  -0.0000  -0.0000  -0.0000  -0.0000   0.0000  -0.0000  -0.0000
    79  -0.0000  -0.0000   0.0000   0.0000   0.0000   0.0000   0.0000   0.0000  -0.0000   0.0000
    80   0.0000   0.0000  -0.0000  -0.0000  -0.0000  -0.0000  -0.0000   0.0000   0.0000  -0.0000
    81   0.0000  -0.0000  -0.0000   0.0000  -0.0000   0.0000   0.0000  -0.0000   0.0000   0.0000
    82  -0.0000  -0.0000   0.0000   0.0000  -0.0000   0.0000   0.0000  -0.0000  -0.0000  -0.0000
    83   0.0000   0.0000  -0.0000  -0.0000   0.0000  -0.0000  -0.0000  -0.0000  -0.0000  -0.0000
    84   0.0000  -0.0000  -0.0000   0.0000  -0.0000   0.0000  -0.0000   0.0000  -0.0000  -0.0000
    85   0.0000  -0.0000   0.0000   0.0000  -0.0000  -0.0000  -0.0000   0.0000   0.0000  -0.0000
    86  -0.0000   0.0000  -0.0000   0.0000  -0.0000   0.0000  -0.0001  -0.0000   0.0000   0.0000
    87  -0.0000   0.0000   0.0000   0.0000  -0.0000  -0.0000  -0.0000   0.0001  -0.0000   0.0000
    88  -0.0000   0.0000  -0.0000   0.0000  -0.0000   0.0001   0.0000   0.0000   0.0000  -0.0000
    89  -0.0000  -0.0000  -0.0001   0.0000   0.0000  -0.0000  -0.0000  -0.0000  -0.0000  -0.0000
    90  -0.0001  -0.0000   0.0000   0.0000   0.0000  -0.0000  -0.0000   0.0000   0.0000  -0.0000
    91  -0.0000  -1.0000   0.0000   0.0000   0.0000  -0.0000   0.0000   0.0000  -0.0000  -0.0000
    92   0.0000   0.0000   0.0000  -0.0000   1.0000  -0.0000   0.0000   0.0000  -0.0004  -0.0000
    93   0.0000  -0.0000   0.0000   0.0000   0.0000  -0.0000  -0.0000   0.0000   0.0349  -0.8285
    94  -0.0000   0.0000  -0.0000  -0.0000  -0.0003   0.0000   0.0000   0.0000  -0.8443   0.2748
    95  -0.0000   0.0000  -0.0000  -0.0000  -0.0002   0.0000  -0.0000  -0.0000  -0.5347  -0.4880
    96  -0.0000   0.0000  -0.0000  -0.0000   0.0001   0.0000  -0.0000  -0.0000  -0.0000  -0.0000
    97  -0.0000  -0.0000  -0.0000  -0.0000  -0.0000   0.0000   0.0000   0.0000  -0.0000  -0.0000
    98   0.0000   0.0000   0.0000   0.0000   0.0000  -0.0000   0.0000  -0.0000   0.0000  -0.0000
    99  -0.0000  -0.0000  -0.0000  -0.0000  -0.0000   0.0000  -0.0000  -0.0000  -0.0000   0.0000
   100  -0.0000  -0.0000  -0.0000   0.0000  -0.0000   0.0000  -0.0000   0.0000  -0.0000   0.0000
   101   0.0000   0.0000   0.0000  -0.0000   0.0000  -0.0000  -0.0000  -0.0000   0.0000   0.0000
   102   0.0000   0.0000   0.0000  -0.0000   0.0000  -0.0000  -0.0000   0.0000   0.0000   0.0000
   103   0.0000   0.0000   0.0000  -0.0000   0.0000  -0.0000   0.0000   0.0000   0.0000  -0.0000
[...]
  144    2.50745178142220E-17  4.33854878016581E-16  2.01115803844362E-16  4.95408155142981E-16
  145   -1.81887474344864E-16  1.91324030182208E-16  1.00604061909084E-16  3.19047727943268E-16
  146    2.89210929510508E-16 -2.22478285794026E-16  1.47776756109774E-16 -2.25514051876985E-16

 column         133                   134                   135                   136
 row
  133    1.00000000000000E+00
  134    8.23655049668318E-16  9.99999999999998E-01
  135    1.95385169352488E-16 -1.49340169819147E-15  1.00000000000000E+00
  136    5.01805015789456E-16  7.67469266473075E-16 -2.62948335491199E-16  1.00000000000000E+00
  137    3.32253967516420E-15  1.00835566601480E-16 -3.45917839800383E-16 -3.54381035667323E-16
  138    1.29560529239030E-15  5.13409286516730E-16  1.21508858435852E-15 -2.28319120595826E-17
  139    3.77755452477288E-16 -1.58263738680832E-16  1.82117774662289E-16 -9.48999104317018E-16
  140    1.60930026345221E-16 -5.99433077069199E-16  2.96323167383582E-16 -9.45026718317742E-17
  141   -2.68638405045833E-16 -4.11643268698352E-16  2.09442233668823E-16 -2.97234052056681E-17
  142    5.29018410909503E-16  4.87235473378976E-16 -1.03804023343635E-16  3.48903882402361E-16
  143    1.32581393663255E-17 -1.76878114670562E-16 -1.46091386282327E-15  7.23602478999791E-17
  144   -2.10680705025549E-16 -5.04736634870211E-16  2.43351568414496E-15 -1.39317652636196E-15
  145    1.21744773427800E-16 -1.33289675334559E-16  7.20414476942536E-16 -2.03211876869593E-15
  146   -1.08946055302206E-15  1.48183331924456E-16 -2.45978367882649E-17 -3.19893850991848E-16

 column         137                   138                   139                   140
 row
  137    9.99999999999980E-01
  138    2.34958896064066E-16  9.99999999999998E-01
  139   -1.97105575324679E-15  5.45844751012393E-16  9.99999999999996E-01
  140    2.79589958718680E-17  1.78279798481518E-16 -4.21857083143920E-16  1.00000000000000E+00
  141   -5.48650239111804E-17 -4.19670228121795E-16  2.54985041264371E-17 -1.27447120989702E-15
  142   -5.88766301828919E-16 -2.52034864386573E-16 -7.61486245941421E-16 -8.03987136538976E-16
  143   -4.22183571331694E-17  1.49013640985785E-16  5.79998172446606E-16 -3.51339125286774E-17
  144    5.11750492844312E-16 -2.67726891922264E-16 -2.54505943216664E-16 -4.98603679580727E-16
  145   -2.93647833672014E-16 -1.14654829106210E-16 -3.07863015216799E-16 -2.99936063997365E-16
  146    9.76540896757694E-16 -8.88876374848663E-17 -8.37519073190740E-16  7.81980816905170E-17

 column         141                   142                   143                   144
 row
  141    9.99999999999999E-01
  142    6.13811643328575E-16  9.99999999999998E-01
  143    4.51424435763946E-16  6.61650274170652E-18  1.00000000000001E+00
  144   -2.75636070132262E-16  1.08651500256543E-16 -7.39319921246212E-16  1.00000000000001E+00
  145   -1.36667293657991E-16  1.16668776290146E-16  4.60470753017296E-17 -8.31351440008435E-16
  146   -5.92299646828831E-16  1.07878116162308E-17 -1.55396664503274E-17  1.13936095801070E-16

 column         145                   146
 row
  145    1.00000000000000E+00
  146   -2.01661604082304E-16  1.00000000000000E+00


 SFO contributions (%) per orbital
 (multiplication by the orbital occupation yields the SFO Gross Populations)

 Orb.:       35     36     37     38     39     40     41     42     43     44     45     46     47     48
 occup:     2.00   2.00   2.00   2.00   2.00   2.00   2.00   2.00   2.00   2.00   0.00   0.00   0.00   0.00
 CF+SFO     ----   ----   ----   ----   ----   ----   ----   ----   ----   ----   ----   ----   ----   ----
 ------
     20:   15.47  -0.01   0.09  -0.00   0.00   0.05   0.00   0.00  -0.00  -0.00   0.08   0.09   0.00   0.00
     21:   43.65  47.67   0.42  -0.00   0.00   0.53   0.00   0.00   0.00  -0.00   0.11  -0.31  -0.00   0.00
     22:    0.40   0.28  74.11   0.00   0.00  23.22   0.00   0.00   0.00   0.00   1.29  -0.46   0.00   0.00
     23:    0.00   0.00   0.00  69.97   7.42   0.00  20.36   2.11  -0.03  -0.00   0.00  -0.00   0.06   0.00
     24:    0.00  -0.00   0.00   7.42  69.97   0.00   2.11  20.36  -0.00  -0.03   0.00   0.00   0.00   0.06
     25:    0.00  -0.00   0.00   8.74   0.02   0.00  29.13   0.07  61.64   0.08   0.00   0.00   0.02   0.00
     26:    0.00   0.00   0.00   0.02   8.74   0.00   0.07  29.13   0.08  61.64   0.00  -0.00   0.00   0.02
     27:    0.42   0.22   2.42   0.00   0.00  25.31   0.00   0.00   0.00   0.00  71.48  -1.68   0.00   0.00
     28:   -0.02  -0.27  -0.00   0.00  -0.00  -0.35   0.00  -0.00  -0.00   0.00  -1.48  37.61   0.00   0.00
     29:   -0.00  -0.00   0.00   0.14   0.01  -0.00  -0.18  -0.01  -0.15  -0.01  -0.00   0.00  34.43   3.38
     30:   -0.00   0.00   0.00   0.01   0.14  -0.00  -0.01  -0.18  -0.01  -0.15  -0.00   0.00   3.38  34.42
     32:   -0.09   0.02  -0.00   0.00   0.00  -0.22   0.00   0.00  -0.00   0.00   0.05  -2.69   0.00   0.00
    105:   39.71  51.73   0.98  -0.00   0.00   0.00   0.00   0.00  -0.00   0.00   0.58  -0.23  -0.00   0.00
    106:    0.27   0.22  14.56   1.39   2.99  33.91   4.83  10.52   3.66   8.41  18.28   1.21  -0.02  -0.07
    107:    0.00   0.00   0.05  10.17   3.47   0.12  35.76  12.01  28.53   9.03   0.06   0.00  -0.22  -0.06
    108:    0.13   0.10   6.81   2.11   7.22  15.88   7.29  25.36   5.46  20.21   8.55   0.57  -0.04  -0.16
    109:   -0.01  -0.01  -0.00  -0.08  -0.22   0.07   0.02   0.05   0.11   0.35  -0.04   5.96  12.55  44.19
    110:   -0.07  -0.11  -0.05  -0.00  -0.03   0.77   0.00   0.01   0.00   0.04  -0.47  65.84   0.34   5.03
    111:   -0.00  -0.00  -0.00  -0.24  -0.08   0.00   0.06   0.02   0.38   0.12  -0.00   0.31  48.95  12.63
    112:   -0.04   0.05  -0.04  -0.00   0.00   0.05   0.00   0.00   0.00   0.00  -0.40  -6.02  -0.00  -0.00
    114:    0.10  -0.01   0.37   0.00   0.04  -0.00   0.00   0.00   0.00   0.03   1.21  -0.69  -0.00  -0.00


 Summation over all MOs, multiplied by occupation: Total SFO Gross Populations in this Irrep
 ===========================================================================================

     2.00    2.00    2.00    2.00    2.00    2.00    2.00    2.00    2.00    2.00    2.00    2.00
     2.00    2.00    2.00    2.00    2.00    2.00    2.00    2.00    2.00    1.96    2.00    2.00
     1.99    1.99    0.57   -0.01   -0.00   -0.00    0.00   -0.00    0.01    0.01    0.00    0.00
     0.00    0.00    0.01    0.00    0.00    0.00    0.00    0.00    0.00    0.00    0.00    0.00
     0.00    0.00    0.00    0.00    0.00    0.00    0.00    0.00   -0.00    0.00    0.00   -0.00
     0.00    0.00    0.00    0.00    0.00   -0.00    0.00    0.00    0.00   -0.00   -0.00   -0.00
    -0.00   -0.00   -0.00    0.00    0.00    0.00    0.00   -0.00    0.00    0.00   -0.00   -0.00
    -0.00    0.00    0.00    0.00    0.00   -0.00    2.00    2.00    2.00    2.00    2.00    2.00
     2.00    2.00    2.00    2.00    2.00    2.00    2.00    2.00    1.99    1.62    1.98    1.82
     0.01    0.01    0.01   -0.00    0.01    0.01    0.01    0.00    0.00    0.00    0.00    0.00
     0.00    0.00    0.00    0.00   -0.00   -0.00    0.00    0.00   -0.00   -0.00   -0.00   -0.00
    -0.00   -0.00   -0.00   -0.00    0.00   -0.00   -0.00   -0.00   -0.00   -0.00    0.00    0.00
     0.00   -0.00



 List of all MOs, ordered by energy, with the most significant SFO gross populations
 ===================================================================================

 Each percentage contribution in the table below corresponds to the indicated SFO.
 In general, a SFO may be a linear combination of several Fragment Orbitals on the same,
 or on symmetry-related Fragments. Only the first 'member' of such a combination is
 specified here. A full definition of all SFOs is given in an earlier part of the output.
 The numbering of the SFOs in this table does NOT include the Core Orbitals, and starts
 from one for each symmetry representation, as in the SFO definition list earlier.

       E(eV)  Occ       MO           %     SFO (first member)   E(eV)  Occ   Fragment
 -------------------------------------------------------------------------------------

     -15.493  2.00    34 A         84.36%    20 A             -20.941  2.00     1 BrCl
                                    7.66%    21 A             -19.278  2.00     1 BrCl
                                    7.24%    15 A             -10.500  2.00     2 Br
     -14.370  2.00    35 A         43.65%    21 A             -19.278  2.00     1 BrCl
                                   39.71%    15 A             -10.500  2.00     2 Br
                                   15.47%    20 A             -20.941  2.00     1 BrCl
     -13.363  2.00    36 A         51.73%    15 A             -10.500  2.00     2 Br
                                   47.67%    21 A             -19.278  2.00     1 BrCl
      -5.542  2.00    37 A         74.11%    22 A             -10.494  2.00     1 BrCl
                                   14.56%    16 A               0.447  2.00     2 Br
                                    6.81%    18 A               0.447  2.00     2 Br
                                    2.42%    27 A              -6.362  0.00     1 BrCl
      -3.586  2.00    38 A         69.97%    23 A              -8.643  2.00     1 BrCl
                                   10.17%    17 A               0.447  2.00     2 Br
                                    8.74%    25 A              -7.473  2.00     1 BrCl
                                    7.42%    24 A              -8.643  2.00     1 BrCl
                                    2.11%    18 A               0.447  2.00     2 Br
                                    1.39%    16 A               0.447  2.00     2 Br
      -3.585  2.00    39 A         69.97%    24 A              -8.643  2.00     1 BrCl
                                    8.74%    26 A              -7.473  2.00     1 BrCl
                                    7.42%    23 A              -8.643  2.00     1 BrCl
                                    7.22%    18 A               0.447  2.00     2 Br
                                    3.47%    17 A               0.447  2.00     2 Br
                                    2.99%    16 A               0.447  2.00     2 Br
      -2.769  2.00    40 A         33.91%    16 A               0.447  2.00     2 Br
                                   25.31%    27 A              -6.362  0.00     1 BrCl
                                   23.22%    22 A             -10.494  2.00     1 BrCl
                                   15.88%    18 A               0.447  2.00     2 Br
      -2.682  2.00    41 A         35.76%    17 A               0.447  2.00     2 Br
                                   29.13%    25 A              -7.473  2.00     1 BrCl
                                   20.36%    23 A              -8.643  2.00     1 BrCl
                                    7.29%    18 A               0.447  2.00     2 Br
                                    4.83%    16 A               0.447  2.00     2 Br
                                    2.11%    24 A              -8.643  2.00     1 BrCl
      -2.682  2.00    42 A         29.13%    26 A              -7.473  2.00     1 BrCl
                                   25.36%    18 A               0.447  2.00     2 Br
                                   20.36%    24 A              -8.643  2.00     1 BrCl
                                   12.01%    17 A               0.447  2.00     2 Br
                                   10.52%    16 A               0.447  2.00     2 Br
                                    2.11%    23 A              -8.643  2.00     1 BrCl
      -1.950  2.00    43 A         61.64%    25 A              -7.473  2.00     1 BrCl
                                   28.53%    17 A               0.447  2.00     2 Br
                                    5.46%    18 A               0.447  2.00     2 Br
                                    3.66%    16 A               0.447  2.00     2 Br
      -1.950  2.00    44 A         61.64%    26 A              -7.473  2.00     1 BrCl
                                   20.21%    18 A               0.447  2.00     2 Br
                                    9.03%    17 A               0.447  2.00     2 Br
                                    8.41%    16 A               0.447  2.00     2 Br
       0.316  0.00    45 A         71.48%    27 A              -6.362  0.00     1 BrCl
                                   18.28%    16 A               0.447  2.00     2 Br
                                    8.55%    18 A               0.447  2.00     2 Br
                                   -1.48%    28 A               2.946  0.00     1 BrCl
                                    1.29%    22 A             -10.494  2.00     1 BrCl
                                    1.21%    24 A              15.005  0.00     2 Br



 =======================================================================
 Electrostatic potential at the Nuclei due to electrons and other nuclei
 =======================================================================
  
         Atom                  Potential
         ----                  ---------
     1)   Br                176.10054866
     2)   Cl                 64.61943457
     3)   Br                176.13668850
 
 
 ========================
 No memory problems found
 ========================
 
 Maximum number of active allocate calls:         696
 
 *******************************************************************************

                             A D F   E X I T
 NORMAL TERMINATION



 =================
 Timing Statistics
 =================
  
 Total Used :                     CPU=        7.13      System=        0.21     Elapsed=        9.33

 Calls  Section                     ( Mean, Percentage )
 ---------------------------------------------------------------------------------------------------
     3  ><      ................      0.00    0.01             0.00    0.00             0.00    0.02
     1  INIT    ................      0.42    5.83             0.02   11.68             2.08   22.35
     1  GEOMET  ................      0.03    0.45             0.01    3.74             0.31    3.27
     1  FRAGM   ................      0.01    0.20             0.00    2.34             0.03    0.29
     1  INPUTA  ................      0.00    0.01             0.00    0.00             0.00    0.00
     1  ATDEN   ................      0.00    0.07             0.00    0.00             0.01    0.06
     1  MAINSY  ................      0.02    0.24             0.00    0.00             0.02    0.21
     1  SYMFIT  ................      0.00    0.01             0.00    0.47             0.00    0.02
     1  CORORT  ................      0.00    0.01             0.00    0.00             0.00    0.00
     1  SYMORB  ................      0.00    0.04             0.00    0.47             0.00    0.04
     1  CLSMAT  ................      0.01    0.14             0.00    0.00             0.01    0.11
     1  ORTHON  ................      0.01    0.17             0.00    0.93             0.01    0.15
     1  GENPT   ................      0.13    1.85             0.01    4.67             0.14    1.53
     1  PTBAS   ................      0.05    0.71             0.00    0.00             0.05    0.55
    17  FOCKY   ................      0.13   32.14             0.00    6.54             0.14   24.82
    17  FOCKTR  ................      0.00    0.50             0.00    0.93             0.00    0.44
    17  SDIIS   ................      0.00    0.91             0.00    2.34             0.00    0.75
     1  COREPS  ................      0.11    1.54             0.00    0.47             0.11    1.19
     1  TOTEN   ................      0.38    5.31             0.01    2.80             0.39    4.14
     1  POPAN   ................      0.00    0.06             0.00    0.47             0.01    0.10
     1  DEBYE   ................      0.01    0.13             0.00    0.00             0.01    0.09
     1  INPUTE  ................      0.00    0.00             0.00    0.00             0.00    0.01
     1  SYMORE  ................      0.00    0.03             0.00    0.00             0.00    0.01
     1  METS    ................      0.00    0.01             0.00    0.00             0.00    0.01
     1  CETS    ................      0.02    0.31             0.00    0.93             0.04    0.43
     1  POPUL   ................      3.49   48.91             0.13   59.35             3.64   39.04
     1  EXIT PROCEDURE .........      0.03    0.39             0.00    1.87             0.03    0.35


 Currently Open Files (EXIT00)
 ====================

 Unit    Access Format  Status   Type       Ident (file)
 -------------------------------------------------------
   3      SEQ    FORM   TRANSP  NORMAL      LOGFILE
                                          ( logfile )


 Buffered I/O statistics
 =======================
 Memory available:                     67108864
 Number of records fitting in memory:     16131
 Input :   1.1% of                        60261  *4k bytes
 Output:  14.6% of                         4832  *4k bytes
 Records from serial files evicted:           0
                    others evicted:           0
 Hash table lookups:     172690 with          0 conflicts (  0.00%)

 ***************************************************************************************************
 (LOGFILE)
 <May09-2019> <17:12:05>  ADF 2017  RunTime: May09-2019 17:12:05  Nodes: 1  Procs: 12
 <May09-2019> <17:12:06>  *** (NO TITLE) ***
 <May09-2019> <17:12:06>  RunType   : SINGLE POINT
 <May09-2019> <17:12:06>  Net Charge: -1 (Nuclei minus Electrons)
 <May09-2019> <17:12:06>  Symmetry  : NOSYM
 <May09-2019> <17:12:06>  >>>> FRAGM
  Coordinates
    Atom         X           Y           Z   (Angstrom)
    1.Br       -4.900312    3.058824   -0.044166
    2.Cl       -3.592957    0.908502    0.038438
    3.Br       -6.282112    5.331592   -0.131473
 <May09-2019> <17:12:06>  >>>> CORORT
 <May09-2019> <17:12:06>  >>>> CLSMAT
 <May09-2019> <17:12:06>  >>>> ORTHON
 <May09-2019> <17:12:06>  >>>> GENPT
 <May09-2019> <17:12:06>  Block Length= 128
 <May09-2019> <17:12:06>  >>>> PTBAS
 <May09-2019> <17:12:06>  >>>> CYCLE
 <May09-2019> <17:12:06>              |Error|         MaxErr       Wt(A-DIIS)
 <May09-2019> <17:12:06>      1      1.74132325      0.88382689
 <May09-2019> <17:12:07>      2      0.87075864      0.34951479    100.0
 <May09-2019> <17:12:07>      3      0.60125648      0.26068899    100.0
 <May09-2019> <17:12:07>      4      0.57500531      0.25358237    100.0
 <May09-2019> <17:12:07>      5      1.57279405      0.51531935    100.0
 <May09-2019> <17:12:07>      6      0.49610614      0.14085882    100.0
 <May09-2019> <17:12:07>      7      0.29281492      0.11269767    100.0
 <May09-2019> <17:12:07>      8      0.40008444      0.13880242    100.0
 <May09-2019> <17:12:08>      9      0.07836342      0.01712499     16.3
 <May09-2019> <17:12:08>     10      0.02718184      0.00665377      5.7
 <May09-2019> <17:12:08>     11      0.00350254      0.00133667      0.3
 <May09-2019> <17:12:08>     12      0.00042350      0.00018057      0.0
 <May09-2019> <17:12:08>     13      0.00011486      0.00002861      0.0
 <May09-2019> <17:12:08>     14      0.00003533      0.00001357      0.0
 <May09-2019> <17:12:08>     15      0.00000939      0.00000339      0.0
 <May09-2019> <17:12:08>     16      0.00000069      0.00000027      0.0
 <May09-2019> <17:12:09>  SCF converged
 <May09-2019> <17:12:09>     17      0.00000015      0.00000003      0.0
 <May09-2019> <17:12:09>  >>>> TOTEN
 <May09-2019> <17:12:09>  >>>> POPAN
 <May09-2019> <17:12:09>  >>>> DEBYE
 <May09-2019> <17:12:09>  >>>> AMETS
 <May09-2019> <17:12:13>   Bond Energy          -0.08460582 a.u.
 <May09-2019> <17:12:13>   Bond Energy          -2.30224163 eV
 <May09-2019> <17:12:13>   Bond Energy         -53.09       kcal/mol
 <May09-2019> <17:12:13>  >>>> POPUL
 <May09-2019> <17:12:13>  NORMAL TERMINATION
 <May09-2019> <17:12:13>  END
