
Create O   file=TZ2P-O
XC
  GGA BLYP
End
End Input

 *******************************************************************************
 *                                                                             *
 *  -------------------------------------                                      *
 *   Amsterdam Density Functional  (ADF)         development version           *
 *  -------------------------------------                                      *
 *                                               r61132 2017-09-08             *
 *                                                                             *
 *                                                                             *
 *                              =================                              *
 *                              |               |                              *
 *                              |     A D F     |                              *
 *                              |               |                              *
 *                              =================                              *
 *                                                                             *
 *                                                                             *
 *   Online information and documentation:  https://www.scm.com/support/       *
 *   E-mail:  support@scm.com   info@scm.com                                   *
 *                                                                             *
 *   Scientific publications using ADF results must be properly referenced     *
 *   See the User Manuals (or the web site) for recommended citations          *
 *   The terms and conditions of the End User License Agreement apply to       *
 *   the use of ADF, https://www.scm.com/license-terms/                        *
 *                                                                             *
 **********************  x86_64_linux_intel / intelmpi  ************************
 
 Licensed to: VU/FEW (+ SARA) / ALGEMEEN / Amsterdam / THE NETHERLANDS
 SCM User ID: u7668
  
 ADF development version  RunTime: May01-2019 13:41:57  Nodes: 1  Procs: 1

 Temporary files are created in /local/datastore0/tcst25/188276/kid_0.hbPGkq

 Oxygen (TZ2P)



 ===========================
 A T T A C H E D   F I L E S
 ===========================
  
 CREATE - Data File:    TZ2P-O
                        Oxygen (TZ2P)



 ===============================
 M O D E L   P A R A M E T E R S
 ===============================
  
 DENSITY FUNCTIONAL POTENTIAL (scf)
    LDA:                               Exchange only                           == Not Default ==
    Gradient Corrections:              Becke88 LYP                             == Not Default ==

 SPIN  (restricted / unrestr.)
    Molecule:                          Restricted                               

 OTHER ASPECTS
    Relativistic Corrections:          ---                                      

    Nuclear Charge Density Model:      Point Charge Nuclei                      
    Core Treatment:                    Frozen Orbital(s)                        

    Hyperfine or Zeeman Interaction:   ---                                      



 =====================================
 S Y M M E T R Y ,   E L E C T R O N S
 =====================================
  
 Symmetry: ATOM

 Irreducible Representations, including subspecies
 -------------------------------------------------
 S
 P:x  P:y  P:z
 D:z2  D:x2-y2  D:xy  D:xz  D:yz
 F:z3  F:z  F:xyz  F:z2x  F:z2y  F:x  F:y


 Configuration of Valence Electrons
 ==================================

          Occupation Numbers
          -------------------------------------------------
 S        2*2
 P        4
 D        0
 F        0
          -------------------------------------------------

 Total:   8

 Net Charge: 0 (Nuclei minus Electrons)

 Preset values for MO occupations will be applied through SCF cycle no. 1000000
 Thereafter, the program will assign electrons to MOs that are spatially
 similar to the occupied MOs in a "reference" cycle ("KeepOrbitals").
 The reference cycle is always the PREVIOUS cycle: it will evolve with
 the SCF procedure.



 ================================
 (Slater-type)  F U N C T I O N S  ***  (Basis and Fit)  ***
 ================================
  

 Atom Type    1  (O)
 ==============

 Valence Basis Sets:  10
 -----------------------
   1 S    9.800000
   1 S    6.800000
   2 S    7.580000
   2 S    2.880000
   2 S    1.720000
   2 P    4.080000
   2 P    2.080000
   2 P    1.120000
   3 D    2.000000
   4 F    3.000000


 BAS: List of all Elementary Cartesian Basis Functions
 =====================================================

 The numbering in the list below (to the right of the function characteristics) is referred
 to in print-outs of MO eigenvectors and Mulliken populations in the BAS representation
 (as contrasted to the SFO representation).

 Notes:
 1. The functions are characterized by a polynomial prefactor (powers of x,y,z and r) and
    an exponential decay factor alpha.
 2. Since the basis sets are specific for an atom TYPE, the individual functions occur on
    all atoms of that type.
 3. The word 'Core' in the left margin signals that it is a Core Function (CF) : not a
    degree of freedom in the valence set, but only used to ensure orthogonalization of
    the other valence basis functions on the frozen Core Orbitals.


 (power of) X  Y  Z  R     Alpha  on Atom
            ==========     =====     ==========

 O                                    1
                                  ---------------------------------------------------------------------------
            0  0  0  0     9.800      1
            0  0  0  0     6.800      2
            0  0  0  1     7.580      3
            0  0  0  1     2.880      4
            0  0  0  1     1.720      5
            1  0  0  0     4.080      6
            0  1  0  0     4.080      7
            0  0  1  0     4.080      8
            1  0  0  0     2.080      9
            0  1  0  0     2.080     10
            0  0  1  0     2.080     11
            1  0  0  0     1.120     12
            0  1  0  0     1.120     13
            0  0  1  0     1.120     14
            2  0  0  0     2.000     15
            1  1  0  0     2.000     16
            1  0  1  0     2.000     17
            0  2  0  0     2.000     18
            0  1  1  0     2.000     19
            0  0  2  0     2.000     20
            3  0  0  0     3.000     21
            2  1  0  0     3.000     22
            2  0  1  0     3.000     23
            1  2  0  0     3.000     24
            1  1  1  0     3.000     25
            1  0  2  0     3.000     26
            0  3  0  0     3.000     27
            0  2  1  0     3.000     28
            0  1  2  0     3.000     29
            0  0  3  0     3.000     30

 Total number of charge fitting functions (nprimf)        84
 Total number of Cartesian basis functions (naos)         30
 Total number of Cartesian core functions  (ncos)          0



 BAS: List of all Elementary Cartesian Basis Functions
 =====================================================

 The numbering in the list below (to the right of the function characteristics) is referred
 to in print-outs of MO eigenvectors and Mulliken populations in the BAS representation
 (as contrasted to the SFO representation).

 Notes:
 1. The functions are characterized by a polynomial prefactor (powers of x,y,z and r) and
    an exponential decay factor alpha.
 2. Since the basis sets are specific for an atom TYPE, the individual functions occur on
    all atoms of that type.
 3. The word 'Core' in the left margin signals that it is a Core Function (CF) : not a
    degree of freedom in the valence set, but only used to ensure orthogonalization of
    the other valence basis functions on the frozen Core Orbitals.


 (power of) X  Y  Z  R     Alpha  on Atom
            ==========     =====     ==========

 O                                    1
                                  ---------------------------------------------------------------------------
            0  0  0  0     9.800      1
            0  0  0  0     6.800      2
            0  0  0  1     7.580      3
            0  0  0  1     2.880      4
            0  0  0  1     1.720      5
            1  0  0  0     4.080      6
            0  1  0  0     4.080      7
            0  0  1  0     4.080      8
            1  0  0  0     2.080      9
            0  1  0  0     2.080     10
            0  0  1  0     2.080     11
            1  0  0  0     1.120     12
            0  1  0  0     1.120     13
            0  0  1  0     1.120     14
            2  0  0  0     2.000     15
            1  1  0  0     2.000     16
            1  0  1  0     2.000     17
            0  2  0  0     2.000     18
            0  1  1  0     2.000     19
            0  0  2  0     2.000     20
            3  0  0  0     3.000     21
            2  1  0  0     3.000     22
            2  0  1  0     3.000     23
            1  2  0  0     3.000     24
            1  1  1  0     3.000     25
            1  0  2  0     3.000     26
            0  3  0  0     3.000     27
            0  2  1  0     3.000     28
            0  1  2  0     3.000     29
            0  0  3  0     3.000     30
1
 ***************************************************************************************************



                                              ***********************
                                              *  T E C H N I C A L  *
                                              ***********************
  



 =============================================================
 P A R A L L E L I Z A T I O N  and  V E C T O R I Z A T I O N
 =============================================================
  
 Nr of parallel processes:                                1
 Maximum vector length in NumInt loops:                 128

 IO buffersize (Mb):                                     64.000000



 =====================
 S C F   U P D A T E S
 =====================
  
 Max. nr. of cycles:                               300
 Convergence criterion:                              0.0000000100
   secondary criterion:                              0.0000000100

 Mix parameter (when DIIS does not apply):           0.2000000000
 Special mix parameter for the first cycle:          1.0000000000
 Mixed ADIIS+DIIS will be used
    Max number of expansion vectors:                10
    Pure ADIIS when Max([F,P]) is above              0.1000000000
    Pure DIIS when Max([F,P]) is below               0.0010000000
 Automatic ElectronSmearing (in case of problematic SCF convergence) disabled



 =================
 P R E C I S I O N  ***  (General: NumInt, NeglectFunctionTails, ...)  ***
 =================
  

 NumInt:           Target precision:                12.0000000000
 -------           Initial precision:               10.0000000000
                   Min. precision (optimization):   10.0000000000

 Neglect Functions:          Basis functions:        0.1000000000E-13
 ------------------          Fit functions:          0.1000000000E-13



 ===========================
 L I N E A R   S C A L I N G
 ===========================
  

 Cut-off radii density fit:                        0.1000000000E-97
 Overlap cut-off criterion AO matrix elements:     0.1000000000E-97
 Cut-offs for Coulomb potential and fitted density:0.1000000000E-97
 Cut-off criterion for Coulomb multipole terms:    0.1000000000E-97
 Progressive Convergence parameter:                 0.000000000    
1
 ***************************************************************************************************



                                            ***************************
                                            *  C O M P U T A T I O N  *
                                            ***************************
  

 Number of elements of the density matrix on this node (used, total):       465       465



 ===========================================
 Numerical Integration : Fuzzy Cells (Becke)
 ===========================================
  
 Becke grid quality: VERYGOOD       
  
 Lebedev angular grid order:             min:  13 max:  41
 Nr. of radial points:                   min:  68 max:  68

 Total nr. of points:         68
 Nr. of blocks:                1
 Block length:                68
 Nr. of dummy points:          0


 Test of Precision of the Numerical Integration Grid
 ===================================================

 Integral of the Total Core Density:                   0.00000000000000



 ========================
 Density Fitting (zlmFit)
 ========================
  
 ZlmFit Fit Quality: VERYGOOD       
  
 Max L-expansion:                        min:   0 max:   0
 Nr. of radial interpolation points:     min: 180 max: 180



 =====
 S C F  ***  ScaSCF  ***
 =====
  

 CYCLE    1
 SCF Error: norm([F,P])=      0.000000000000, max([F,P])=      0.000000000000
 orbitals (Q,E):
 ---------------
 S :1...5            ( 2.00   -31.9999)  ( 2.00    -7.9363)  ( 0.00    -3.4636)  ( 0.00     4.3191)
                     ( 0.00   110.5486)
 P :1...3            ( 4.00    -7.9991)  ( 0.00    -3.4855)  ( 0.00    -1.8903)
 D :1...1            ( 0.00    -3.3333)
 F :1...1            ( 0.00    -1.5000)

 CYCLE    2
  SDIIS (wt  0.000):  1.0000  0.0000
 A-DIIS (wt  1.000):  0.0000  1.0000
  DIIS coefficients:  0.0000  1.0000
 SCF Error: norm([F,P])=      8.765745414074, max([F,P])=      5.518031311555
 orbitals (Q,E):
 ---------------
 S :1...3            ( 2.00   -14.5579)  ( 2.00    -0.0124)  ( 0.00     1.8192)
 P :1...2            ( 4.00     0.2183)  ( 0.00     1.2385)
 D :1...1            ( 0.00     1.5388)
 F :1...1            ( 0.00     3.9464)

 CYCLE    3
  SDIIS (wt  0.000):  0.2278  0.7722
 A-DIIS (wt  1.000):  0.3148  0.6852
  DIIS coefficients:  0.3148  0.6852
 SCF Error: norm([F,P])=      3.585499450444, max([F,P])=      2.499410108106
 orbitals (Q,E):
 ---------------
 S :1...3            ( 2.00   -19.8063)  ( 2.00    -1.5198)  ( 0.00     0.3996)
 P :1...2            ( 4.00    -0.9763)  ( 0.00     0.1325)
 D :1...1            ( 0.00     0.6540)
 F :1...1            ( 0.00     2.8642)

 CYCLE    4
  SDIIS (wt  0.000): -0.0456  0.1707  0.8749
 A-DIIS (wt  1.000):  0.0000  0.0000  1.0000
  DIIS coefficients:  0.0000  0.0000  1.0000
 SCF Error: norm([F,P])=      1.147919112368, max([F,P])=      0.583019620058
 orbitals (Q,E):
 ---------------
 S :1...3            ( 2.00   -18.0523)  ( 2.00    -0.5465)  ( 0.00     1.0349)
 P :1...2            ( 4.00    -0.0477)  ( 0.00     0.5307)
 D :1...1            ( 0.00     1.2443)
 F :1...1            ( 0.00     3.5731)

 CYCLE    5
  SDIIS (wt  0.000): -0.0195 -0.0760  0.5845  0.5110
 A-DIIS (wt  1.000):  0.0000  0.0000  0.6414  0.3586
  DIIS coefficients:  0.0000  0.0000  0.6414  0.3586
 SCF Error: norm([F,P])=      1.519585468023, max([F,P])=      0.840542006159
 orbitals (Q,E):
 ---------------
 S :1...3            ( 2.00   -18.8182)  ( 2.00    -0.8502)  ( 0.00     0.8091)
 P :1...2            ( 4.00    -0.3077)  ( 0.00     0.3582)
 D :1...1            ( 0.00     1.0753)
 F :1...1            ( 0.00     3.3669)

 CYCLE    6
  SDIIS (wt  0.000):  0.0038 -0.0006  0.0668 -0.0496  0.9795
 A-DIIS (wt  1.000):  0.0000  0.0000  0.0000  0.0000  1.0000
  DIIS coefficients:  0.0000  0.0000  0.0000  0.0000  1.0000
 SCF Error: norm([F,P])=      0.178828926625, max([F,P])=      0.104242033505
 orbitals (Q,E):
 ---------------
 S :1...3            ( 2.00   -19.0541)  ( 2.00    -0.9245)  ( 0.00     0.7610)
 P :1...2            ( 4.00    -0.3806)  ( 0.00     0.3267)
 D :1...1            ( 0.00     1.0451)
 F :1...1            ( 0.00     3.3284)

 CYCLE    7
  SDIIS (wt  0.000): -0.0003  0.0004 -0.0182  0.0130  0.4190  0.5861
 A-DIIS (wt  1.000):  0.0000  0.0000  0.0000  0.0000  0.5807  0.4193
  DIIS coefficients:  0.0000  0.0000  0.0000  0.0000  0.5807  0.4193
 SCF Error: norm([F,P])=      0.200125290981, max([F,P])=      0.113649127568
 orbitals (Q,E):
 ---------------
 S :1...3            ( 2.00   -18.9379)  ( 2.00    -0.8781)  ( 0.00     0.7909)
 P :1...2            ( 4.00    -0.3354)  ( 0.00     0.3452)
 D :1...1            ( 0.00     1.0687)
 F :1...1            ( 0.00     3.3572)

 CYCLE    8
  SDIIS (wt  0.910): -0.0000  0.0002  0.0044 -0.0011 -0.0192 -0.1454  1.1612
 A-DIIS (wt  0.090):  0.0000  0.0000  0.0000  0.0000  0.0000  0.0000  1.0000
  DIIS coefficients: -0.0000  0.0002  0.0040 -0.0010 -0.0175 -0.1323  1.1466
 SCF Error: norm([F,P])=      0.016951777154, max([F,P])=      0.009947196225
 orbitals (Q,E):
 ---------------
 S :1...3            ( 2.00   -18.9255)  ( 2.00    -0.8739)  ( 0.00     0.7936)
 P :1...2            ( 4.00    -0.3314)  ( 0.00     0.3469)
 D :1...1            ( 0.00     1.0707)
 F :1...1            ( 0.00     3.3597)

 CYCLE    9
  SDIIS (wt  1.000): -0.0000  0.0000  0.0000 -0.0001  0.0003  0.0067  0.0145  0.9786
  DIIS coefficients: -0.0000  0.0000  0.0000 -0.0001  0.0003  0.0067  0.0145  0.9786
 SCF Error: norm([F,P])=      0.001748429777, max([F,P])=      0.000984374870
 orbitals (Q,E):
 ---------------
 S :1...3            ( 2.00   -18.9266)  ( 2.00    -0.8743)  ( 0.00     0.7933)
 P :1...2            ( 4.00    -0.3318)  ( 0.00     0.3467)
 D :1...1            ( 0.00     1.0705)
 F :1...1            ( 0.00     3.3595)

 CYCLE   10
  SDIIS (wt  1.000): -0.0000 -0.0000 -0.0000 -0.0000  0.0000  0.0001 -0.0011 -0.0034  1.0043
  DIIS coefficients: -0.0000 -0.0000 -0.0000 -0.0000  0.0000  0.0001 -0.0011 -0.0034  1.0043
 SCF Error: norm([F,P])=      0.000001425627, max([F,P])=      0.000000713873
 orbitals (Q,E):
 ---------------
 S :1...3            ( 2.00   -18.9266)  ( 2.00    -0.8743)  ( 0.00     0.7933)
 P :1...2            ( 4.00    -0.3318)  ( 0.00     0.3467)
 D :1...1            ( 0.00     1.0705)
 F :1...1            ( 0.00     3.3595)

 CYCLE   11
  SDIIS (wt  1.000):  0.0000 -0.0000 -0.0000 -0.0001 -0.0046  1.0047
  DIIS coefficients:  0.0000 -0.0000 -0.0000 -0.0001 -0.0046  1.0047
 SCF Error: norm([F,P])=      0.000000048705, max([F,P])=      0.000000022971
 orbitals (Q,E):
 ---------------
 S :1...3            ( 2.00   -18.9266)  ( 2.00    -0.8743)  ( 0.00     0.7933)
 P :1...2            ( 4.00    -0.3318)  ( 0.00     0.3467)
 D :1...1            ( 0.00     1.0705)
 F :1...1            ( 0.00     3.3595)

 CYCLE   12
  SDIIS (wt  1.000):  0.0000  0.0003  0.0049  0.9947
  DIIS coefficients:  0.0000  0.0003  0.0049  0.9947
 SCF Error: norm([F,P])=      0.000000002391, max([F,P])=      0.000000001167
 orbitals (Q,E):
 ---------------
 S :1...3            ( 2.00   -18.9266)  ( 2.00    -0.8743)  ( 0.00     0.7933)
 P :1...2            ( 4.00    -0.3318)  ( 0.00     0.3467)
 D :1...1            ( 0.00     1.0705)
 F :1...1            ( 0.00     3.3595)

 SCF CONVERGED

 CYCLE   13
1
 ***************************************************************************************************



                                                *******************
                                                *  R E S U L T S  *
                                                *******************
  
 *** Setting up for NEW gradients in Focky
 *** Using FIT density in Focky

 Orbital Energies, per Irrep and Spin:
 ======================================
                        Occup              E (au)              E (eV)       Diff (eV) with prev. cycle
                        -----      --------------------        ------       --------------------------
 S
               1        2.000     -0.18926622910087E+02      -515.020               5.77E-10
               2        2.000     -0.87432318445326E+00       -23.792               3.91E-10
               3        0.000      0.79334608634539E+00        21.588
               4        0.000      0.13459763470972E+02       366.259
               5        0.000      0.12310776301323E+03      3349.933
 P
               1        4.000     -0.33177161342560E+00        -9.028               3.72E-10
               2        0.000      0.34673871865826E+00         9.435
               3        0.000      0.38246989192600E+01       104.075
 D
               1        0.000      0.10704889823391E+01        29.129
 F
               1        0.000      0.33594552407685E+01        91.415


 Partially Occupied:
               1 P                -0.33177161342560E+00
  
 HOMO :        2 S                -0.87432318445326E+00
 LUMO :        2 P                 0.34673871865826E+00
  


 Orbital Energies, all Irreps
 ========================================

 Irrep        no.  (spin)   Occup              E (au)                E (eV)
 ---------------------------------------------------------------------------
 S             1             2.00       -0.18926622910087E+02      -515.0196
 S             2             2.00       -0.87432318445326E+00       -23.7915
 P             1             4.00       -0.33177161342560E+00        -9.0280
 P             2             0.00        0.34673871865826E+00         9.4352
 S             3             0.00        0.79334608634539E+00        21.5880
 D             1             0.00        0.10704889823391E+01        29.1295
 F             1             0.00        0.33594552407685E+01        91.4154
 P             3             0.00        0.38246989192600E+01       104.0754
 S             4             0.00        0.13459763470972E+02       366.2588
 S             5             0.00        0.12310776301323E+03      3349.9327


 All Electron Calculation, thus no Orbital Energies of the Core Orbitals are calculated



 =======================================
 M U L L I K E N   P O P U L A T I O N S
 =======================================
  
 The survey below gives for each atom:
 a) the total charge (Z minus electrons)
 b) the net spin polarization (nr of electrons spin-A minus spin-B)
 c) for each spin the atomic electron valence density (integrated) per L-value.

 Atom              Charge    Spin density          S         P         D         F
 ----              ------    ------------       ------    ------    ------    ------
 1 O               0.0000                       4.0000    4.0000    0.0000    0.0000

 Populations of individual BAS functions
 ----------------------------------------
 1 O            0.6447  1.3214  0.0008  1.1425  0.8905  0.2537  0.2537  0.2537  0.7364  0.7364
                0.7364  0.3432  0.3432  0.3432  0.0000  0.0000  0.0000  0.0000  0.0000  0.0000
                0.0000  0.0000  0.0000  0.0000  0.0000  0.0000  0.0000  0.0000  0.0000  0.0000

 Gross Charges per Atom (Z minus electrons)
 ==========================================
             0.0000
 Net Total:  0.00000000



 =======================================================================
 Electrostatic potential at the Nuclei due to electrons and other nuclei
 =======================================================================
  
         Atom                  Potential
         ----                  ---------
     1)   O                  22.23872615
 
 
 ========================
 No memory problems found
 ========================
 
 Maximum number of active allocate calls:         447
 
 *******************************************************************************

                             A D F   E X I T
 NORMAL TERMINATION



 =================
 Timing Statistics
 =================
  
 Total Used :                     CPU=        0.52      System=        0.04     Elapsed=        0.56

 Calls  Section                     ( Mean, Percentage )
 ---------------------------------------------------------------------------------------------------
     3  ><      ................      0.00    0.19             0.00    0.00             0.00    0.14
     1  INIT    ................      0.01    1.92             0.02   47.22             0.03    5.05
     1  GEOMET  ................      0.00    0.96             0.00   11.11             0.01    1.56
     1  INPUTA  ................      0.00    0.19             0.00    0.00             0.00    0.27
     1  MAINSY  ................      0.00    0.58             0.00    8.33             0.01    1.10
     1  SYMFIT  ................      0.00    0.00             0.00    2.78             0.00    0.15
     1  CORORT  ................      0.00    0.00             0.00    0.00             0.00    0.05
     1  SYMORB  ................      0.00    0.19             0.00    0.00             0.00    0.12
     1  CLSMAT  ................      0.00    0.96             0.00    0.00             0.01    0.94
     1  ORTHON  ................      0.00    0.38             0.00    0.00             0.00    0.29
     1  GENPT   ................      0.01    2.88             0.00    0.00             0.01    2.65
     1  PTBAS   ................      0.00    0.38             0.00    2.78             0.00    0.62
    13  FOCKY   ................      0.03   76.73             0.00   13.89             0.03   72.70
    13  FOCKTR  ................      0.00    1.92             0.00    5.56             0.00    1.99
    13  SDIIS   ................      0.00    4.04             0.00    2.78             0.00    3.92
     1  COREPS  ................      0.02    4.42             0.00    0.00             0.02    4.12
     1  POPAN   ................      0.00    0.96             0.00    0.00             0.01    0.93
     1  DEBYE   ................      0.00    0.19             0.00    0.00             0.00    0.10
     1  EXIT PROCEDURE .........      0.02    3.08             0.00    5.56             0.02    3.29


 Currently Open Files (EXIT00)
 ====================

 Unit    Access Format  Status   Type       Ident (file)
 -------------------------------------------------------
   3      SEQ    FORM   TRANSP  NORMAL      LOGFILE
                                          ( logfile )


 Buffered I/O statistics
 =======================
 Memory available:                     67108864
 Number of records fitting in memory:     16131
 Input :   0.1% of                        27846  *4k bytes
 Output:  13.4% of                         1391  *4k bytes
 Records from serial files evicted:           0
                    others evicted:           0
 Hash table lookups:      71928 with          0 conflicts (  0.00%)

 ***************************************************************************************************
 (LOGFILE)
 <May01-2019> <13:41:57>  ADF development version  RunTime: May01-2019 13:41:57  Nodes: 1  Procs: 1
 <May01-2019> <13:41:57>  Oxygen (TZ2P)
 <May01-2019> <13:41:57>  RunType   : CREATE
 <May01-2019> <13:41:57>  Net Charge: 0 (Nuclei minus Electrons)
 <May01-2019> <13:41:57>  Symmetry  : ATOM
  Coordinates
    Atom         X           Y           Z   (Angstrom)
    1.O         0.000000    0.000000    0.000000
 <May01-2019> <13:41:57>  >>>> CORORT
 <May01-2019> <13:41:57>  >>>> CLSMAT
 <May01-2019> <13:41:57>  >>>> ORTHON
 <May01-2019> <13:41:57>  >>>> GENPT
 <May01-2019> <13:41:57>  Block Length=  68
 <May01-2019> <13:41:57>  >>>> PTBAS
 <May01-2019> <13:41:57>  >>>> CYCLE
 <May01-2019> <13:41:57>              |Error|         MaxErr       Wt(A-DIIS)
 <May01-2019> <13:41:57>      1      0.00000000      0.00000000
 <May01-2019> <13:41:57>      2      8.76574541      5.51803131    100.0
 <May01-2019> <13:41:57>      3      3.58549945      2.49941011    100.0
 <May01-2019> <13:41:57>      4      1.14791911      0.58301962    100.0
 <May01-2019> <13:41:57>      5      1.51958547      0.84054201    100.0
 <May01-2019> <13:41:57>      6      0.17882893      0.10424203    100.0
 <May01-2019> <13:41:57>      7      0.20012529      0.11364913    100.0
 <May01-2019> <13:41:57>      8      0.01695178      0.00994720      9.0
 <May01-2019> <13:41:57>      9      0.00174843      0.00098437      0.0
 <May01-2019> <13:41:57>     10      0.00000143      0.00000071      0.0
 <May01-2019> <13:41:57>     11      0.00000005      0.00000002      0.0
 <May01-2019> <13:41:57>     12      0.00000000      0.00000000      0.0
 <May01-2019> <13:41:58>  SCF converged
 <May01-2019> <13:41:58>     13      0.00000000      0.00000000      0.0
 <May01-2019> <13:41:58>  >>>> POPAN
 <May01-2019> <13:41:58>  >>>> DEBYE
 <May01-2019> <13:41:58>  NORMAL TERMINATION
 <May01-2019> <13:41:58>  END

Create C   file=TZ2P-C
XC
  GGA BLYP
End
End Input

 *******************************************************************************
 *                                                                             *
 *  -------------------------------------                                      *
 *   Amsterdam Density Functional  (ADF)         development version           *
 *  -------------------------------------                                      *
 *                                               r61132 2017-09-08             *
 *                                                                             *
 *                                                                             *
 *                              =================                              *
 *                              |               |                              *
 *                              |     A D F     |                              *
 *                              |               |                              *
 *                              =================                              *
 *                                                                             *
 *                                                                             *
 *   Online information and documentation:  https://www.scm.com/support/       *
 *   E-mail:  support@scm.com   info@scm.com                                   *
 *                                                                             *
 *   Scientific publications using ADF results must be properly referenced     *
 *   See the User Manuals (or the web site) for recommended citations          *
 *   The terms and conditions of the End User License Agreement apply to       *
 *   the use of ADF, https://www.scm.com/license-terms/                        *
 *                                                                             *
 **********************  x86_64_linux_intel / intelmpi  ************************
 
 Licensed to: VU/FEW (+ SARA) / ALGEMEEN / Amsterdam / THE NETHERLANDS
 SCM User ID: u7668
  
 ADF development version  RunTime: May01-2019 13:41:58  Nodes: 1  Procs: 1

 Temporary files are created in /local/datastore0/tcst25/188276/kid_0.eyu1z3

 Carbon (TZ2P)



 ===========================
 A T T A C H E D   F I L E S
 ===========================
  
 CREATE - Data File:    TZ2P-C
                        Carbon (TZ2P)



 ===============================
 M O D E L   P A R A M E T E R S
 ===============================
  
 DENSITY FUNCTIONAL POTENTIAL (scf)
    LDA:                               Exchange only                           == Not Default ==
    Gradient Corrections:              Becke88 LYP                             == Not Default ==

 SPIN  (restricted / unrestr.)
    Molecule:                          Restricted                               

 OTHER ASPECTS
    Relativistic Corrections:          ---                                      

    Nuclear Charge Density Model:      Point Charge Nuclei                      
    Core Treatment:                    Frozen Orbital(s)                        

    Hyperfine or Zeeman Interaction:   ---                                      



 =====================================
 S Y M M E T R Y ,   E L E C T R O N S
 =====================================
  
 Symmetry: ATOM

 Irreducible Representations, including subspecies
 -------------------------------------------------
 S
 P:x  P:y  P:z
 D:z2  D:x2-y2  D:xy  D:xz  D:yz
 F:z3  F:z  F:xyz  F:z2x  F:z2y  F:x  F:y


 Configuration of Valence Electrons
 ==================================

          Occupation Numbers
          -------------------------------------------------
 S        2*2
 P        2
 D        0
 F        0
          -------------------------------------------------

 Total:   6

 Net Charge: 0 (Nuclei minus Electrons)

 Preset values for MO occupations will be applied through SCF cycle no. 1000000
 Thereafter, the program will assign electrons to MOs that are spatially
 similar to the occupied MOs in a "reference" cycle ("KeepOrbitals").
 The reference cycle is always the PREVIOUS cycle: it will evolve with
 the SCF procedure.



 ================================
 (Slater-type)  F U N C T I O N S  ***  (Basis and Fit)  ***
 ================================
  

 Atom Type    1  (C)
 ==============

 Valence Basis Sets:  10
 -----------------------
   1 S    7.680000
   1 S    5.000000
   2 S    1.280000
   2 S    2.100000
   2 S    4.600000
   2 P    0.820000
   2 P    1.480000
   2 P    2.940000
   3 D    2.200000
   4 F    3.300000


 BAS: List of all Elementary Cartesian Basis Functions
 =====================================================

 The numbering in the list below (to the right of the function characteristics) is referred
 to in print-outs of MO eigenvectors and Mulliken populations in the BAS representation
 (as contrasted to the SFO representation).

 Notes:
 1. The functions are characterized by a polynomial prefactor (powers of x,y,z and r) and
    an exponential decay factor alpha.
 2. Since the basis sets are specific for an atom TYPE, the individual functions occur on
    all atoms of that type.
 3. The word 'Core' in the left margin signals that it is a Core Function (CF) : not a
    degree of freedom in the valence set, but only used to ensure orthogonalization of
    the other valence basis functions on the frozen Core Orbitals.


 (power of) X  Y  Z  R     Alpha  on Atom
            ==========     =====     ==========

 C                                    1
                                  ---------------------------------------------------------------------------
            0  0  0  0     7.680      1
            0  0  0  0     5.000      2
            0  0  0  1     1.280      3
            0  0  0  1     2.100      4
            0  0  0  1     4.600      5
            1  0  0  0     0.820      6
            0  1  0  0     0.820      7
            0  0  1  0     0.820      8
            1  0  0  0     1.480      9
            0  1  0  0     1.480     10
            0  0  1  0     1.480     11
            1  0  0  0     2.940     12
            0  1  0  0     2.940     13
            0  0  1  0     2.940     14
            2  0  0  0     2.200     15
            1  1  0  0     2.200     16
            1  0  1  0     2.200     17
            0  2  0  0     2.200     18
            0  1  1  0     2.200     19
            0  0  2  0     2.200     20
            3  0  0  0     3.300     21
            2  1  0  0     3.300     22
            2  0  1  0     3.300     23
            1  2  0  0     3.300     24
            1  1  1  0     3.300     25
            1  0  2  0     3.300     26
            0  3  0  0     3.300     27
            0  2  1  0     3.300     28
            0  1  2  0     3.300     29
            0  0  3  0     3.300     30

 Total number of charge fitting functions (nprimf)        84
 Total number of Cartesian basis functions (naos)         30
 Total number of Cartesian core functions  (ncos)          0



 BAS: List of all Elementary Cartesian Basis Functions
 =====================================================

 The numbering in the list below (to the right of the function characteristics) is referred
 to in print-outs of MO eigenvectors and Mulliken populations in the BAS representation
 (as contrasted to the SFO representation).

 Notes:
 1. The functions are characterized by a polynomial prefactor (powers of x,y,z and r) and
    an exponential decay factor alpha.
 2. Since the basis sets are specific for an atom TYPE, the individual functions occur on
    all atoms of that type.
 3. The word 'Core' in the left margin signals that it is a Core Function (CF) : not a
    degree of freedom in the valence set, but only used to ensure orthogonalization of
    the other valence basis functions on the frozen Core Orbitals.


 (power of) X  Y  Z  R     Alpha  on Atom
            ==========     =====     ==========

 C                                    1
                                  ---------------------------------------------------------------------------
            0  0  0  0     7.680      1
            0  0  0  0     5.000      2
            0  0  0  1     1.280      3
            0  0  0  1     2.100      4
            0  0  0  1     4.600      5
            1  0  0  0     0.820      6
            0  1  0  0     0.820      7
            0  0  1  0     0.820      8
            1  0  0  0     1.480      9
            0  1  0  0     1.480     10
            0  0  1  0     1.480     11
            1  0  0  0     2.940     12
            0  1  0  0     2.940     13
            0  0  1  0     2.940     14
            2  0  0  0     2.200     15
            1  1  0  0     2.200     16
            1  0  1  0     2.200     17
            0  2  0  0     2.200     18
            0  1  1  0     2.200     19
            0  0  2  0     2.200     20
            3  0  0  0     3.300     21
            2  1  0  0     3.300     22
            2  0  1  0     3.300     23
            1  2  0  0     3.300     24
            1  1  1  0     3.300     25
            1  0  2  0     3.300     26
            0  3  0  0     3.300     27
            0  2  1  0     3.300     28
            0  1  2  0     3.300     29
            0  0  3  0     3.300     30
1
 ***************************************************************************************************



                                              ***********************
                                              *  T E C H N I C A L  *
                                              ***********************
  



 =============================================================
 P A R A L L E L I Z A T I O N  and  V E C T O R I Z A T I O N
 =============================================================
  
 Nr of parallel processes:                                1
 Maximum vector length in NumInt loops:                 128

 IO buffersize (Mb):                                     64.000000



 =====================
 S C F   U P D A T E S
 =====================
  
 Max. nr. of cycles:                               300
 Convergence criterion:                              0.0000000100
   secondary criterion:                              0.0000000100

 Mix parameter (when DIIS does not apply):           0.2000000000
 Special mix parameter for the first cycle:          1.0000000000
 Mixed ADIIS+DIIS will be used
    Max number of expansion vectors:                10
    Pure ADIIS when Max([F,P]) is above              0.1000000000
    Pure DIIS when Max([F,P]) is below               0.0010000000
 Automatic ElectronSmearing (in case of problematic SCF convergence) disabled



 =================
 P R E C I S I O N  ***  (General: NumInt, NeglectFunctionTails, ...)  ***
 =================
  

 NumInt:           Target precision:                12.0000000000
 -------           Initial precision:               10.0000000000
                   Min. precision (optimization):   10.0000000000

 Neglect Functions:          Basis functions:        0.1000000000E-13
 ------------------          Fit functions:          0.1000000000E-13



 ===========================
 L I N E A R   S C A L I N G
 ===========================
  

 Cut-off radii density fit:                        0.1000000000E-97
 Overlap cut-off criterion AO matrix elements:     0.1000000000E-97
 Cut-offs for Coulomb potential and fitted density:0.1000000000E-97
 Cut-off criterion for Coulomb multipole terms:    0.1000000000E-97
 Progressive Convergence parameter:                 0.000000000    
1
 ***************************************************************************************************



                                            ***************************
                                            *  C O M P U T A T I O N  *
                                            ***************************
  

 Number of elements of the density matrix on this node (used, total):       465       465



 ===========================================
 Numerical Integration : Fuzzy Cells (Becke)
 ===========================================
  
 Becke grid quality: VERYGOOD       
  
 Lebedev angular grid order:             min:  13 max:  41
 Nr. of radial points:                   min:  72 max:  72

 Total nr. of points:         72
 Nr. of blocks:                1
 Block length:                72
 Nr. of dummy points:          0


 Test of Precision of the Numerical Integration Grid
 ===================================================

 Integral of the Total Core Density:                   0.00000000000000



 ========================
 Density Fitting (zlmFit)
 ========================
  
 ZlmFit Fit Quality: VERYGOOD       
  
 Max L-expansion:                        min:   0 max:   0
 Nr. of radial interpolation points:     min: 160 max: 160



 =====
 S C F  ***  ScaSCF  ***
 =====
  

 CYCLE    1
 SCF Error: norm([F,P])=      0.000000000000, max([F,P])=      0.000000000000
 orbitals (Q,E):
 ---------------
 S :1...5            ( 2.00   -17.9995)  ( 2.00    -4.4761)  ( 0.00    -1.9482)  ( 0.00     0.6812)
                     ( 0.00    42.8100)
 P :1...3            ( 2.00    -4.4994)  ( 0.00    -1.9807)  ( 0.00    -1.0849)
 D :1...1            ( 0.00    -1.9800)
 F :1...1            ( 0.00     0.4950)

 CYCLE    2
  SDIIS (wt  0.000):  1.0000  0.0000
 A-DIIS (wt  1.000):  0.0000  1.0000
  DIIS coefficients:  0.0000  1.0000
 SCF Error: norm([F,P])=      4.480319744476, max([F,P])=      3.328841325837
 orbitals (Q,E):
 ---------------
 S :1...3            ( 2.00    -7.7917)  ( 2.00    -0.0500)  ( 0.00     0.8490)
 P :1...2            ( 2.00     0.1033)  ( 0.00     0.5895)
 D :1...1            ( 0.00     1.7552)
 F :1...1            ( 0.00     4.6366)

 CYCLE    3
  SDIIS (wt  0.000):  0.2185  0.7815
 A-DIIS (wt  1.000):  0.1233  0.8767
  DIIS coefficients:  0.1233  0.8767
 SCF Error: norm([F,P])=      1.636788894664, max([F,P])=      1.315295345514
 orbitals (Q,E):
 ---------------
 S :1...3            ( 2.00   -10.9862)  ( 2.00    -0.9428)  ( 0.00     0.1231)
 P :1...2            ( 2.00    -0.6386)  ( 0.00     0.0246)
 D :1...1            ( 0.00     0.8395)
 F :1...1            ( 0.00     3.5625)

 CYCLE    4
  SDIIS (wt  0.000): -0.0629  0.2184  0.8445
 A-DIIS (wt  1.000):  0.0000  0.0872  0.9128
  DIIS coefficients:  0.0000  0.0872  0.9128
 SCF Error: norm([F,P])=      0.722267649759, max([F,P])=      0.580815510644
 orbitals (Q,E):
 ---------------
 S :1...3            ( 2.00    -9.6419)  ( 2.00    -0.3647)  ( 0.00     0.4682)
 P :1...2            ( 2.00    -0.0765)  ( 0.00     0.2450)
 D :1...1            ( 0.00     1.3742)
 F :1...1            ( 0.00     4.1720)

 CYCLE    5
  SDIIS (wt  0.000): -0.0214 -0.0561  0.3847  0.6927
 A-DIIS (wt  1.000):  0.0000  0.0000  0.2646  0.7354
  DIIS coefficients:  0.0000  0.0000  0.2646  0.7354
 SCF Error: norm([F,P])=      0.412794757847, max([F,P])=      0.328642040749
 orbitals (Q,E):
 ---------------
 S :1...3            ( 2.00   -10.1968)  ( 2.00    -0.5643)  ( 0.00     0.3336)
 P :1...2            ( 2.00    -0.2533)  ( 0.00     0.1428)
 D :1...1            ( 0.00     1.1818)
 F :1...1            ( 0.00     3.9467)

 CYCLE    6
  SDIIS (wt  0.032):  0.0025 -0.0116 -0.0698  0.2077  0.8712
 A-DIIS (wt  0.968):  0.0000  0.0000  0.0000  0.0000  1.0000
  DIIS coefficients:  0.0001 -0.0004 -0.0022  0.0066  0.9959
 SCF Error: norm([F,P])=      0.126643163176, max([F,P])=      0.096847488733
 orbitals (Q,E):
 ---------------
 S :1...3            ( 2.00    -9.9458)  ( 2.00    -0.4545)  ( 0.00     0.4037)
 P :1...2            ( 2.00    -0.1511)  ( 0.00     0.1903)
 D :1...1            ( 0.00     1.2866)
 F :1...1            ( 0.00     4.0669)

 CYCLE    7
  SDIIS (wt  0.100): -0.0001  0.0030  0.0073 -0.1526  0.2846  0.8578
 A-DIIS (wt  0.900):  0.0000  0.0000  0.0000  0.0000  0.4446  0.5554
  DIIS coefficients: -0.0000  0.0003  0.0007 -0.0152  0.4286  0.5856
 SCF Error: norm([F,P])=      0.115568228223, max([F,P])=      0.090123764632
 orbitals (Q,E):
 ---------------
 S :1...3            ( 2.00   -10.0697)  ( 2.00    -0.5032)  ( 0.00     0.3719)
 P :1...2            ( 2.00    -0.1955)  ( 0.00     0.1673)
 D :1...1            ( 0.00     1.2400)
 F :1...1            ( 0.00     4.0128)

 CYCLE    8
  SDIIS (wt  0.958): -0.0001  0.0006  0.0026 -0.0162 -0.0129  0.1023  0.9238
 A-DIIS (wt  0.042):  0.0000  0.0000  0.0000  0.0000  0.0000  0.0000  1.0000
  DIIS coefficients: -0.0001  0.0005  0.0025 -0.0155 -0.0124  0.0980  0.9270
 SCF Error: norm([F,P])=      0.006629277794, max([F,P])=      0.005140885246
 orbitals (Q,E):
 ---------------
 S :1...3            ( 2.00   -10.0626)  ( 2.00    -0.5000)  ( 0.00     0.3739)
 P :1...2            ( 2.00    -0.1926)  ( 0.00     0.1686)
 D :1...1            ( 0.00     1.2431)
 F :1...1            ( 0.00     4.0163)

 CYCLE    9
  SDIIS (wt  1.000): -0.0000 -0.0000 -0.0000 -0.0000  0.0023 -0.0004 -0.0164  1.0145
  DIIS coefficients: -0.0000 -0.0000 -0.0000 -0.0000  0.0023 -0.0004 -0.0164  1.0145
 SCF Error: norm([F,P])=      0.000215737588, max([F,P])=      0.000163422089
 orbitals (Q,E):
 ---------------
 S :1...3            ( 2.00   -10.0628)  ( 2.00    -0.5001)  ( 0.00     0.3739)
 P :1...2            ( 2.00    -0.1927)  ( 0.00     0.1686)
 D :1...1            ( 0.00     1.2430)
 F :1...1            ( 0.00     4.0162)

 CYCLE   10
  SDIIS (wt  1.000):  0.0000 -0.0000 -0.0000  0.0001  0.0000 -0.0011  0.0167  0.9843
  DIIS coefficients:  0.0000 -0.0000 -0.0000  0.0001  0.0000 -0.0011  0.0167  0.9843
 SCF Error: norm([F,P])=      0.000001946475, max([F,P])=      0.000001322855
 orbitals (Q,E):
 ---------------
 S :1...3            ( 2.00   -10.0628)  ( 2.00    -0.5001)  ( 0.00     0.3739)
 P :1...2            ( 2.00    -0.1927)  ( 0.00     0.1686)
 D :1...1            ( 0.00     1.2430)
 F :1...1            ( 0.00     4.0162)

 CYCLE   11
  SDIIS (wt  1.000):  0.0000 -0.0000 -0.0002 -0.0078  1.0079
  DIIS coefficients:  0.0000 -0.0000 -0.0002 -0.0078  1.0079
 SCF Error: norm([F,P])=      0.000000017997, max([F,P])=      0.000000015004
 orbitals (Q,E):
 ---------------
 S :1...3            ( 2.00   -10.0628)  ( 2.00    -0.5001)  ( 0.00     0.3739)
 P :1...2            ( 2.00    -0.1927)  ( 0.00     0.1686)
 D :1...1            ( 0.00     1.2430)
 F :1...1            ( 0.00     4.0162)

 CYCLE   12
  SDIIS (wt  1.000):  0.0000 -0.0001  0.0057  0.9944
  DIIS coefficients:  0.0000 -0.0001  0.0057  0.9944
 SCF Error: norm([F,P])=      0.000000000214, max([F,P])=      0.000000000163
 orbitals (Q,E):
 ---------------
 S :1...3            ( 2.00   -10.0628)  ( 2.00    -0.5001)  ( 0.00     0.3739)
 P :1...2            ( 2.00    -0.1927)  ( 0.00     0.1686)
 D :1...1            ( 0.00     1.2430)
 F :1...1            ( 0.00     4.0162)

 SCF CONVERGED

 CYCLE   13
1
 ***************************************************************************************************



                                                *******************
                                                *  R E S U L T S  *
                                                *******************
  
 *** Setting up for NEW gradients in Focky
 *** Using FIT density in Focky

 Orbital Energies, per Irrep and Spin:
 ======================================
                        Occup              E (au)              E (eV)       Diff (eV) with prev. cycle
                        -----      --------------------        ------       --------------------------
 S
               1        2.000     -0.10062819482682E+02      -273.823              -1.46E-09
               2        2.000     -0.50012405867784E+00       -13.609              -9.06E-10
               3        0.000      0.37386666571789E+00        10.173
               4        0.000      0.54114616881922E+01       147.253
               5        0.000      0.50154618712633E+02      1364.777
 P
               1        2.000     -0.19265861396330E+00        -5.243              -8.46E-10
               2        0.000      0.16859720175392E+00         4.588
               3        0.000      0.20146797119588E+01        54.822
 D
               1        0.000      0.12429821924707E+01        33.823
 F
               1        0.000      0.40162441326384E+01       109.288


 Partially Occupied:
               1 P                -0.19265861396330E+00
  
 HOMO :        2 S                -0.50012405867784E+00
 LUMO :        2 P                 0.16859720175392E+00
  


 Orbital Energies, all Irreps
 ========================================

 Irrep        no.  (spin)   Occup              E (au)                E (eV)
 ---------------------------------------------------------------------------
 S             1             2.00       -0.10062819482682E+02      -273.8233
 S             2             2.00       -0.50012405867784E+00       -13.6091
 P             1             2.00       -0.19265861396330E+00        -5.2425
 P             2             0.00        0.16859720175392E+00         4.5878
 S             3             0.00        0.37386666571789E+00        10.1734
 D             1             0.00        0.12429821924707E+01        33.8233
 P             3             0.00        0.20146797119588E+01        54.8222
 F             1             0.00        0.40162441326384E+01       109.2876
 S             4             0.00        0.54114616881922E+01       147.2534
 S             5             0.00        0.50154618712633E+02      1364.7766


 All Electron Calculation, thus no Orbital Energies of the Core Orbitals are calculated



 =======================================
 M U L L I K E N   P O P U L A T I O N S
 =======================================
  
 The survey below gives for each atom:
 a) the total charge (Z minus electrons)
 b) the net spin polarization (nr of electrons spin-A minus spin-B)
 c) for each spin the atomic electron valence density (integrated) per L-value.

 Atom              Charge    Spin density          S         P         D         F
 ----              ------    ------------       ------    ------    ------    ------
 1 C              -0.0000                       4.0000    2.0000    0.0000    0.0000

 Populations of individual BAS functions
 ----------------------------------------
 1 C            0.4900  1.5029  0.9348  1.1161 -0.0439  0.1802  0.1802  0.1802  0.3776  0.3776
                0.3776  0.1089  0.1089  0.1089  0.0000  0.0000  0.0000  0.0000  0.0000  0.0000
                0.0000  0.0000  0.0000  0.0000  0.0000  0.0000  0.0000  0.0000  0.0000  0.0000

 Gross Charges per Atom (Z minus electrons)
 ==========================================
            -0.0000
 Net Total: -0.00000000



 =======================================================================
 Electrostatic potential at the Nuclei due to electrons and other nuclei
 =======================================================================
  
         Atom                  Potential
         ----                  ---------
     1)   C                  14.67487189
 
 
 ========================
 No memory problems found
 ========================
 
 Maximum number of active allocate calls:         447
 
 *******************************************************************************

                             A D F   E X I T
 NORMAL TERMINATION



 =================
 Timing Statistics
 =================
  
 Total Used :                     CPU=        0.48      System=        0.04     Elapsed=        0.53

 Calls  Section                     ( Mean, Percentage )
 ---------------------------------------------------------------------------------------------------
     3  ><      ................      0.00    0.21             0.00    0.00             0.00    0.15
     1  INIT    ................      0.01    1.87             0.01   38.89             0.04    7.24
     1  GEOMET  ................      0.00    0.83             0.00   11.11             0.01    1.57
     1  INPUTA  ................      0.00    0.41             0.00    0.00             0.00    0.29
     1  MAINSY  ................      0.00    0.83             0.00    5.55             0.01    1.11
     1  SYMFIT  ................      0.00    0.00             0.00    0.00             0.00    0.15
     1  CORORT  ................      0.00    0.21             0.00    0.00             0.00    0.05
     1  SYMORB  ................      0.00    0.00             0.00    0.00             0.00    0.13
     1  CLSMAT  ................      0.00    1.04             0.00    0.00             0.01    0.98
     1  ORTHON  ................      0.00    0.21             0.00    2.78             0.00    0.28
     1  GENPT   ................      0.01    2.49             0.00    8.33             0.01    2.76
     1  PTBAS   ................      0.00    0.62             0.00    0.00             0.00    0.65
    13  FOCKY   ................      0.03   76.35             0.00   19.44             0.03   70.27
    13  FOCKTR  ................      0.00    2.28             0.00    2.78             0.00    2.00
    13  SDIIS   ................      0.00    3.73             0.00    5.56             0.00    3.90
     1  COREPS  ................      0.02    3.94             0.00    2.78             0.02    3.93
     1  POPAN   ................      0.01    1.24             0.00    0.00             0.01    0.99
     1  DEBYE   ................      0.00    0.00             0.00    0.00             0.00    0.10
     1  EXIT PROCEDURE .........      0.02    3.73             0.00    2.78             0.02    3.46


 Currently Open Files (EXIT00)
 ====================

 Unit    Access Format  Status   Type       Ident (file)
 -------------------------------------------------------
   3      SEQ    FORM   TRANSP  NORMAL      LOGFILE
                                          ( logfile )


 Buffered I/O statistics
 =======================
 Memory available:                     67108864
 Number of records fitting in memory:     16131
 Input :   0.1% of                        27803  *4k bytes
 Output:  13.6% of                         1374  *4k bytes
 Records from serial files evicted:           0
                    others evicted:           0
 Hash table lookups:      71867 with          0 conflicts (  0.00%)

 ***************************************************************************************************
 (LOGFILE)
 <May01-2019> <13:41:57>  ADF development version  RunTime: May01-2019 13:41:57  Nodes: 1  Procs: 1
 <May01-2019> <13:41:57>  Oxygen (TZ2P)
 <May01-2019> <13:41:57>  RunType   : CREATE
 <May01-2019> <13:41:57>  Net Charge: 0 (Nuclei minus Electrons)
 <May01-2019> <13:41:57>  Symmetry  : ATOM
  Coordinates
    Atom         X           Y           Z   (Angstrom)
    1.O         0.000000    0.000000    0.000000
 <May01-2019> <13:41:57>  >>>> CORORT
 <May01-2019> <13:41:57>  >>>> CLSMAT
 <May01-2019> <13:41:57>  >>>> ORTHON
 <May01-2019> <13:41:57>  >>>> GENPT
 <May01-2019> <13:41:57>  Block Length=  68
 <May01-2019> <13:41:57>  >>>> PTBAS
 <May01-2019> <13:41:57>  >>>> CYCLE
 <May01-2019> <13:41:57>              |Error|         MaxErr       Wt(A-DIIS)
 <May01-2019> <13:41:57>      1      0.00000000      0.00000000
 <May01-2019> <13:41:57>      2      8.76574541      5.51803131    100.0
 <May01-2019> <13:41:57>      3      3.58549945      2.49941011    100.0
 <May01-2019> <13:41:57>      4      1.14791911      0.58301962    100.0
 <May01-2019> <13:41:57>      5      1.51958547      0.84054201    100.0
 <May01-2019> <13:41:57>      6      0.17882893      0.10424203    100.0
 <May01-2019> <13:41:57>      7      0.20012529      0.11364913    100.0
 <May01-2019> <13:41:57>      8      0.01695178      0.00994720      9.0
 <May01-2019> <13:41:57>      9      0.00174843      0.00098437      0.0
 <May01-2019> <13:41:57>     10      0.00000143      0.00000071      0.0
 <May01-2019> <13:41:57>     11      0.00000005      0.00000002      0.0
 <May01-2019> <13:41:57>     12      0.00000000      0.00000000      0.0
 <May01-2019> <13:41:58>  SCF converged
 <May01-2019> <13:41:58>     13      0.00000000      0.00000000      0.0
 <May01-2019> <13:41:58>  >>>> POPAN
 <May01-2019> <13:41:58>  >>>> DEBYE
 <May01-2019> <13:41:58>  NORMAL TERMINATION
 <May01-2019> <13:41:58>  END
 <May01-2019> <13:41:58>  ADF development version  RunTime: May01-2019 13:41:58  Nodes: 1  Procs: 1
 <May01-2019> <13:41:58>  Carbon (TZ2P)
 <May01-2019> <13:41:58>  RunType   : CREATE
 <May01-2019> <13:41:58>  Net Charge: 0 (Nuclei minus Electrons)
 <May01-2019> <13:41:58>  Symmetry  : ATOM
  Coordinates
    Atom         X           Y           Z   (Angstrom)
    1.C         0.000000    0.000000    0.000000
 <May01-2019> <13:41:58>  >>>> CORORT
 <May01-2019> <13:41:58>  >>>> CLSMAT
 <May01-2019> <13:41:58>  >>>> ORTHON
 <May01-2019> <13:41:58>  >>>> GENPT
 <May01-2019> <13:41:58>  Block Length=  72
 <May01-2019> <13:41:58>  >>>> PTBAS
 <May01-2019> <13:41:58>  >>>> CYCLE
 <May01-2019> <13:41:58>              |Error|         MaxErr       Wt(A-DIIS)
 <May01-2019> <13:41:58>      1      0.00000000      0.00000000
 <May01-2019> <13:41:58>      2      4.48031974      3.32884133    100.0
 <May01-2019> <13:41:58>      3      1.63678889      1.31529535    100.0
 <May01-2019> <13:41:58>      4      0.72226765      0.58081551    100.0
 <May01-2019> <13:41:58>      5      0.41279476      0.32864204    100.0
 <May01-2019> <13:41:58>      6      0.12664316      0.09684749     96.8
 <May01-2019> <13:41:58>      7      0.11556823      0.09012376     90.0
 <May01-2019> <13:41:58>      8      0.00662928      0.00514089      4.2
 <May01-2019> <13:41:58>      9      0.00021574      0.00016342      0.0
 <May01-2019> <13:41:58>     10      0.00000195      0.00000132      0.0
 <May01-2019> <13:41:58>     11      0.00000002      0.00000002      0.0
 <May01-2019> <13:41:58>     12      0.00000000      0.00000000      0.0
 <May01-2019> <13:41:58>  SCF converged
 <May01-2019> <13:41:58>     13      0.00000000      0.00000000      0.0
 <May01-2019> <13:41:58>  >>>> POPAN
 <May01-2019> <13:41:58>  >>>> DEBYE
 <May01-2019> <13:41:58>  NORMAL TERMINATION
 <May01-2019> <13:41:58>  END


 Parallel Execution: Process Information
 ==============================================================================
 Rank   Node Name                              NodeID   MyNodeRank  NodeMaster
    0   BAZIS-cn076                               0          0          0
    1   BAZIS-cn076                               0          1         -1
    2   BAZIS-cn076                               0          2         -1
    3   BAZIS-cn076                               0          3         -1
    4   BAZIS-cn076                               0          4         -1
    5   BAZIS-cn076                               0          5         -1
    6   BAZIS-cn076                               0          6         -1
    7   BAZIS-cn076                               0          7         -1
    8   BAZIS-cn076                               0          8         -1
    9   BAZIS-cn076                               0          9         -1
   10   BAZIS-cn076                               0         10         -1
   11   BAZIS-cn076                               0         11         -1
 ==============================================================================


May use up to 30736MB of RAM as shared memory on node 0


XC
  GGA BLYP
END

ANALYTICALFREQ
END

SCF
  iterations 250
END

SYMMETRY D(3H)
CHARGE 0

ZLMFIT
  Quality normal
END

OCCUPATIONS
END

BECKEGRID
  Quality good
End

ATOMS
    2.C         0.917397    1.588977    0.000000
    3.O         1.495217    2.589792    0.000000
    4.C         0.917397   -1.588977    0.000000
    5.O         1.495217   -2.589792    0.000000
    6.C         0.000000    0.000000    1.835389
    7.O         0.000000    0.000000    2.987899
    8.C         0.000000    0.000000   -1.835389
    9.O         0.000000    0.000000   -2.987899
   10.C        -1.834793    0.000000    0.000000
   11.O        -2.990435    0.000000    0.000000
END

Fragments
O t21.O
C t21.C
End
end input

 *******************************************************************************
 *                                                                             *
 *  -------------------------------------                                      *
 *   Amsterdam Density Functional  (ADF)         development version           *
 *  -------------------------------------                                      *
 *                                               r61132 2017-09-08             *
 *                                                                             *
 *                                                                             *
 *                              =================                              *
 *                              |               |                              *
 *                              |     A D F     |                              *
 *                              |               |                              *
 *                              =================                              *
 *                                                                             *
 *                                                                             *
 *   Online information and documentation:  https://www.scm.com/support/       *
 *   E-mail:  support@scm.com   info@scm.com                                   *
 *                                                                             *
 *   Scientific publications using ADF results must be properly referenced     *
 *   See the User Manuals (or the web site) for recommended citations          *
 *   The terms and conditions of the End User License Agreement apply to       *
 *   the use of ADF, https://www.scm.com/license-terms/                        *
 *                                                                             *
 **********************  x86_64_linux_intel / intelmpi  ************************
 
 Licensed to: VU/FEW (+ SARA) / ALGEMEEN / Amsterdam / THE NETHERLANDS
 SCM User ID: u7668
  
 ADF development version  RunTime: May01-2019 13:41:58  Nodes: 1  Procs: 12

 Temporary files are created in /local/datastore0/tcst25/188276/kid_0.WgnmIB


Communication costs MPI_COMM_WORLD:      2.520 usec per message,   0.0134 usec per 8-byte item
Communication costs for intra-node:      2.508 usec per message,   0.0134 usec per 8-byte item

 *** (NO TITLE) ***



 ===========================
 A T T A C H E D   F I L E S
 ===========================
  



 ===============================
 M O D E L   P A R A M E T E R S
 ===============================
  
 DENSITY FUNCTIONAL POTENTIAL (scf)
    LDA:                               Exchange only                           == Not Default ==
    Gradient Corrections:              Becke88 LYP                             == Not Default ==

 SPIN  (restricted / unrestr.)
    Molecule:                          Restricted                               
    Fragments:                         Restricted                               

 OTHER ASPECTS
    Relativistic Corrections:          ---                                      

    Nuclear Charge Density Model:      Point Charge Nuclei                      
    Core Treatment:                    Frozen Orbital(s)                        

    Hyperfine or Zeeman Interaction:   ---                                      


 Fragment File(s)
 ----------------
 C:
         file : t21.C
         jobid: ADF development version  RunTime: May01-2019 13:41:58  Nodes: 1  Procs: 1
         title: Carbon (TZ2P)
 O:
         file : t21.O
         jobid: ADF development version  RunTime: May01-2019 13:41:57  Nodes: 1  Procs: 1
         title: Oxygen (TZ2P)



                                        ************************************
                                        *  R U N   T Y P E : SINGLE POINT  *
                                        ************************************
  



 ===============
 G E O M E T R Y  ***  3D  Molecule  ***
 ===============
  

 ATOMS
 =====                            X Y Z                    CHARGE
                                (Angstrom)             Nucl     +Core       At.Mass
                       --------------------------    ----------------       -------
    1  C               0.9174    1.5890    0.0000      6.00      6.00       12.0000
    2  O               1.4952    2.5898    0.0000      8.00      8.00       15.9949
    3  C               0.9174   -1.5890    0.0000      6.00      6.00       12.0000
    4  O               1.4952   -2.5898    0.0000      8.00      8.00       15.9949
    5  C               0.0000    0.0000    1.8354      6.00      6.00       12.0000
    6  O               0.0000    0.0000    2.9879      8.00      8.00       15.9949
    7  C               0.0000    0.0000   -1.8354      6.00      6.00       12.0000
    8  O               0.0000    0.0000   -2.9879      8.00      8.00       15.9949
    9  C              -1.8348    0.0000    0.0000      6.00      6.00       12.0000
   10  O              -2.9904    0.0000    0.0000      8.00      8.00       15.9949


 FRAGMENTS
 =========                                     Atoms in this Fragment     Cart. coord.s (Angstrom)
                                               -------------------------------------------------------
    1  C                                                 1  C            0.9174    1.5890    0.0000
    2  C                                                 3  C            0.9174   -1.5890    0.0000
    3  C                                                 5  C            0.0000    0.0000    1.8354
    4  C                                                 7  C            0.0000    0.0000   -1.8354
    5  C                                                 9  C           -1.8348    0.0000    0.0000
    6  O                                                 2  O            1.4952    2.5898    0.0000
    7  O                                                 4  O            1.4952   -2.5898    0.0000
    8  O                                                 6  O            0.0000    0.0000    2.9879
    9  O                                                 8  O            0.0000    0.0000   -2.9879
   10  O                                                10  O           -2.9904    0.0000    0.0000


 Interatomic Distance Matrix (Angstrom)
 --------------------------------------

   1)     0.000
   2)     1.156   0.000
   3)     3.178   4.219   0.000
   4)     4.219   5.180   1.156   0.000
   5)     2.595   3.509   2.595   3.509   0.000
   6)     3.506   4.227   3.506   4.227   1.153   0.000
   7)     2.595   3.509   2.595   3.509   3.671   4.823   0.000
   8)     3.506   4.227   3.506   4.227   4.823   5.976   1.153   0.000
   9)     3.178   4.219   3.178   4.219   2.595   3.506   2.595   3.506   0.000
  10)     4.219   5.180   4.219   5.180   3.509   4.227   3.509   4.227   1.156   0.000

 Min. Distance =    1.1525
 Max. Distance =    5.9758



 =====================================
 S Y M M E T R Y ,   E L E C T R O N S
 =====================================
  
 Symmetry: D(3H)

 Irreducible Representations, including subspecies
 -------------------------------------------------
 AA1
 AA2
 EE1:1  EE1:2
 AAA1
 AAA2
 EEE1:1  EEE1:2


 Configuration of Valence Electrons
 ==================================
 ( determined in the SCF procedure )

 Total:   70

 Net Charge: 0 (Nuclei minus Electrons)

 Aufbau principle for MO occupations will be applied through SCF cycle no.     125
 Thereafter, the program will assign electrons to MOs that are spatially
 similar to the occupied MOs in a "reference" cycle ("KeepOrbitals").
 The reference cycle is always the PREVIOUS cycle: it will evolve with
 the SCF procedure.
1
 ***************************************************************************************************



                                      ****************************************
                                      *  B U I L D : (Fragments, Functions)  *
                                      ****************************************
  



 =======
 S F O s  ***  (Symmetrized Fragment Orbitals)  ***
 =======
  
 SFOs are linear combinations of (valence) Fragment Orbitals (FOs), such that the SFOs transform as the
 irreducible representations of the (molecular) symmetry group. Each SFO is therefore characterized by
 an irrep of the molecule and by a few (or only one) generating FOs.
 The SFOs constitute a symmetry-adapted basis for the Fock matrix. The MO eigenvector coefficients in
 this basis provide a direct interpretation of the MOs in terms of Frontier Orbital Theory.

 The SFOs are combined with auxiliary Core Functions (CFs) to ensure orthogonalization on the (frozen)
 Core Orbitals (COs). The Core-orthogonalized SFOs (CSFOs) constitute the true Fock basis.

 The FOs, and hence also the (C)SFOs are combinations of the elementary basis functions (BAS). The basis
 functions that participate in the description of the SFOs depend on the irrep. The indices of the
 involved functions are printed below for each irrep.
 (The complete list of primitive basis functions is printed in another section)

 Total nr. of (C)SFOs (summation over all irreps) :   260

 NOTE: a (C)SFO that is defined as a combination of more than one FO is usually NOT normalized.



                                       === AA1 ===
 Nr. of SFOs :   46
 Cartesian basis functions that participate in this irrep (total number =   176) :
      1    31   121     2    32   122     3    33   123     4
     34   124     5    35   125     6     7    36    37   126
      9    10    39    40   129    12    13    42    43   132
     20    50   140    15    16    18    45    46    48   135
    138    26    29    56    59   146    21    22    24    27
     51    52    54    57   141   144    61    91    62    92
     63    93    64    94    65    95    68    98    71   101
     74   104    80   110    75    78   105   108    90   120
     83    88   113   118    81    84   111   114   151   181
    271   152   182   272   153   183   273   154   184   274
    155   185   275   156   157   186   187   276   159   160
    189   190   279   162   163   192   193   282   170   200
    290   165   166   168   195   196   198   285   288   176
    179   206   209   296   171   172   174   177   201   202
    204   207   291   294   211   241   212   242   213   243
    214   244   215   245   218   248   221   251   224   254
    230   260   225   228   255   258   240   270   233   238
    263   268   231   234   261   264

    SFO  (index         Fragment          Generating    Expansion in Fragment Orbitals
  indx  incl.CFs)   Occup   Orb.Energy   FragmentType  Coeff.   Orbital     on Fragment
 --------------------------------------------------------------------------------------
     1       1      2.000     -10.063 au  C             0.58      1 S               1
                        (    -273.823 eV)               0.58      1 S               2
                                                        0.58      1 S               5
     2       2      2.000      -0.500 au  C             0.58      2 S               1
                        (     -13.609 eV)               0.58      2 S               2
                                                        0.58      2 S               5
     3       3       --         0.374 au  C             0.58      3 S               1
                        (      10.173 eV)               0.58      3 S               2
                                                        0.58      3 S               5
     4       4       --         5.411 au  C             0.58      4 S               1
                        (     147.253 eV)               0.58      4 S               2
                                                        0.58      4 S               5
     5       5       --        50.155 au  C             0.58      5 S               1
                        (    1364.777 eV)               0.58      5 S               2
                                                        0.58      5 S               5
     6       6      0.667      -0.193 au  C             0.29      1 P:x             1
                        (      -5.243 eV)               0.50      1 P:y             1
                                                        0.29      1 P:x             2
                                                       -0.50      1 P:y             2
                                                       -0.58      1 P:x             5
     7       7       --         0.169 au  C             0.29      2 P:x             1
                        (       4.588 eV)               0.50      2 P:y             1
                                                        0.29      2 P:x             2
                                                       -0.50      2 P:y             2
                                                       -0.58      2 P:x             5
     8       8       --         2.015 au  C             0.29      3 P:x             1
                        (      54.822 eV)               0.50      3 P:y             1
                                                        0.29      3 P:x             2
                                                       -0.50      3 P:y             2
                                                       -0.58      3 P:x             5
     9       9       --         1.243 au  C             0.58      1 D:z2            1
                        (      33.823 eV)               0.58      1 D:z2            2
                                                        0.58      1 D:z2            5
    10      10       --         1.243 au  C             0.29      1 D:x2-y2         1
                        (      33.823 eV)              -0.50      1 D:xy            1
                                                        0.29      1 D:x2-y2         2
                                                        0.50      1 D:xy            2
                                                       -0.58      1 D:x2-y2         5
    11      11       --         4.016 au  C             0.29      1 F:z2x           1
                        (     109.288 eV)               0.50      1 F:z2y           1
                                                        0.29      1 F:z2x           2
                                                       -0.50      1 F:z2y           2
                                                       -0.58      1 F:z2x           5
    12      12       --         4.016 au  C             0.58      1 F:x             1
                        (     109.288 eV)               0.58      1 F:x             2
                                                        0.58      1 F:x             5
    13      13      2.000     -10.063 au  C             0.71      1 S               3
                        (    -273.823 eV)               0.71      1 S               4
    14      14      2.000      -0.500 au  C             0.71      2 S               3
                        (     -13.609 eV)               0.71      2 S               4
    15      15       --         0.374 au  C             0.71      3 S               3
                        (      10.173 eV)               0.71      3 S               4
    16      16       --         5.411 au  C             0.71      4 S               3
                        (     147.253 eV)               0.71      4 S               4
    17      17       --        50.155 au  C             0.71      5 S               3
                        (    1364.777 eV)               0.71      5 S               4
    18      18      0.667      -0.193 au  C             0.71      1 P:z             3
                        (      -5.243 eV)              -0.71      1 P:z             4
    19      19       --         0.169 au  C             0.71      2 P:z             3
                        (       4.588 eV)              -0.71      2 P:z             4
    20      20       --         2.015 au  C             0.71      3 P:z             3
                        (      54.822 eV)              -0.71      3 P:z             4
    21      21       --         1.243 au  C             0.71      1 D:z2            3
                        (      33.823 eV)               0.71      1 D:z2            4
    22      22       --         4.016 au  C             0.71      1 F:z3            3
                        (     109.288 eV)              -0.71      1 F:z3            4
    23      23       --         4.016 au  C             0.71      1 F:x             3
                        (     109.288 eV)               0.71      1 F:x             4
    24      24      2.000     -18.927 au  O             0.58      1 S               6
                        (    -515.020 eV)               0.58      1 S               7
                                                        0.58      1 S              10
    25      25      2.000      -0.874 au  O             0.58      2 S               6
                        (     -23.792 eV)               0.58      2 S               7
                                                        0.58      2 S              10
    26      26       --         0.793 au  O             0.58      3 S               6
                        (      21.588 eV)               0.58      3 S               7
                                                        0.58      3 S              10
    27      27       --        13.460 au  O             0.58      4 S               6
                        (     366.259 eV)               0.58      4 S               7
                                                        0.58      4 S              10
    28      28       --       123.108 au  O             0.58      5 S               6
                        (    3349.933 eV)               0.58      5 S               7
                                                        0.58      5 S              10
    29      29      1.333      -0.332 au  O             0.29      1 P:x             6
                        (      -9.028 eV)               0.50      1 P:y             6
                                                        0.29      1 P:x             7
                                                       -0.50      1 P:y             7
                                                       -0.58      1 P:x            10
    30      30       --         0.347 au  O             0.29      2 P:x             6
                        (       9.435 eV)               0.50      2 P:y             6
                                                        0.29      2 P:x             7
                                                       -0.50      2 P:y             7
                                                       -0.58      2 P:x            10
    31      31       --         3.825 au  O             0.29      3 P:x             6
                        (     104.075 eV)               0.50      3 P:y             6
                                                        0.29      3 P:x             7
                                                       -0.50      3 P:y             7
                                                       -0.58      3 P:x            10
    32      32       --         1.070 au  O             0.58      1 D:z2            6
                        (      29.129 eV)               0.58      1 D:z2            7
[...]
    6.O          0.066   0.020   0.000        -0.000  -0.000  -0.405         0.020   0.174  -0.000
    7.C         -0.036  -0.011  -0.000         0.000  -0.000   0.403        -0.071  -0.611  -0.000
    8.O          0.066   0.020  -0.000         0.000   0.000   0.405         0.020   0.174  -0.000
    9.C         -0.228  -0.106  -0.000         0.239  -0.000   0.000         0.027  -0.099   0.000
   10.O         -0.229   0.183  -0.000         0.242   0.000   0.000         0.027   0.048   0.000


                       294.429                       339.214                       418.610
              ------------------------      ------------------------      ------------------------
    1.C         -0.033   0.126  -0.000        -0.000  -0.000   0.510         0.000   0.000  -0.331
    2.O          0.085   0.058  -0.000        -0.000  -0.000  -0.205         0.000   0.000   0.096
    3.C          0.001  -0.161   0.000        -0.000   0.000   0.510         0.000  -0.000  -0.321
    4.O          0.103  -0.101  -0.000        -0.000   0.000  -0.205         0.000  -0.000   0.093
    5.C         -0.611   0.071  -0.000        -0.000  -0.000  -0.154        -0.381  -0.004   0.000
    6.O          0.174  -0.020  -0.000         0.000   0.000  -0.150         0.093   0.001   0.000
    7.C         -0.611   0.071  -0.000         0.000  -0.000  -0.154         0.381   0.004   0.000
    8.O          0.174  -0.020  -0.000        -0.000   0.000  -0.150        -0.093  -0.001   0.000
    9.C          0.233   0.012   0.000        -0.000  -0.000   0.510         0.000   0.000   0.652
   10.O          0.231  -0.006  -0.000        -0.000   0.000  -0.205         0.000   0.000  -0.190


                       418.610                      1955.939                      1955.939
              ------------------------      ------------------------      ------------------------
    1.C          0.000   0.000   0.562         0.292   0.507  -0.000         0.146   0.249   0.000
    2.O          0.000   0.000  -0.163        -0.220  -0.381  -0.000        -0.109  -0.188  -0.000
    3.C          0.000  -0.000  -0.568        -0.271   0.470   0.000         0.182  -0.313   0.000
    4.O          0.000  -0.000   0.165         0.204  -0.353   0.000        -0.137   0.236   0.000
    5.C         -0.004   0.381  -0.000         0.000   0.001  -0.000         0.001  -0.000  -0.000
    6.O          0.001  -0.093  -0.000        -0.000  -0.000   0.000        -0.000   0.000   0.000
    7.C          0.004  -0.381  -0.000         0.000   0.001   0.000         0.001  -0.000   0.000
    8.O         -0.001   0.093  -0.000        -0.000  -0.000  -0.000        -0.000   0.000  -0.000
    9.C         -0.000   0.000   0.006         0.043   0.002   0.000         0.651  -0.000   0.000
   10.O         -0.000  -0.000  -0.002        -0.032  -0.001  -0.000        -0.490   0.000  -0.000


                      1957.756                      1973.428                      1987.703
              ------------------------      ------------------------      ------------------------
    1.C         -0.201  -0.348   0.000         0.000   0.000  -0.002         0.113   0.196  -0.000
    2.O          0.152   0.263   0.000        -0.000  -0.000   0.001        -0.084  -0.146   0.000
    3.C         -0.201   0.348   0.000         0.000  -0.000  -0.002         0.113  -0.196  -0.000
    4.O          0.152  -0.263  -0.000        -0.000   0.000   0.001        -0.084   0.146  -0.000
    5.C          0.000   0.000   0.274        -0.000   0.000  -0.565         0.000   0.000   0.495
    6.O         -0.000   0.000  -0.209        -0.000   0.000   0.425        -0.000   0.000  -0.369
    7.C          0.000   0.000  -0.274         0.000   0.000  -0.565         0.000   0.000  -0.495
    8.O         -0.000   0.000   0.209         0.000   0.000   0.425        -0.000   0.000   0.369
    9.C          0.402   0.000   0.000         0.000  -0.000  -0.002        -0.226   0.000   0.000
   10.O         -0.304   0.000  -0.000        -0.000   0.000   0.001         0.168  -0.000  -0.000




 List of All Frequencies:


 Intensities
 ===========

               Frequency       Dipole Strength        Absorption Intensity (degeneracy not counted)
                 cm-1           1e-40 esu2 cm2          km/mole
              ----------          ----------          ----------
             -204.256267            0.000000           -0.000000
             -204.256267            0.000043           -0.000002
             -155.503027           10.072627           -0.392608
             -155.503027           10.072627           -0.392608
              -87.083340            0.000003           -0.000000
               47.473644            0.000000            0.000000
               64.041110            4.997470            0.080221
               64.041110            4.997470            0.080221
               82.207987            0.000000            0.000000
               82.207987            0.000003            0.000000
              108.259929            0.343918            0.009333
              150.675030            7.405682            0.279695
              150.675030            7.405682            0.279695
              211.018286            0.000002            0.000000
              294.428661           77.028881            5.684755
              294.428661           77.028881            5.684755
              339.214442          120.203968           10.220478
              418.610497            0.000010            0.000001
              418.610497            0.000000            0.000000
             1955.939335          532.455757          261.045961
             1955.939335          532.455757          261.045961
             1957.756129            0.000000            0.000000
             1973.428344          817.759348          404.505983
             1987.703426            0.000001            0.000000



 ============================
 Statistical Thermal Analysis  ***  ideal gas assumed  ***
 ============================
  
 Pressure:                  1.000000 atm.
 Temperature:             298.150000 K



 Moments of Inertia (and direction vectors)
 ==========================================

        1965.1777       2291.1633       2291.1633
 ------------------------------------------------
           0.0000          0.0000          1.0000
           0.0000          1.0000          0.0000
           1.0000          0.0000          0.0000


 The rotational contribution to the molecular entropy includes
 a term, dependent on the symmetry number sigma. The results 
 reported below were computed using sigma = 6, determined from
 the point group symmetry of the input geometry (D(3H)). 
 If this is not the correct symmetry, please contact SCM to report a bug.
 Contributions from frequencies below 20 1/cm are not included in
 the vibrational sums. Their contributions, if any, are reported separately.


     Temp                                                       Transl     Rotat    Vibrat     Total
     ----                                                       ------     -----    ------     -----

     298.15   Entropy (cal/mole-K):                             40.720    27.152    37.828   105.700
              Internal Energy (Kcal/mole):                       0.889     0.889    23.191    24.969
              Constant Volume Heat Capacity (cal/mole-K):        2.981     2.981    25.308    31.269

              Summary of energy terms
                                                   hartree              eV         kcal/mol           kJ/mol
                                      --------------------     -----------       ----------      -----------
              Bond Energy:              -2.589431077168871        -70.4620         -1624.89         -6798.55
              Internal Energy:           0.039790383153191          1.0828            24.97           104.47
              pV/n = RT:                 0.000944186013486          0.0257             0.59             2.48
              Enthalpy H:               -2.548696508002194        -69.3536         -1599.33         -6691.60
              -T*S:                     -0.050221698694659         -1.3666           -31.51          -131.86
              Gibbs free energy:        -2.598918206696852        -70.7202         -1630.85         -6823.46
 

 ***************************************************************************************************
 


====================================================================
*** DONE CALCULATING ANALYTICAL SECOND DERIVATIVES OF THE ENERGY ***
====================================================================

 
 
 ========================
 No memory problems found
 ========================
 
 Maximum number of active allocate calls:        2184
 
 *******************************************************************************

                             A D F   E X I T
 NORMAL TERMINATION



 =================
 Timing Statistics
 =================
  
 Total Used :                     CPU=      103.64      System=        1.32     Elapsed=      105.13

 Calls  Section                     ( Mean, Percentage )
 ---------------------------------------------------------------------------------------------------
     3  ><      ................      0.00    0.00             0.00    0.00             0.00    0.00
     1  INIT    ................      0.48    0.46             0.02    1.58             0.50    0.48
     1  GEOMET  ................      0.03    0.03             0.01    0.60             0.03    0.03
     1  FRAGM   ................      0.02    0.02             0.01    0.91             0.03    0.03
     1  INPUTA  ................      0.00    0.00             0.00    0.00             0.00    0.00
     1  ATDEN   ................      0.01    0.01             0.00    0.00             0.01    0.01
     1  MAINSY  ................      0.01    0.01             0.01    0.98             0.03    0.03
     1  SYMFIT  ................      0.00    0.00             0.00    0.15             0.00    0.00
     1  CORORT  ................      0.00    0.00             0.00    0.00             0.00    0.00
     1  SYMORB  ................      0.01    0.01             0.00    0.00             0.01    0.01
     1  CLSMAT  ................      0.01    0.01             0.00    0.00             0.01    0.01
     1  ORTHON  ................      0.02    0.02             0.01    0.60             0.03    0.03
     1  GENPT   ................      0.16    0.15             0.01    0.68             0.17    0.16
     1  PTBAS   ................      0.42    0.41             0.01    0.98             0.44    0.42
    14  FOCKY   ................      0.65    8.84             0.00    3.77             0.66    8.76
    14  FOCKTR  ................      0.00    0.05             0.00    2.49             0.01    0.09
    14  SDIIS   ................      0.00    0.03             0.00    0.23             0.00    0.05
     1  COREPS  ................      0.47    0.45             0.00    0.23             0.47    0.45
     1  TOTEN   ................      2.07    2.00             0.02    1.21             2.09    1.99
     1  POPAN   ................      0.01    0.01             0.00    0.00             0.01    0.01
     1  DEBYE   ................      0.01    0.01             0.00    0.30             0.01    0.01
     1  INPUTE  ................      0.00    0.00             0.00    0.00             0.00    0.00
     1  SYMORE  ................      0.00    0.00             0.00    0.00             0.00    0.00
     1  METS    ................      0.00    0.00             0.00    0.00             0.00    0.00
     1  CETS    ................      0.01    0.01             0.00    0.00             0.01    0.01
     2  ELNRGY  ................      1.10    2.13             0.01    0.91             1.11    2.11
     1  POPUL   ................      0.02    0.02             0.00    0.23             0.02    0.02
     1  ENGRAD  ................      0.00    0.00             0.00    0.15             0.00    0.00
     1  ENHESS  ................     88.40   85.30             1.10   82.87            89.63   85.26
     1  EXIT PROCEDURE .........      0.03    0.03             0.01    1.13             0.04    0.04


 Currently Open Files (EXIT00)
 ====================

 Unit    Access Format  Status   Type       Ident (file)
 -------------------------------------------------------
   3      SEQ    FORM   TRANSP  NORMAL      LOGFILE
                                          ( logfile )


 Buffered I/O statistics
 =======================
 Memory available:                     67108864
 Number of records fitting in memory:     16131
 Input :   0.1% of                       599058  *4k bytes
 Output:   3.8% of                        30018  *4k bytes
 Records from serial files evicted:           0
                    others evicted:           0
 Hash table lookups:    1604180 with      36922 conflicts (  2.30%)

 ***************************************************************************************************
 (LOGFILE)
 <May01-2019> <13:41:57>  ADF development version  RunTime: May01-2019 13:41:57  Nodes: 1  Procs: 1
 <May01-2019> <13:41:57>  Oxygen (TZ2P)
 <May01-2019> <13:41:57>  RunType   : CREATE
 <May01-2019> <13:41:57>  Net Charge: 0 (Nuclei minus Electrons)
 <May01-2019> <13:41:57>  Symmetry  : ATOM
  Coordinates
    Atom         X           Y           Z   (Angstrom)
    1.O         0.000000    0.000000    0.000000
 <May01-2019> <13:41:57>  >>>> CORORT
 <May01-2019> <13:41:57>  >>>> CLSMAT
 <May01-2019> <13:41:57>  >>>> ORTHON
 <May01-2019> <13:41:57>  >>>> GENPT
 <May01-2019> <13:41:57>  Block Length=  68
 <May01-2019> <13:41:57>  >>>> PTBAS
 <May01-2019> <13:41:57>  >>>> CYCLE
 <May01-2019> <13:41:57>              |Error|         MaxErr       Wt(A-DIIS)
 <May01-2019> <13:41:57>      1      0.00000000      0.00000000
 <May01-2019> <13:41:57>      2      8.76574541      5.51803131    100.0
 <May01-2019> <13:41:57>      3      3.58549945      2.49941011    100.0
 <May01-2019> <13:41:57>      4      1.14791911      0.58301962    100.0
 <May01-2019> <13:41:57>      5      1.51958547      0.84054201    100.0
 <May01-2019> <13:41:57>      6      0.17882893      0.10424203    100.0
 <May01-2019> <13:41:57>      7      0.20012529      0.11364913    100.0
 <May01-2019> <13:41:57>      8      0.01695178      0.00994720      9.0
 <May01-2019> <13:41:57>      9      0.00174843      0.00098437      0.0
 <May01-2019> <13:41:57>     10      0.00000143      0.00000071      0.0
 <May01-2019> <13:41:57>     11      0.00000005      0.00000002      0.0
 <May01-2019> <13:41:57>     12      0.00000000      0.00000000      0.0
 <May01-2019> <13:41:58>  SCF converged
 <May01-2019> <13:41:58>     13      0.00000000      0.00000000      0.0
 <May01-2019> <13:41:58>  >>>> POPAN
 <May01-2019> <13:41:58>  >>>> DEBYE
 <May01-2019> <13:41:58>  NORMAL TERMINATION
 <May01-2019> <13:41:58>  END
 <May01-2019> <13:41:58>  ADF development version  RunTime: May01-2019 13:41:58  Nodes: 1  Procs: 1
 <May01-2019> <13:41:58>  Carbon (TZ2P)
 <May01-2019> <13:41:58>  RunType   : CREATE
 <May01-2019> <13:41:58>  Net Charge: 0 (Nuclei minus Electrons)
 <May01-2019> <13:41:58>  Symmetry  : ATOM
  Coordinates
    Atom         X           Y           Z   (Angstrom)
    1.C         0.000000    0.000000    0.000000
 <May01-2019> <13:41:58>  >>>> CORORT
 <May01-2019> <13:41:58>  >>>> CLSMAT
 <May01-2019> <13:41:58>  >>>> ORTHON
 <May01-2019> <13:41:58>  >>>> GENPT
 <May01-2019> <13:41:58>  Block Length=  72
 <May01-2019> <13:41:58>  >>>> PTBAS
 <May01-2019> <13:41:58>  >>>> CYCLE
 <May01-2019> <13:41:58>              |Error|         MaxErr       Wt(A-DIIS)
 <May01-2019> <13:41:58>      1      0.00000000      0.00000000
 <May01-2019> <13:41:58>      2      4.48031974      3.32884133    100.0
 <May01-2019> <13:41:58>      3      1.63678889      1.31529535    100.0
 <May01-2019> <13:41:58>      4      0.72226765      0.58081551    100.0
 <May01-2019> <13:41:58>      5      0.41279476      0.32864204    100.0
 <May01-2019> <13:41:58>      6      0.12664316      0.09684749     96.8
 <May01-2019> <13:41:58>      7      0.11556823      0.09012376     90.0
 <May01-2019> <13:41:58>      8      0.00662928      0.00514089      4.2
 <May01-2019> <13:41:58>      9      0.00021574      0.00016342      0.0
 <May01-2019> <13:41:58>     10      0.00000195      0.00000132      0.0
 <May01-2019> <13:41:58>     11      0.00000002      0.00000002      0.0
 <May01-2019> <13:41:58>     12      0.00000000      0.00000000      0.0
 <May01-2019> <13:41:58>  SCF converged
 <May01-2019> <13:41:58>     13      0.00000000      0.00000000      0.0
 <May01-2019> <13:41:58>  >>>> POPAN
 <May01-2019> <13:41:58>  >>>> DEBYE
 <May01-2019> <13:41:58>  NORMAL TERMINATION
 <May01-2019> <13:41:58>  END
 <May01-2019> <13:41:58>  ADF development version  RunTime: May01-2019 13:41:58  Nodes: 1  Procs: 12
 <May01-2019> <13:41:59>  *** (NO TITLE) ***
 <May01-2019> <13:41:59>  RunType   : SINGLE POINT
 <May01-2019> <13:41:59>  Net Charge: 0 (Nuclei minus Electrons)
 <May01-2019> <13:41:59>  Symmetry  : D(3H)
 <May01-2019> <13:41:59>  >>>> FRAGM
  Coordinates
    Atom         X           Y           Z   (Angstrom)
    1.C         0.917396    1.588977    0.000000
    2.O         1.495217    2.589792    0.000000
    3.C         0.917396   -1.588977    0.000000
    4.O         1.495217   -2.589792    0.000000
    5.C         0.000000    0.000000    1.835389
    6.O         0.000000    0.000000    2.987899
    7.C         0.000000    0.000000   -1.835389
    8.O         0.000000    0.000000   -2.987899
    9.C        -1.834793    0.000000    0.000000
   10.O        -2.990434    0.000000    0.000000
 <May01-2019> <13:41:59>  >>>> CORORT
 <May01-2019> <13:41:59>  >>>> CLSMAT
 <May01-2019> <13:41:59>  >>>> ORTHON
 <May01-2019> <13:41:59>  >>>> GENPT
 <May01-2019> <13:41:59>  Block Length= 128
 <May01-2019> <13:41:59>  >>>> PTBAS
 <May01-2019> <13:42:00>  >>>> CYCLE
 <May01-2019> <13:42:01>              |Error|         MaxErr       Wt(A-DIIS)
 <May01-2019> <13:42:01>      1      6.33160772      1.68517557
 <May01-2019> <13:42:01>      2      1.10404416      0.17658166    100.0
 <May01-2019> <13:42:02>      3      0.39504839      0.04439360    100.0
 <May01-2019> <13:42:02>      4      0.45195242      0.05384195    100.0
 <May01-2019> <13:42:03>      5      0.29546546      0.06418999     63.8
 <May01-2019> <13:42:04>      6      0.30552320      0.07000234     63.8
 <May01-2019> <13:42:04>      7      0.01805144      0.00279741      1.8
 <May01-2019> <13:42:05>      8      0.00387536      0.00099302      0.0
 <May01-2019> <13:42:06>      9      0.00083317      0.00022334      0.0
 <May01-2019> <13:42:06>     10      0.00015760      0.00004028      0.0
 <May01-2019> <13:42:07>     11      0.00002869      0.00000607      0.0
 <May01-2019> <13:42:08>     12      0.00000447      0.00000106      0.0
 <May01-2019> <13:42:08>     13      0.00000011      0.00000002      0.0
 <May01-2019> <13:42:08>  SCF converged
 <May01-2019> <13:42:09>     14      0.00000003      0.00000001      0.0
 <May01-2019> <13:42:09>  >>>> TOTEN
 <May01-2019> <13:42:12>  >>>> POPAN
 <May01-2019> <13:42:12>  >>>> DEBYE
 <May01-2019> <13:42:12>  >>>> AMETS
 <May01-2019> <13:42:12>   Bond Energy          -2.58943108 a.u.
 <May01-2019> <13:42:12>   Bond Energy         -70.46200474 eV
 <May01-2019> <13:42:12>   Bond Energy       -1624.89       kcal/mol
 <May01-2019> <13:42:12>  >>>> POPUL
 <May01-2019> <13:42:12>  >>>> ENGRAD
 <May01-2019> <13:42:14>  >>>> ENHESS
 <May01-2019> <13:42:14>  === NUCLEUS:     1
 <May01-2019> <13:42:37>  === NUCLEUS:     3
 <May01-2019> <13:42:57>  === NUCLEUS:     6
 <May01-2019> <13:43:18>  === NUCLEUS:     8
 <May01-2019> <13:43:38>  >>>> CALC_HESS_PMAT
 <May01-2019> <13:43:42>  >>>> CALC_HESS_WMAT
 <May01-2019> <13:43:43>  NORMAL TERMINATION
 <May01-2019> <13:43:43>  END
