

 Parallel Execution: Process Information
 ==============================================================================
 Rank   Node Name                              NodeID   MyNodeRank  NodeMaster
    0   BAZIS-cn022                               0          0          0
    1   BAZIS-cn022                               0          1         -1
    2   BAZIS-cn022                               0          2         -1
    3   BAZIS-cn022                               0          3         -1
    4   BAZIS-cn022                               0          4         -1
    5   BAZIS-cn022                               0          5         -1
    6   BAZIS-cn022                               0          6         -1
    7   BAZIS-cn022                               0          7         -1
    8   BAZIS-cn022                               0          8         -1
    9   BAZIS-cn022                               0          9         -1
   10   BAZIS-cn022                               0         10         -1
   11   BAZIS-cn022                               0         11         -1
 ==============================================================================


May use up to 30771MB of RAM as shared memory on node 0


XC
    GGA BP86
END

SCF
    iterations 250
END

EPRINT
    SFO Eig Ovl
END

ZLMFIT
    Quality normal
END

BECKEGRID
    Quality good
End

SYMMETRY nosym
CHARGE -1

ATOMS
1.Br       -5.000760    3.281054   -0.090993 f=BrBr
2.Br       -4.017690    0.894220    0.517771 f=BrBr
3.F        -5.756931    5.123645   -0.563979 f=F
END

Fragments
BrBr /home/tcst25/advanced_comp_chemistry/exercise2/halogen/BrBrF/frag1_BrBr.t21
F /home/tcst25/advanced_comp_chemistry/exercise2/halogen/BrBrF/frag2_F.t21
End
end input

 *******************************************************************************
 *                                                                             *
 *  -------------------------------------                                      *
 *   Amsterdam Density Functional  (ADF)         2017                          *
 *  -------------------------------------                                      *
 *                                               r58813 2017-04-12             *
 *                                                                             *
 *                                                                             *
 *                              =================                              *
 *                              |               |                              *
 *                              |     A D F     |                              *
 *                              |               |                              *
 *                              =================                              *
 *                                                                             *
 *                                                                             *
 *   Online information and documentation:  https://www.scm.com/support/       *
 *   E-mail:  support@scm.com   info@scm.com                                   *
 *                                                                             *
 *   Scientific publications using ADF results must be properly referenced     *
 *   See the User Manuals (or the web site) for recommended citations          *
 *   The terms and conditions of the End User License Agreement apply to       *
 *   the use of ADF, https://www.scm.com/license-terms/                        *
 *                                                                             *
 **********************  x86_64_linux_intel / intelmpi  ************************
 
 Licensed to: VU/FEW (+ SARA) / ALGEMEEN / Amsterdam / THE NETHERLANDS
 SCM User ID: u7668
  
 ADF 2017  RunTime: May09-2019 17:11:56  Nodes: 1  Procs: 12

 Temporary files are created in /local/datastore0/tcst25/189767/kid_0.o3yOnL


Communication costs MPI_COMM_WORLD:      3.840 usec per message,   0.0184 usec per 8-byte item
Communication costs for intra-node:      3.853 usec per message,   0.0177 usec per 8-byte item

 *** (NO TITLE) ***



 ===========================
 A T T A C H E D   F I L E S
 ===========================
  



 ===============================
 M O D E L   P A R A M E T E R S
 ===============================
  
 DENSITY FUNCTIONAL POTENTIAL (scf)
    LDA:                               VWN                                      
    Gradient Corrections:              Becke88 Perdew86                        == Not Default ==

 SPIN  (restricted / unrestr.)
    Molecule:                          Restricted                               
    Fragments:                         Restricted                               

 OTHER ASPECTS
    Relativistic Corrections:          ---                                      

    Nuclear Charge Density Model:      Point Charge Nuclei                      
    Core Treatment:                    Frozen Orbital(s)                        

    Hyperfine or Zeeman Interaction:   ---                                      


 Fragment File(s)
 ----------------
 BrBr:
         file : /home/tcst25/advanced_comp_chemistry/exercise2/halogen/BrBrF/frag1_BrBr.t21
         jobid: ADF 2017  RunTime: May09-2019 16:32:13  Nodes: 1  Procs: 12
         title: *** (NO TITLE) ***
 F:
         file : /home/tcst25/advanced_comp_chemistry/exercise2/halogen/BrBrF/frag2_F.t21
         jobid: ADF 2017  RunTime: May09-2019 16:32:13  Nodes: 1  Procs: 12
         title: *** (NO TITLE) ***



                                        ************************************
                                        *  R U N   T Y P E : SINGLE POINT  *
                                        ************************************
  



 ===============
 G E O M E T R Y  ***  Planar Molecule  ***
 ===============
  

 ATOMS
 =====                            X Y Z                    CHARGE
                                (Angstrom)             Nucl     +Core       At.Mass
                       --------------------------    ----------------       -------
    1  Br             -5.0008    3.2811   -0.0910     35.00     35.00       78.9183
    2  Br             -4.0177    0.8942    0.5178     35.00     35.00       78.9183
    3  F              -5.7569    5.1236   -0.5640      9.00      9.00       18.9984


 FRAGMENTS
 =========                                     Atoms in this Fragment     Cart. coord.s (Angstrom)
                                               -------------------------------------------------------
    1  BrBr                                              1  Br          -5.0008    3.2811   -0.0910
                                                         2  Br          -4.0177    0.8942    0.5178
    2  F                                                 3  F           -5.7569    5.1236   -0.5640


 Interatomic Distance Matrix (Angstrom)
 --------------------------------------

   1)     0.000
   2)     2.652   0.000
   3)     2.047   4.699   0.000

 Min. Distance =    2.0471
 Max. Distance =    4.6993



 =====================================
 S Y M M E T R Y ,   E L E C T R O N S
 =====================================
  
 Symmetry: NOSYM

 Irreducible Representations, including subspecies
 -------------------------------------------------
 A


 Configuration of Valence Electrons
 ==================================
 ( determined in the SCF procedure )

 Total:   80

 Net Charge: -1 (Nuclei minus Electrons)

 Aufbau principle for MO occupations will be applied through SCF cycle no.     125
 Thereafter, the program will assign electrons to MOs that are spatially
 similar to the occupied MOs in a "reference" cycle ("KeepOrbitals").
 The reference cycle is always the PREVIOUS cycle: it will evolve with
 the SCF procedure.
1
 ***************************************************************************************************



                                      ****************************************
                                      *  B U I L D : (Fragments, Functions)  *
                                      ****************************************
  

 The individual fragments are copies of the corresponding 'Master' fragments defined on the fragment files.
 However, they may have been rotated (and translated) with respect to the Master. The local coordinate axes
 of each fragment (which define for instance the spatial orientation in the current molecule of a fragment
 P:x orbital) are not necessarily those of the molecule.
 The local frame (if different from the molecular one) is printed to enable an interpretation of the expan-
 sion of an MO in Fragment Orbitals.



                                             **************************
                                             *  Fragment Type : BrBr  *
                                             **************************
  

 Fragment no.    1   (in the list of all fragments)
 -----------------
 The local coordinate frame is identical to the molecular frame.

 Check Atomic Coordinates:

                  Master (on file)          After Computed Tranformation               As specified on Input
           ----------------------------     ----------------------------     ---------------------------------
     1)    -5.00076   3.28105  -0.09099     -5.00076   3.28105  -0.09099       1  -5.00076   3.28105  -0.09099
     2)    -4.01769   0.89422   0.51777     -4.01769   0.89422   0.51777       2  -4.01769   0.89422   0.51777



                                              ***********************
                                              *  Fragment Type : F  *
                                              ***********************
  

 Fragment no.    2   (in the list of all fragments)
 -----------------
 The local coordinate frame is identical to the molecular frame.

 Check Atomic Coordinates:

                  Master (on file)          After Computed Tranformation               As specified on Input
           ----------------------------     ----------------------------     ---------------------------------
     1)    -5.75693   5.12364  -0.56398     -5.75693   5.12365  -0.56398       3  -5.75693   5.12365  -0.56398



 =======
 S F O s  ***  (Symmetrized Fragment Orbitals)  ***
 =======
  
 SFOs are linear combinations of (valence) Fragment Orbitals (FOs), such that the SFOs transform as the
 irreducible representations of the (molecular) symmetry group. Each SFO is therefore characterized by
 an irrep of the molecule and by a few (or only one) generating FOs.
 The SFOs constitute a symmetry-adapted basis for the Fock matrix. The MO eigenvector coefficients in
 this basis provide a direct interpretation of the MOs in terms of Frontier Orbital Theory.

 The SFOs are combined with auxiliary Core Functions (CFs) to ensure orthogonalization on the (frozen)
 Core Orbitals (COs). The Core-orthogonalized SFOs (CSFOs) constitute the true Fock basis.

 The FOs, and hence also the (C)SFOs are combinations of the elementary basis functions (BAS). The basis
 functions that participate in the description of the SFOs depend on the irrep. The indices of the
 involved functions are printed below for each irrep.
 (The complete list of primitive basis functions is printed in another section)

 Total nr. of (C)SFOs (summation over all irreps) :   138

 NOTE: a (C)SFO that is defined as a combination of more than one FO is usually NOT normalized.



                                       === A ===
 Nr. of SFOs :  138
 Cartesian basis functions that participate in this irrep (total number =   156) :
      1     2     3    10    11    36    37    38     4     7
     12    15    39    42    45     5     8    13    16    40
     43    46     6     9    14    17    41    44    47    18
     24    30    48    19    25    31    49    20    26    32
     50    21    27    33    51    22    28    34    52    23
     29    35    53    54    55    56    57    58    59    60
     61    62    63    64    65    66    73    74    99   100
    101    67    70    75    78   102   105   108    68    71
     76    79   103   106   109    69    72    77    80   104
    107   110    81    87    93   111    82    88    94   112
     83    89    95   113    84    90    96   114    85    91
     97   115    86    92    98   116   117   118   119   120
    121   122   123   124   125   126   127   128   129   130
    131   132   135   138   133   136   139   134   137   140
    141   142   143   144   145   146   147   148   149   150
    151   152   153   154   155   156

    SFO  (index         Fragment          Generating    Expansion in Fragment Orbitals
  indx  incl.CFs)   Occup   Orb.Energy   FragmentType  Coeff.   Orbital     on Fragment
 --------------------------------------------------------------------------------------
     1       1      2.000    -481.040 au  BrBr          1.00      1 A               1
                        (  -13089.758 eV)
     2       2      2.000    -481.040 au  BrBr          1.00      2 A               1
                        (  -13089.758 eV)
     3       3      2.000     -61.795 au  BrBr          1.00      3 A               1
                        (   -1681.529 eV)
     4       4      2.000     -61.795 au  BrBr          1.00      4 A               1
                        (   -1681.529 eV)
     5       5      2.000     -55.729 au  BrBr          1.00      5 A               1
                        (   -1516.474 eV)
     6       6      2.000     -55.729 au  BrBr          1.00      6 A               1
                        (   -1516.474 eV)
     7       7      2.000     -55.723 au  BrBr          1.00      7 A               1
                        (   -1516.289 eV)
     8       8      2.000     -55.723 au  BrBr          1.00      8 A               1
                        (   -1516.289 eV)
     9       9      2.000     -55.723 au  BrBr          1.00      9 A               1
                        (   -1516.289 eV)
    10      10      2.000     -55.723 au  BrBr          1.00     10 A               1
                        (   -1516.289 eV)
    11      11      2.000      -8.415 au  BrBr          1.00     11 A               1
                        (    -228.983 eV)
    12      12      2.000      -8.415 au  BrBr          1.00     12 A               1
                        (    -228.980 eV)
    13      13      2.000      -6.327 au  BrBr          1.00     13 A               1
                        (    -172.180 eV)
    14      14      2.000      -6.327 au  BrBr          1.00     14 A               1
                        (    -172.179 eV)
    15      15      2.000      -6.308 au  BrBr          1.00     15 A               1
                        (    -171.652 eV)
    16      16      2.000      -6.308 au  BrBr          1.00     16 A               1
                        (    -171.652 eV)
    17      17      2.000      -6.308 au  BrBr          1.00     17 A               1
                        (    -171.651 eV)
    18      18      2.000      -6.308 au  BrBr          1.00     18 A               1
                        (    -171.651 eV)
    19      19      2.000      -2.532 au  BrBr          1.00     19 A               1
                        (     -68.894 eV)
    20      20      2.000      -2.531 au  BrBr          1.00     20 A               1
                        (     -68.884 eV)
    21      21      2.000      -2.527 au  BrBr          1.00     21 A               1
                        (     -68.762 eV)
    22      22      2.000      -2.527 au  BrBr          1.00     22 A               1
                        (     -68.762 eV)
    23      23      2.000      -2.527 au  BrBr          1.00     23 A               1
                        (     -68.760 eV)
    24      24      2.000      -2.527 au  BrBr          1.00     24 A               1
                        (     -68.760 eV)
    25      25      2.000      -2.513 au  BrBr          1.00     25 A               1
                        (     -68.376 eV)
    26      26      2.000      -2.513 au  BrBr          1.00     26 A               1
                        (     -68.376 eV)
    27      27      2.000      -2.513 au  BrBr          1.00     27 A               1
                        (     -68.376 eV)
    28      28      2.000      -2.513 au  BrBr          1.00     28 A               1
                        (     -68.376 eV)
    29      29      2.000      -0.743 au  BrBr          1.00     29 A               1
                        (     -20.218 eV)
    30      30      2.000      -0.693 au  BrBr          1.00     30 A               1
                        (     -18.858 eV)
    31      31      2.000      -0.370 au  BrBr          1.00     31 A               1
                        (     -10.077 eV)
    32      32      2.000      -0.303 au  BrBr          1.00     32 A               1
                        (      -8.256 eV)
    33      33      2.000      -0.303 au  BrBr          1.00     33 A               1
                        (      -8.256 eV)
    34      34      2.000      -0.264 au  BrBr          1.00     34 A               1
                        (      -7.190 eV)
    35      35      2.000      -0.264 au  BrBr          1.00     35 A               1
                        (      -7.190 eV)
    36      36       --        -0.226 au  BrBr          1.00     36 A               1
                        (      -6.158 eV)
    37      37       --         0.092 au  BrBr          1.00     37 A               1
                        (       2.510 eV)
    38      38       --         0.121 au  BrBr          1.00     38 A               1
                        (       3.292 eV)
    39      39       --         0.127 au  BrBr          1.00     39 A               1
                        (       3.450 eV)
    40      40       --         0.127 au  BrBr          1.00     40 A               1
                        (       3.450 eV)
    41      41       --         0.165 au  BrBr          1.00     41 A               1
                        (       4.493 eV)
    42      42       --         0.165 au  BrBr          1.00     42 A               1
                        (       4.493 eV)
    43      43       --         0.184 au  BrBr          1.00     43 A               1
                        (       5.007 eV)
    44      44       --         0.184 au  BrBr          1.00     44 A               1
                        (       5.007 eV)
    45      45       --         0.212 au  BrBr          1.00     45 A               1
                        (       5.778 eV)
    46      46       --         0.238 au  BrBr          1.00     46 A               1
                        (       6.468 eV)
    47      47       --         0.238 au  BrBr          1.00     47 A               1
                        (       6.468 eV)
    48      48       --         0.297 au  BrBr          1.00     48 A               1
                        (       8.076 eV)
    49      49       --         0.297 au  BrBr          1.00     49 A               1
                        (       8.076 eV)
    50      50       --         0.317 au  BrBr          1.00     50 A               1
                        (       8.629 eV)
    51      51       --         0.319 au  BrBr          1.00     51 A               1
                        (       8.669 eV)
    52      52       --         0.403 au  BrBr          1.00     52 A               1
                        (      10.965 eV)
    53      53       --         0.403 au  BrBr          1.00     53 A               1
                        (      10.965 eV)
    54      54       --         0.672 au  BrBr          1.00     54 A               1
                        (      18.295 eV)
    55      55       --         0.760 au  BrBr          1.00     55 A               1
                        (      20.678 eV)
    56      56       --         0.760 au  BrBr          1.00     56 A               1
                        (      20.678 eV)
    57      57       --         0.793 au  BrBr          1.00     57 A               1
                        (      21.572 eV)
    58      58       --         0.793 au  BrBr          1.00     58 A               1
                        (      21.572 eV)
    59      59       --         0.829 au  BrBr          1.00     59 A               1
                        (      22.560 eV)
    60      60       --         0.829 au  BrBr          1.00     60 A               1
                        (      22.560 eV)
    61      61       --         0.855 au  BrBr          1.00     61 A               1
                        (      23.270 eV)
    62      62       --         0.889 au  BrBr          1.00     62 A               1
                        (      24.190 eV)
    63      63       --         0.889 au  BrBr          1.00     63 A               1
                        (      24.190 eV)
    64      64       --         0.987 au  BrBr          1.00     64 A               1
                        (      26.859 eV)
    65      65       --         0.987 au  BrBr          1.00     65 A               1
                        (      26.859 eV)
    66      66       --         1.029 au  BrBr          1.00     66 A               1
                        (      28.007 eV)
    67      67       --         1.070 au  BrBr          1.00     67 A               1
                        (      29.106 eV)
    68      68       --         1.070 au  BrBr          1.00     68 A               1
                        (      29.107 eV)
    69      69       --         1.198 au  BrBr          1.00     69 A               1
                        (      32.594 eV)
    70      70       --         1.198 au  BrBr          1.00     70 A               1
                        (      32.594 eV)
    71      71       --         1.202 au  BrBr          1.00     71 A               1
                        (      32.700 eV)
    72      72       --         1.345 au  BrBr          1.00     72 A               1
                        (      36.598 eV)
    73      73       --         1.345 au  BrBr          1.00     73 A               1
                        (      36.599 eV)
    74      74       --         1.695 au  BrBr          1.00     74 A               1
                        (      46.134 eV)
    75      75       --         2.442 au  BrBr          1.00     75 A               1
                        (      66.453 eV)
    76      76       --         2.621 au  BrBr          1.00     76 A               1
                        (      71.318 eV)
    77      77       --         2.621 au  BrBr          1.00     77 A               1
                        (      71.319 eV)
    78      78       --         2.650 au  BrBr          1.00     78 A               1
                        (      72.100 eV)
    79      79       --         2.650 au  BrBr          1.00     79 A               1
                        (      72.100 eV)
    80      80       --         2.738 au  BrBr          1.00     80 A               1
                        (      74.501 eV)
    81      81       --         2.738 au  BrBr          1.00     81 A               1
                        (      74.501 eV)
    82      82       --         2.744 au  BrBr          1.00     82 A               1
                        (      74.659 eV)
    83      83       --         2.915 au  BrBr          1.00     83 A               1
                        (      79.330 eV)
    84      84       --         3.021 au  BrBr          1.00     84 A               1
                        (      82.208 eV)
    85      85       --         3.021 au  BrBr          1.00     85 A               1
                        (      82.208 eV)
    86      86       --         3.642 au  BrBr          1.00     86 A               1
                        (      99.095 eV)
    87      87       --         8.794 au  BrBr          1.00     87 A               1
                        (     239.287 eV)
    88      88       --         8.794 au  BrBr          1.00     88 A               1
                        (     239.288 eV)
    89      89       --         8.925 au  BrBr          1.00     89 A               1
                        (     242.855 eV)
    90      90       --         8.962 au  BrBr          1.00     90 A               1
                        (     243.856 eV)
    91      91       --         8.962 au  BrBr          1.00     91 A               1
                        (     243.857 eV)
    92      92       --         9.416 au  BrBr          1.00     92 A               1
                        (     256.233 eV)
    93      93       --        14.316 au  BrBr          1.00     93 A               1
                        (     389.559 eV)
    94      94       --        14.988 au  BrBr          1.00     94 A               1
                        (     407.835 eV)
    95      95       --        20.529 au  BrBr          1.00     95 A               1
                        (     558.618 eV)
    96      96       --        20.529 au  BrBr          1.00     96 A               1
                        (     558.619 eV)
    97      97       --        20.556 au  BrBr          1.00     97 A               1
                        (     559.355 eV)
    98      98       --        20.556 au  BrBr          1.00     98 A               1
                        (     559.355 eV)
    99      99       --        20.677 au  BrBr          1.00     99 A               1
                        (     562.643 eV)
   100     100       --        20.677 au  BrBr          1.00    100 A               1
                        (     562.643 eV)
   101     101       --        20.866 au  BrBr          1.00    101 A               1
                        (     567.786 eV)
   102     102       --        21.051 au  BrBr          1.00    102 A               1
                        (     572.821 eV)
   103     103       --        21.051 au  BrBr          1.00    103 A               1
                        (     572.821 eV)
   104     104       --        21.717 au  BrBr          1.00    104 A               1
                        (     590.951 eV)
   105     105       --       100.773 au  BrBr          1.00    105 A               1
                        (    2742.186 eV)
   106     106       --       100.773 au  BrBr          1.00    106 A               1
                        (    2742.186 eV)
   107     107       --       101.082 au  BrBr          1.00    107 A               1
                        (    2750.578 eV)
   108     108       --       101.149 au  BrBr          1.00    108 A               1
                        (    2752.411 eV)
   109     109       --       101.149 au  BrBr          1.00    109 A               1
                        (    2752.412 eV)
   110     110       --       102.154 au  BrBr          1.00    110 A               1
                        (    2779.745 eV)
   111     111       --       746.632 au  BrBr          1.00    111 A               1
                        (   20316.897 eV)
   112     112       --       749.652 au  BrBr          1.00    112 A               1
                        (   20399.064 eV)
   113     113      2.000     -23.791 au  F             1.00      1 A               2
                        (    -647.398 eV)
   114     114      2.000      -0.555 au  F             1.00      2 A               2
                        (     -15.093 eV)
   115     115      2.000       0.108 au  F             1.00      3 A               2
                        (       2.944 eV)
   116     116      2.000       0.108 au  F             1.00      4 A               2
                        (       2.944 eV)
   117     117      2.000       0.108 au  F             1.00      5 A               2
                        (       2.944 eV)
   118     118       --         0.286 au  F             1.00      6 A               2
                        (       7.773 eV)
   119     119       --         0.812 au  F             1.00      7 A               2
                        (      22.092 eV)
   120     120       --         0.812 au  F             1.00      8 A               2
                        (      22.092 eV)
   121     121       --         0.812 au  F             1.00      9 A               2
                        (      22.092 eV)
   122     122       --         1.566 au  F             1.00     10 A               2
                        (      42.603 eV)
   123     123       --         1.566 au  F             1.00     11 A               2
                        (      42.603 eV)
   124     124       --         1.566 au  F             1.00     12 A               2
                        (      42.603 eV)
   125     125       --         1.566 au  F             1.00     13 A               2
                        (      42.603 eV)
   126     126       --         1.566 au  F             1.00     14 A               2
                        (      42.603 eV)
   127     127       --         2.040 au  F             1.00     15 A               2
                        (      55.515 eV)
   128     128       --         3.896 au  F             1.00     16 A               2
                        (     106.020 eV)
   129     129       --         3.896 au  F             1.00     17 A               2
                        (     106.020 eV)
   130     130       --         3.896 au  F             1.00     18 A               2
                        (     106.020 eV)
   131     131       --         3.896 au  F             1.00     19 A               2
                        (     106.020 eV)
   132     132       --         3.896 au  F             1.00     20 A               2
                        (     106.020 eV)
   133     133       --         3.896 au  F             1.00     21 A               2
                        (     106.020 eV)
   134     134       --         3.896 au  F             1.00     22 A               2
                        (     106.020 eV)
   135     135       --         5.088 au  F             1.00     23 A               2
                        (     138.458 eV)
   136     136       --         5.088 au  F             1.00     24 A               2
                        (     138.458 eV)
   137     137       --         5.088 au  F             1.00     25 A               2
                        (     138.458 eV)
   138     138       --        48.938 au  F             1.00     26 A               2
                        (    1331.672 eV)



 ================================
 (Slater-type)  F U N C T I O N S  ***  (Basis and Fit)  ***
 ================================
  

 Atom Type    1  (Br)
 ==============

 Valence Basis Sets:  20
 -----------------------
   1 S   41.300000
   1 S   32.800000
   2 S   13.900000
   2 P   19.450000
   2 P   13.100000
   3 S    7.200000
   3 S    4.950000
   3 P    7.900000
   3 P    5.050000
   3 D   10.900000
   3 D    6.050000
   3 D    3.500000
   4 S    4.500000
   4 S    2.800000
   4 S    1.800000
   4 P    3.250000
   4 P    1.950000
   4 P    1.200000
   4 D    1.800000
   4 F    1.800000

 Atom Type    2  (F)
 ==============

 Valence Basis Sets:  10
 -----------------------
   1 S   10.880000
   1 S    7.700000
   2 S    3.240000
   2 S    1.940000
   2 S    0.740000
   2 P    4.540000
   2 P    2.300000
   2 P    1.240000
   3 D    2.000000
   4 F    3.000000


 BAS: List of all Elementary Cartesian Basis Functions
 =====================================================

 The numbering in the list below (to the right of the function characteristics) is referred
 to in print-outs of MO eigenvectors and Mulliken populations in the BAS representation
 (as contrasted to the SFO representation).

 Notes:
 1. The functions are characterized by a polynomial prefactor (powers of x,y,z and r) and
    an exponential decay factor alpha.
 2. Since the basis sets are specific for an atom TYPE, the individual functions occur on
    all atoms of that type.
 3. The word 'Core' in the left margin signals that it is a Core Function (CF) : not a
    degree of freedom in the valence set, but only used to ensure orthogonalization of
    the other valence basis functions on the frozen Core Orbitals.


 (power of) X  Y  Z  R     Alpha  on Atom
            ==========     =====     ==========

 Br                                   1    2
                                  ---------------------------------------------------------------------------
            0  0  0  0    41.300      1   64
            0  0  0  0    32.800      2   65
            0  0  0  1    13.900      3   66
            1  0  0  0    19.450      4   67
            0  1  0  0    19.450      5   68
            0  0  1  0    19.450      6   69
            1  0  0  0    13.100      7   70
            0  1  0  0    13.100      8   71
            0  0  1  0    13.100      9   72
            0  0  0  2     7.200     10   73
            0  0  0  2     4.950     11   74
            1  0  0  1     7.900     12   75
            0  1  0  1     7.900     13   76
            0  0  1  1     7.900     14   77
            1  0  0  1     5.050     15   78
            0  1  0  1     5.050     16   79
            0  0  1  1     5.050     17   80
            2  0  0  0    10.900     18   81
            1  1  0  0    10.900     19   82
            1  0  1  0    10.900     20   83
            0  2  0  0    10.900     21   84
            0  1  1  0    10.900     22   85
            0  0  2  0    10.900     23   86
            2  0  0  0     6.050     24   87
            1  1  0  0     6.050     25   88
            1  0  1  0     6.050     26   89
            0  2  0  0     6.050     27   90
            0  1  1  0     6.050     28   91
            0  0  2  0     6.050     29   92
            2  0  0  0     3.500     30   93
            1  1  0  0     3.500     31   94
            1  0  1  0     3.500     32   95
            0  2  0  0     3.500     33   96
            0  1  1  0     3.500     34   97
            0  0  2  0     3.500     35   98
            0  0  0  3     4.500     36   99
            0  0  0  3     2.800     37  100
            0  0  0  3     1.800     38  101
            1  0  0  2     3.250     39  102
            0  1  0  2     3.250     40  103
            0  0  1  2     3.250     41  104
            1  0  0  2     1.950     42  105
            0  1  0  2     1.950     43  106
            0  0  1  2     1.950     44  107
            1  0  0  2     1.200     45  108
            0  1  0  2     1.200     46  109
            0  0  1  2     1.200     47  110
            2  0  0  1     1.800     48  111
            1  1  0  1     1.800     49  112
            1  0  1  1     1.800     50  113
            0  2  0  1     1.800     51  114
            0  1  1  1     1.800     52  115
            0  0  2  1     1.800     53  116
            3  0  0  0     1.800     54  117
            2  1  0  0     1.800     55  118
            2  0  1  0     1.800     56  119
            1  2  0  0     1.800     57  120
            1  1  1  0     1.800     58  121
            1  0  2  0     1.800     59  122
            0  3  0  0     1.800     60  123
            0  2  1  0     1.800     61  124
            0  1  2  0     1.800     62  125
            0  0  3  0     1.800     63  126

 F                                    3
                                  ---------------------------------------------------------------------------
            0  0  0  0    10.880    127
            0  0  0  0     7.700    128
            0  0  0  1     3.240    129
            0  0  0  1     1.940    130
            0  0  0  1     0.740    131
            1  0  0  0     4.540    132
            0  1  0  0     4.540    133
            0  0  1  0     4.540    134
            1  0  0  0     2.300    135
            0  1  0  0     2.300    136
            0  0  1  0     2.300    137
            1  0  0  0     1.240    138
            0  1  0  0     1.240    139
            0  0  1  0     1.240    140
            2  0  0  0     2.000    141
            1  1  0  0     2.000    142
            1  0  1  0     2.000    143
            0  2  0  0     2.000    144
            0  1  1  0     2.000    145
            0  0  2  0     2.000    146
            3  0  0  0     3.000    147
            2  1  0  0     3.000    148
            2  0  1  0     3.000    149
            1  2  0  0     3.000    150
            1  1  1  0     3.000    151
            1  0  2  0     3.000    152
            0  3  0  0     3.000    153
            0  2  1  0     3.000    154
            0  1  2  0     3.000    155
            0  0  3  0     3.000    156

 Total number of charge fitting functions (nprimf)       425
 Total number of Cartesian basis functions (naos)        156
 Total number of Cartesian core functions  (ncos)          0

1
 ***************************************************************************************************



                                              ***********************
                                              *  T E C H N I C A L  *
                                              ***********************
  



 =============================================================
 P A R A L L E L I Z A T I O N  and  V E C T O R I Z A T I O N
 =============================================================
  
 Nr of parallel processes:                               12
 Maximum vector length in NumInt loops:                 128

 IO buffersize (Mb):                                     64.000000



 =====================
 S C F   U P D A T E S
 =====================
  
 Max. nr. of cycles:                               250
 Convergence criterion:                              0.0000010000
   secondary criterion:                              0.0010000000

 Mix parameter (when DIIS does not apply):           0.2000000000
 Mixed ADIIS+DIIS will be used
    Max number of expansion vectors:                10
    Pure ADIIS when Max([F,P]) is above              0.1000000000
    Pure DIIS when Max([F,P]) is below               0.0010000000
 Automatic ElectronSmearing (in case of problematic SCF convergence) disabled



 =================
 P R E C I S I O N  ***  (General: NumInt, NeglectFunctionTails, ...)  ***
 =================
  

 NumInt:           Target precision:                 6.0000000000
 -------           Initial precision:                6.0000000000
                   Min. precision (optimization):    6.0000000000

 Neglect Functions:          Basis functions:        0.1000000000E-07
 ------------------          Fit functions:          0.1000000000E-07



 ===========================
 L I N E A R   S C A L I N G
 ===========================
  

 Cut-off radii density fit:                        0.1000000000E-09
 Overlap cut-off criterion AO matrix elements:     0.1000000000E-07
 Cut-offs for Coulomb potential and fitted density:0.1000000000E-09
 Cut-off criterion for Coulomb multipole terms:    0.1000000000E-09
 Progressive Convergence parameter:                 0.000000000    
1
 ***************************************************************************************************



                                            ***************************
                                            *  C O M P U T A T I O N  *
                                            ***************************
  

 Number of elements of the density matrix on this node (used, total):      2016     12246



 ===========================================
 Numerical Integration : Fuzzy Cells (Becke)
 ===========================================
  
 Becke grid quality: GOOD           
  
 Lebedev angular grid order:             min:  11 max:  31
 Nr. of radial points:                   min:  65 max:  90

 Total nr. of points:      52922
 Nr. of blocks:              414
 Block length:               128
 Nr. of dummy points:         70


 Test of Precision of the Numerical Integration Grid
 ===================================================

 Integral of the Total Core Density:                   0.00000000000000



 ========================
 Density Fitting (zlmFit)
 ========================
  
 ZlmFit Fit Quality: NORMAL         
  
 Max L-expansion:                        min:   7 max:   7
 Nr. of radial interpolation points:     min:  51 max:  72



 =====
 S C F  ***  ScaSCF  ***
 =====
  
 Initial density matrix is calculated as sum of fragments

 CYCLE    1
 SCF Error: norm([F,P])=      1.714999142288, max([F,P])=      0.940423695742
 orbitals (Q,E):
 ---------------
 A :31...50          ( 2.00    -0.6215)  ( 2.00    -0.4829)  ( 2.00    -0.2241)  ( 2.00    -0.1900)
                     ( 2.00    -0.1900)  ( 2.00    -0.0684)  ( 2.00    -0.0684)  ( 2.00    -0.0583)
                     ( 2.00     0.0613)  ( 2.00     0.0613)  ( 0.00     0.1181)  ( 0.00     0.1929)
                     ( 0.00     0.2447)  ( 0.00     0.2467)  ( 0.00     0.2467)  ( 0.00     0.3116)
                     ( 0.00     0.3116)  ( 0.00     0.3139)  ( 0.00     0.3550)  ( 0.00     0.3550)

 CYCLE    2
  SDIIS (wt  0.000):  0.4469  0.5531
 A-DIIS (wt  1.000):  0.9165  0.0835
  DIIS coefficients:  0.9165  0.0835
 SCF Error: norm([F,P])=      1.531593737127, max([F,P])=      0.668563927273
 orbitals (Q,E):
 ---------------
 A :31...41          ( 2.00    -0.5890)  ( 2.00    -0.4804)  ( 2.00    -0.2028)  ( 2.00    -0.1602)
                     ( 2.00    -0.1602)  ( 2.00    -0.0838)  ( 2.00    -0.0732)  ( 2.00    -0.0732)
                     ( 2.00    -0.0030)  ( 2.00    -0.0030)  ( 0.00     0.0805)

 CYCLE    3
  SDIIS (wt  0.000):  0.0816 -0.8554  1.7738
 A-DIIS (wt  1.000):  0.8567  0.0000  0.1433
  DIIS coefficients:  0.8567  0.0000  0.1433
 SCF Error: norm([F,P])=      0.849476123221, max([F,P])=      0.398855894927
 orbitals (Q,E):
 ---------------
 A :31...41          ( 2.00    -0.5787)  ( 2.00    -0.4867)  ( 2.00    -0.1987)  ( 2.00    -0.1511)
                     ( 2.00    -0.1511)  ( 2.00    -0.0873)  ( 2.00    -0.0797)  ( 2.00    -0.0797)
                     ( 2.00    -0.0101)  ( 2.00    -0.0101)  ( 0.00     0.0742)

 CYCLE    4
  SDIIS (wt  0.000): -0.8587 -1.1413  3.0000
 A-DIIS (wt  1.000):  0.0000  0.0000  1.0000
  DIIS coefficients:  0.0000  0.0000  1.0000
 SCF Error: norm([F,P])=      0.806622989164, max([F,P])=      0.392948852309
 orbitals (Q,E):
 ---------------
 A :31...41          ( 2.00    -0.6215)  ( 2.00    -0.5017)  ( 2.00    -0.5017)  ( 2.00    -0.4862)
                     ( 2.00    -0.3091)  ( 2.00    -0.1245)  ( 2.00    -0.1245)  ( 2.00    -0.0960)
                     ( 2.00     0.0757)  ( 2.00     0.0757)  ( 0.00     0.1033)

 CYCLE    5
  SDIIS (wt  0.000): -0.5869 -1.5128  3.0000  0.0997
 A-DIIS (wt  1.000):  0.0000  0.0000  0.7879  0.2121
  DIIS coefficients:  0.0000  0.0000  0.7879  0.2121
 SCF Error: norm([F,P])=      2.259599692830, max([F,P])=      0.673064703101
 orbitals (Q,E):
 ---------------
 A :31...41          ( 2.00    -0.5078)  ( 2.00    -0.4510)  ( 2.00    -0.2770)  ( 2.00    -0.2354)
                     ( 2.00    -0.2354)  ( 2.00    -0.0915)  ( 2.00    -0.0778)  ( 2.00    -0.0778)
                     ( 2.00    -0.0345)  ( 2.00    -0.0345)  ( 0.00     0.0525)

 CYCLE    6
  SDIIS (wt  0.000): -0.1647 -2.0000  2.7226 -0.0603  0.5025
 A-DIIS (wt  1.000):  0.0000  0.0000  0.4408  0.0000  0.5592
  DIIS coefficients:  0.0000  0.0000  0.4408  0.0000  0.5592
 SCF Error: norm([F,P])=      0.776382997551, max([F,P])=      0.243454605174
 orbitals (Q,E):
 ---------------
 A :31...41          ( 2.00    -0.5517)  ( 2.00    -0.4787)  ( 2.00    -0.2134)  ( 2.00    -0.1426)
                     ( 2.00    -0.1426)  ( 2.00    -0.0902)  ( 2.00    -0.0897)  ( 2.00    -0.0897)
                     ( 2.00    -0.0580)  ( 2.00    -0.0580)  ( 0.00     0.0364)

 CYCLE    7
  SDIIS (wt  0.074): -0.1703  0.1815  0.2197 -0.0446  0.3268  0.4868
 A-DIIS (wt  0.926):  0.0000  0.0000  0.0000  0.0000  0.0921  0.9079
  DIIS coefficients: -0.0126  0.0135  0.0163 -0.0033  0.1096  0.8766
 SCF Error: norm([F,P])=      0.316866594170, max([F,P])=      0.092654995553
 orbitals (Q,E):
 ---------------
 A :31...41          ( 2.00    -0.5388)  ( 2.00    -0.4758)  ( 2.00    -0.2166)  ( 2.00    -0.1527)
                     ( 2.00    -0.1527)  ( 2.00    -0.1200)  ( 2.00    -0.1115)  ( 2.00    -0.1115)
                     ( 2.00    -0.0482)  ( 2.00    -0.0482)  ( 0.00     0.0463)

 CYCLE    8
  SDIIS (wt  0.000): -0.0260  0.0022  0.0466  0.0000  0.0617  0.6022  0.3133
 A-DIIS (wt  1.000):  0.0000  0.0000  0.0000  0.0000  0.0000  0.6833  0.3167
  DIIS coefficients:  0.0000  0.0000  0.0000  0.0000  0.0000  0.6833  0.3167
 SCF Error: norm([F,P])=      0.496176647516, max([F,P])=      0.122014762155
 orbitals (Q,E):
 ---------------
 A :31...41          ( 2.00    -0.5345)  ( 2.00    -0.4821)  ( 2.00    -0.2208)  ( 2.00    -0.1533)
                     ( 2.00    -0.1533)  ( 2.00    -0.1041)  ( 2.00    -0.0979)  ( 2.00    -0.0979)
                     ( 2.00    -0.0598)  ( 2.00    -0.0598)  ( 0.00     0.0367)

 CYCLE    9
  SDIIS (wt  0.289): -0.0088 -0.1557  0.2054 -0.0058  0.0051  0.4174  0.1834  0.3590
 A-DIIS (wt  0.711):  0.0000  0.0000  0.0000  0.0000  0.0000  0.3408  0.0000  0.6592
  DIIS coefficients: -0.0026 -0.0450  0.0593 -0.0017  0.0015  0.3629  0.0530  0.5725
 SCF Error: norm([F,P])=      0.202497250764, max([F,P])=      0.071412502703
 orbitals (Q,E):
 ---------------
 A :31...41          ( 2.00    -0.5393)  ( 2.00    -0.4899)  ( 2.00    -0.2041)  ( 2.00    -0.1291)
                     ( 2.00    -0.1291)  ( 2.00    -0.1005)  ( 2.00    -0.0979)  ( 2.00    -0.0979)
                     ( 2.00    -0.0569)  ( 2.00    -0.0569)  ( 0.00     0.0434)

 CYCLE   10
  SDIIS (wt  0.289): -0.0072  0.0226 -0.0210 -0.0021 -0.0127  0.1812 -0.0207  0.5594  0.3003
 A-DIIS (wt  0.711):  0.0000  0.0000  0.0000  0.0000  0.0000  0.1109  0.0000  0.5532  0.3359
  DIIS coefficients: -0.0021  0.0065 -0.0061 -0.0006 -0.0037  0.1312 -0.0060  0.5550  0.3256
 SCF Error: norm([F,P])=      0.220926113348, max([F,P])=      0.084057794717
 orbitals (Q,E):
 ---------------
 A :31...41          ( 2.00    -0.5405)  ( 2.00    -0.4840)  ( 2.00    -0.2129)  ( 2.00    -0.1406)
                     ( 2.00    -0.1406)  ( 2.00    -0.0983)  ( 2.00    -0.0953)  ( 2.00    -0.0953)
                     ( 2.00    -0.0604)  ( 2.00    -0.0604)  ( 0.00     0.0375)

 CYCLE   11
  SDIIS (wt  0.865): -0.0019  0.0265 -0.0355 -0.0014  0.0001 -0.0031  0.0065  0.2252  0.1520  0.6317
 A-DIIS (wt  0.135):  0.0000  0.0000  0.0000  0.0000  0.0000  0.0000  0.0000  0.0844  0.0000  0.9156
  DIIS coefficients: -0.0017  0.0229 -0.0308 -0.0012  0.0001 -0.0027  0.0056  0.2062  0.1316  0.6699
 SCF Error: norm([F,P])=      0.054787008218, max([F,P])=      0.014322170874
 orbitals (Q,E):
 ---------------
 A :31...41          ( 2.00    -0.5378)  ( 2.00    -0.4849)  ( 2.00    -0.2132)  ( 2.00    -0.1412)
                     ( 2.00    -0.1412)  ( 2.00    -0.1006)  ( 2.00    -0.0966)  ( 2.00    -0.0966)
                     ( 2.00    -0.0603)  ( 2.00    -0.0603)  ( 0.00     0.0382)

 CYCLE   12
  SDIIS (wt  0.974):  0.0104 -0.0145 -0.0002 -0.0022  0.0018 -0.0041  0.0881  0.0480  0.2808  0.5918
 A-DIIS (wt  0.026):  0.0000  0.0000  0.0000  0.0000  0.0000  0.0000  0.0000  0.0000  0.0569  0.9431
  DIIS coefficients:  0.0101 -0.0141 -0.0002 -0.0021  0.0017 -0.0040  0.0859  0.0468  0.2751  0.6008
 SCF Error: norm([F,P])=      0.011671736996, max([F,P])=      0.003534405757
 orbitals (Q,E):
 ---------------
 A :31...41          ( 2.00    -0.5384)  ( 2.00    -0.4847)  ( 2.00    -0.2133)  ( 2.00    -0.1413)
                     ( 2.00    -0.1412)  ( 2.00    -0.1002)  ( 2.00    -0.0964)  ( 2.00    -0.0964)
                     ( 2.00    -0.0604)  ( 2.00    -0.0604)  ( 0.00     0.0380)

 CYCLE   13
  SDIIS (wt  1.000): -0.0003 -0.0000 -0.0005  0.0019 -0.0020  0.0149  0.0062  0.0520  0.2694  0.6585
  DIIS coefficients: -0.0003 -0.0000 -0.0005  0.0019 -0.0020  0.0149  0.0062  0.0520  0.2694  0.6585
 SCF Error: norm([F,P])=      0.000750666513, max([F,P])=      0.000287475356
 orbitals (Q,E):
 ---------------
 A :31...41          ( 2.00    -0.5383)  ( 2.00    -0.4847)  ( 2.00    -0.2133)  ( 2.00    -0.1412)
                     ( 2.00    -0.1412)  ( 2.00    -0.1002)  ( 2.00    -0.0964)  ( 2.00    -0.0964)
                     ( 2.00    -0.0603)  ( 2.00    -0.0603)  ( 0.00     0.0380)

 CYCLE   14
  SDIIS (wt  1.000):  0.0000 -0.0001  0.0003 -0.0004  0.0016  0.0001  0.0120  0.0768  0.1923  0.7173
  DIIS coefficients:  0.0000 -0.0001  0.0003 -0.0004  0.0016  0.0001  0.0120  0.0768  0.1923  0.7173
 SCF Error: norm([F,P])=      0.000049846088, max([F,P])=      0.000017285804
 orbitals (Q,E):
 ---------------
 A :31...41          ( 2.00    -0.5383)  ( 2.00    -0.4847)  ( 2.00    -0.2133)  ( 2.00    -0.1412)
                     ( 2.00    -0.1412)  ( 2.00    -0.1002)  ( 2.00    -0.0964)  ( 2.00    -0.0964)
                     ( 2.00    -0.0604)  ( 2.00    -0.0603)  ( 0.00     0.0380)

 CYCLE   15
  SDIIS (wt  1.000): -0.0000  0.0001 -0.0001  0.0005 -0.0000  0.0039  0.0225  0.0552  0.2738  0.6441
  DIIS coefficients: -0.0000  0.0001 -0.0001  0.0005 -0.0000  0.0039  0.0225  0.0552  0.2738  0.6441
 SCF Error: norm([F,P])=      0.000019598050, max([F,P])=      0.000006770803
 orbitals (Q,E):
 ---------------
 A :31...41          ( 2.00    -0.5383)  ( 2.00    -0.4847)  ( 2.00    -0.2133)  ( 2.00    -0.1412)
                     ( 2.00    -0.1412)  ( 2.00    -0.1002)  ( 2.00    -0.0964)  ( 2.00    -0.0964)
                     ( 2.00    -0.0603)  ( 2.00    -0.0603)  ( 0.00     0.0380)

 CYCLE   16
  SDIIS (wt  1.000): -0.0000 -0.0000  0.0001 -0.0000  0.0012  0.0058  0.0140  0.0869  0.2314  0.6606
  DIIS coefficients: -0.0000 -0.0000  0.0001 -0.0000  0.0012  0.0058  0.0140  0.0869  0.2314  0.6606
 SCF Error: norm([F,P])=      0.000002042816, max([F,P])=      0.000000336279
 orbitals (Q,E):
 ---------------
 A :31...41          ( 2.00    -0.5383)  ( 2.00    -0.4847)  ( 2.00    -0.2133)  ( 2.00    -0.1412)
                     ( 2.00    -0.1412)  ( 2.00    -0.1002)  ( 2.00    -0.0964)  ( 2.00    -0.0964)
                     ( 2.00    -0.0603)  ( 2.00    -0.0603)  ( 0.00     0.0380)

 SCF CONVERGED

 CYCLE   17
1
 ***************************************************************************************************



                                                *******************
                                                *  R E S U L T S  *
                                                *******************
  
 *** Setting up for NEW gradients in Focky
 *** Using FIT density in Focky

 Orbital Energies, per Irrep and Spin:
 ======================================
                        Occup              E (au)              E (eV)       Diff (eV) with prev. cycle
                        -----      --------------------        ------       --------------------------
 A
              31        2.000     -0.53833886214713E+00       -14.649               3.51E-06
              32        2.000     -0.48468212316688E+00       -13.189               2.94E-06
              33        2.000     -0.21325110797183E+00        -5.803               1.74E-06
              34        2.000     -0.14123260780685E+00        -3.843               1.21E-06
              35        2.000     -0.14122672715501E+00        -3.843               1.21E-06
              36        2.000     -0.10020578437896E+00        -2.727               1.85E-06
              37        2.000     -0.96403203603508E-01        -2.623               1.77E-06
              38        2.000     -0.96402257564540E-01        -2.623               1.77E-06
              39        2.000     -0.60349605935742E-01        -1.642               2.37E-06
              40        2.000     -0.60347146049541E-01        -1.642               2.37E-06
              41        0.000      0.38000851903190E-01         1.034
              42        0.000      0.19491462799353E+00         5.304
              43        0.000      0.26431777794863E+00         7.192
              44        0.000      0.29169396982177E+00         7.937
              45        0.000      0.29170317404293E+00         7.938
              46        0.000      0.32688336855704E+00         8.895
              47        0.000      0.33632101036719E+00         9.152
              48        0.000      0.33632982836330E+00         9.152
              49        0.000      0.38470964764953E+00        10.468
              50        0.000      0.38471539956270E+00        10.469
  
 HOMO :       40 A                -0.60347146049541E-01
 LUMO :       41 A                 0.38000851903190E-01
  


 All Electron Calculation, thus no Orbital Energies of the Core Orbitals are calculated


 Fit test: (difference of exact and fit density, squared integrated, result summed over spins)
         Sum-of-Fragments:                             0.00155077911656
         Orthogonalized Fragments:                     0.00155643752197
         SCF:                                          0.00155735121334



 ==========================
 Electron Density at Nuclei
 ==========================
  
 The electron density is calculated at points on a small sphere around the center of a nucleus.
 The printed electron density is the average electron density on these points.
 The radius of the sphere is the printed approximate finite nuclear radius.

         Atom        Nuclear Radius (Angstrom)             Electron Density (a.u.)
         ----        -------------------------             -----------------------
     1)   Br                0.0000536685                            29315.56025
     2)   Br                0.0000536685                            29313.09813
     3)   F                 0.0000361580                              447.50373



 =======================================
 M U L L I K E N   P O P U L A T I O N S
 =======================================
  
 The survey below gives for each atom:
 a) the total charge (Z minus electrons)
 b) the net spin polarization (nr of electrons spin-A minus spin-B)
 c) for each spin the atomic electron valence density (integrated) per L-value.

 Atom              Charge    Spin density          S         P         D         F
 ----              ------    ------------       ------    ------    ------    ------
 1 Br              0.0149                       7.9943   16.8222   10.1437    0.0248
 2 Br             -0.5124                       7.9872   17.4858   10.0321    0.0073
 3 F              -0.5025                       3.9877    5.5023    0.0115    0.0010

 Populations of individual BAS functions
 ----------------------------------------
 1 Br           0.3611  1.5681  2.0733  0.7132  0.7123  0.7133  1.2647  1.2663  1.2645  1.4380
                0.5905  1.1392  1.1216  1.1414  0.8898  0.9054  0.8879  0.2679  0.4017  0.4019
                0.2676  0.4016  0.2680  0.7778  1.1653  1.1664  0.7755  1.1653  0.7782  0.2864
                0.4344  0.4318  0.2951  0.4339  0.2854  0.2894  1.2631  0.4109  0.6090  0.3688
                0.6389  0.9859  0.6386  1.0291  0.2299  0.0501  0.2523  0.0050  0.0418  0.0064
                0.0526  0.0303  0.0034 -0.0057 -0.0024 -0.0010  0.0146  0.0029 -0.0026  0.0191
                0.0132 -0.0064 -0.0069
 2 Br           0.3611  1.5681  2.0732  0.7131  0.7128  0.7132  1.2648  1.2654  1.2647  1.4356
                0.5997  1.1384  1.1314  1.1393  0.8902  0.8966  0.8894  0.2676  0.4014  0.4016
                0.2677  0.4015  0.2676  0.7773  1.1647  1.1655  0.7752  1.1648  0.7775  0.2878
                0.4339  0.4328  0.2919  0.4337  0.2873  0.2658  1.2077  0.4760  0.6057  0.5049
                0.6185  0.9816  0.8484  0.9984  0.3296  0.2382  0.3411 -0.0015  0.0091  0.0019
                0.0183  0.0083 -0.0040 -0.0051 -0.0044 -0.0010  0.0097  0.0008 -0.0027  0.0140
                0.0092 -0.0067 -0.0066
 3 F            0.5758  1.4009  1.0895  0.9031  0.0184  0.3961  0.3332  0.4038  0.9535  0.8593
                0.9650  0.5650  0.4468  0.5796 -0.0026  0.0034  0.0006  0.0117  0.0026 -0.0041
               -0.0024 -0.0025 -0.0005  0.0041  0.0001 -0.0013  0.0062  0.0040 -0.0033 -0.0033

 Gross Charges per Atom (Z minus electrons)
 ==========================================
             0.0149   -0.5124   -0.5025
 Net Total: -1.00000000


 Atom-Atom Population Matrix (off-diagonal elements not doubled)
 ===============================================================

     1 :    34.8891
     2 :     0.0268   35.4845
     3 :     0.0692    0.0011    9.4323


 Frag-Frag Population Matrix (off-diagonal elements not doubled)
 ===============================================================

     1 :    70.4272
     2 :     0.0703    9.4323



 =================================================
 H I R S H F E L D   C H A R G E   A N A L Y S I S
 =================================================
  
 For each fragment: the (numerical) integral of rho(scf) * rho(fragment)/rho(sum-of-fragments)
 (nuclear charges are included, electrons are counted negative)

 The fragments and their ordering are defined in the early G E O M E T R Y output section.
 If you use single-atom fragments, this usually implies that all atoms of the same
 chemical type are grouped together. This may not be the order in which you listed them
 in the input file!

    1  BrBr                     -0.4050
    2  F                        -0.5950

 Sum of these charges (accuracy NumInt/Tails) =          -0.99999796



 =============================
 V O R O N O I   C H A R G E S
 =============================
  
 For each atom: the (numerical) integral of the total electronic charge density in its Voronoi cell,
 i.e. the region of space that is closer to that atom than to any other atom.
 (cf. Wigner-Seitz cells in crystals)

 Within the Voronoi cell the subintegrals over the atomic sphere and the remaining part are evaluated
 separately to give the numbers of electrons (negative charge) in these regions.
 The net total charge in the cell (including the nuclear charge) is also given.

 Values are provided for
    a) the Initial (sum-of-fragments) density
    b) the Orthogonalized-Fragments density
    c) the SCF density
    d) the Voronoi Deformation Density (VDD): the difference SCF-Initial for the complete atomic cell
 ---------------------------------------------------------------------------------------------------
 Total NetCharge:              -1.000                     -1.000                     -1.000   -0.000
 (accuracy NumInt/Tails)

 Remark: the 'NetTotal' Voronoi charges often do not match the Mulliken and/or Hirshfeld charges very
 well. This is caused by the fact that chemically different atoms are not treated in accordance with
 their relative sizes. (Voronoi cells are defined by boundary planes halfway between the atoms.)
 However, the CHANGES in charge, comparing 'Initial' to 'SCF' for instance, do give a fair indication
 of the flow of charge caused by the relaxation from sum-of-fragments to self-consistency.

 Warning: the absolute accuracy of the VDD charges obtained using the Fuzzy Cells (Becke) integration
 scheme is much poorer than the one obtained with an 'equivalent' Voronoi integration grid. 



 =================================================================
 M U L T I P O L E   D E R I V E D   C H A R G E   A N A L Y S I S
 =================================================================

 This charge analysis uses the atomic multipoles (obtained from the fitted density) up to some level X,
 and reconstructs these multipoles exactly (up to level X) by distributing charges over all atoms.
 This is achieved by using Lagrange multipliers and a weight function to keep the multipoles local.

 Dummy atoms can be included (by setting INCDUM in MDC-block to 1) to obtain a fractional charge.
 This is generally useful and necessary only for small symmetrical molecules, when there are not
 enough degrees of freedom to reconstruct the multipoles.

 Since the atomic multipoles are reconstructed up to level X,
 the molecular multipoles are represented also up to level X.
 The recommended level is to reconstruct up to quadrupole : -> MDC-q charges.

 See: M. Swart, P.Th. van Duijnen, J.G. Snijders, J.Comput.Chem., (2001), p. 79-88.

 ------------------------------------------------------------- 
 Atomic electronic multipole moments from SCF equations (a.u.)
 ------------------------------------------------------------- 

   atom        charge        dip-x     dip-y     dip-z      quad-xx   quad-xy   quad-xz   quad-yy   quad-yz   quad-zz
 --------------------------------------------------------------------------------------------------------------------
    1 Br     0.272953    -0.335025  0.816903 -0.209960    -0.980822 -1.107420  0.283625  2.379051 -0.690191 -1.398229
    2 Br    -0.462268    -0.100566  0.244530 -0.062522    -0.482284 -0.548087  0.139658  1.173954 -0.338900 -0.691670
    3 F     -0.810685    -0.172556  0.420601 -0.108021    -0.006166 -0.006936  0.001761  0.014905 -0.004326 -0.008739

 --------------------------------------- 
 Multipole derived atomic charges (a.u.)
 --------------------------------------- 

 The MDC-m charges are just the Monopole terms in the multipole expansion, while for the MDC-d charges
 also the Dipoles are reconstructed. The usually preferred charges are the MDC-q charges.
 These reconstruct the Monopoles, Dipoles and Quadrupoles (both atomic AND molecular).

        Atom    Level:     MDC-m        MDC-d        MDC-q
 ---------------------------------------------------------
     1     Br           0.272953    -0.173524    -0.016537
     2     Br          -0.462268    -0.453185    -0.521498
     3     F           -0.810685    -0.373291    -0.461965

 ------------------------------------------------ 
 Average absolute deviations in atomic multipoles
 ------------------------------------------------ 

 Stated here are the average differences between the atomic multipoles
 and the reconstructed atomic multipoles (from the distributed charges).
 If these values are not zero, this means there are not enough degrees of freedom,
 to be able to reconstruct the atomic multipoles. (This usually happens only
 for small and/or highly symmetric molecules). If this is the case, one could add
 dummy atoms as extra point charges (and setting INCDUM in MDC-block to 1).

 Level:                                 MDC-d        MDC-q
 ---------------------------------------------------------
 Charge   (a.u.)                       0.0000       0.0000
 Dipole   (Debye)                      0.0000       0.0017
 Quad.    (a.u.)                       0.6825       0.2329

 --------------------------------------- 
 Represented molecular multipole moments
 --------------------------------------- 

 Given here are the Molecular multipole moments from the atomic charges, and from the Fit Density.
 Note that the atomic charges represent the latter, NOT the ones from the Exact density.

            Q (a.u.)             Dipole moment (Debye)                                          Quadrupole moment (a.u.)
                                 x         y         z              xx        xy        xz        yy        yz        zz
------------------------------------------------------------------------------------------------------------------------
MDC-m        -1.0000       24.7813  -17.6348    0.9271        -64.1276  112.9952   -8.2829  -17.0390   10.9653   81.1666
MDC-d        -1.0000       23.2356  -13.8678   -0.0400        -63.8883   82.9526   -1.8653    0.3716    4.9316   63.5167
MDC-q        -1.0000       23.2351  -13.8694   -0.0383        -62.9843   84.4802   -2.2636   -1.8139    5.8836   64.7982
 
Fit.Dens.    -1.0000       23.2356  -13.8678   -0.0400        -63.6240   84.2278   -2.1922   -0.2667    5.7276   63.8907



 =============
 Dipole Moment  ***  (Debye)  ***
 =============
  
 Vector   :        23.22885341    -13.85161304     -0.04411182
 Magnitude:        27.04530940

 This molecular dipole moment is calculated with analytic integration
 ************************************************************************************
 Since the molecule is NOT NEUTRAL, the dipole moment depends on the choice of origin
 ************************************************************************************



 =========================================
 Quadrupole Moment (Buckingham convention)  ***  (a.u.)  ***
 =========================================
  
      quad-xx        quad-xy        quad-xz        quad-yy        quad-yz        quad-zz
    -63.61453071    83.28069761    -1.95577532    -0.21154220     5.19354296    63.82607290

 This molecular quadrupole moment is calculated with analytic integration
1



                                             *************************
                                             *  SFO MO coefficients  *
                                             *************************
  


                                       === A ===
 MOs expanded in CFs+SFOs
 ========================

 The SFOs have been characterized in an earlier part of output.
 To deduce the bonding / antibonding nature of SFO combinations in an MO, consider the products
 of the coefficients AND THE OVERLAP between the SFOs (may be NEGATIVE). The SFO overlap matrix
 is printed later, in the SFO Populations section.

 (The CF coefficients are not printed)

 MOs :      1        2        3        4        5        6        7        8        9       10
 occup:   2.00     2.00     2.00     2.00     2.00     2.00     2.00     2.00     2.00     2.00
 CF+SFO
     1  -0.9644  -0.2646  -0.0000  -0.0000  -0.0000   0.0000   0.0000  -0.0000   0.0000   0.0000
     2   0.2646  -0.9644   0.0000  -0.0000   0.0000  -0.0000  -0.0000  -0.0000   0.0000   0.0000
     3  -0.0000  -0.0000   0.9573   0.2892   0.0008  -0.0000  -0.0000   0.0001  -0.0000  -0.0000
     4  -0.0000   0.0000   0.2892  -0.9573   0.0002  -0.0000  -0.0000  -0.0003   0.0000   0.0000
     5  -0.0000  -0.0000  -0.0008  -0.0000   0.9931  -0.0011  -0.0007   0.1172  -0.0001  -0.0000
     6  -0.0000   0.0000  -0.0001   0.0003   0.1172  -0.0001  -0.0001  -0.9931   0.0006   0.0000
     7  -0.0000   0.0000  -0.0000  -0.0000  -0.0012  -0.6434  -0.7654  -0.0000  -0.0105   0.0025
     8   0.0000  -0.0000   0.0000  -0.0000   0.0000   0.0070   0.0082  -0.0006  -0.9729   0.2308
     9  -0.0000   0.0000  -0.0000  -0.0000  -0.0004  -0.7654   0.6434  -0.0000  -0.0026  -0.0105
    10   0.0000  -0.0000   0.0000  -0.0000   0.0000   0.0083  -0.0069  -0.0002  -0.2308  -0.9729
    11   0.0000   0.0000  -0.0001  -0.0001  -0.0000   0.0000   0.0000  -0.0000   0.0000  -0.0000
    12  -0.0000   0.0000   0.0001  -0.0001   0.0000  -0.0000  -0.0000  -0.0000   0.0000  -0.0000
    13   0.0000  -0.0000  -0.0000   0.0000   0.0000   0.0000   0.0000  -0.0000  -0.0000  -0.0000
    14   0.0000  -0.0000  -0.0000  -0.0000   0.0000   0.0000   0.0000   0.0000   0.0000   0.0000
    15   0.0000  -0.0000   0.0000   0.0000   0.0000   0.0000  -0.0000   0.0000   0.0000   0.0000
    16  -0.0000   0.0000  -0.0000   0.0000  -0.0000  -0.0000   0.0000   0.0000   0.0000   0.0000
    17  -0.0000   0.0000  -0.0000  -0.0000  -0.0000  -0.0000  -0.0000  -0.0000  -0.0000   0.0000
    18  -0.0000   0.0000  -0.0000   0.0000  -0.0000  -0.0000  -0.0000   0.0000   0.0000  -0.0000
    19   0.0000  -0.0000  -0.0000  -0.0000   0.0000   0.0000  -0.0000  -0.0000  -0.0000   0.0000
    20  -0.0000   0.0000   0.0000  -0.0000  -0.0000  -0.0000   0.0000  -0.0000  -0.0000   0.0000
    21   0.0000  -0.0000  -0.0000   0.0000   0.0000   0.0000  -0.0000   0.0000  -0.0000  -0.0000
    22  -0.0000   0.0000   0.0000  -0.0000  -0.0000  -0.0000  -0.0000  -0.0000   0.0000  -0.0000
    23  -0.0000   0.0000   0.0000   0.0000  -0.0000  -0.0000   0.0000   0.0000  -0.0000  -0.0000
    24   0.0000  -0.0000  -0.0000  -0.0000   0.0000   0.0000   0.0000  -0.0000   0.0000  -0.0000
    25   0.0000  -0.0000   0.0000  -0.0000  -0.0000   0.0000  -0.0000  -0.0000  -0.0000  -0.0000
    26   0.0000  -0.0000   0.0000  -0.0000  -0.0000   0.0000  -0.0000  -0.0000   0.0000  -0.0000
    27  -0.0000  -0.0000  -0.0000  -0.0000   0.0000  -0.0000   0.0000  -0.0000  -0.0000  -0.0000
    28  -0.0000  -0.0000  -0.0000  -0.0000   0.0000  -0.0000   0.0000  -0.0000   0.0000  -0.0000
    29   0.0000  -0.0000  -0.0000   0.0000  -0.0000   0.0000  -0.0000  -0.0000  -0.0000  -0.0000
    30   0.0000  -0.0000  -0.0000  -0.0000  -0.0000   0.0000  -0.0000  -0.0000   0.0000  -0.0000
    31   0.0000  -0.0000  -0.0000  -0.0000  -0.0000   0.0000  -0.0000  -0.0000   0.0000  -0.0000
    32  -0.0000   0.0000   0.0000   0.0000   0.0000  -0.0000  -0.0000  -0.0000  -0.0000   0.0000
    33   0.0000  -0.0000  -0.0000  -0.0000  -0.0000   0.0000  -0.0000   0.0000   0.0000   0.0000
    34   0.0000  -0.0000  -0.0000  -0.0000  -0.0000  -0.0000  -0.0000  -0.0000  -0.0000   0.0000
    35  -0.0000   0.0000   0.0000   0.0000   0.0000   0.0000  -0.0000   0.0000   0.0000   0.0000
    36  -0.0000   0.0000   0.0000   0.0000   0.0000   0.0000   0.0000   0.0000   0.0000   0.0000
    37   0.0000  -0.0000   0.0000  -0.0000  -0.0000   0.0000  -0.0000  -0.0000   0.0000  -0.0000
    38   0.0000  -0.0000  -0.0000  -0.0000  -0.0000   0.0000  -0.0000   0.0000  -0.0000  -0.0000
    39  -0.0000   0.0000  -0.0000   0.0000  -0.0000  -0.0000  -0.0000   0.0000   0.0000  -0.0000
    40   0.0000  -0.0000   0.0000  -0.0000   0.0000   0.0000  -0.0000  -0.0000  -0.0000  -0.0000
    41  -0.0000   0.0000  -0.0000   0.0000   0.0000   0.0000   0.0000  -0.0000  -0.0000   0.0000
    42   0.0000  -0.0000   0.0000  -0.0000  -0.0000  -0.0000   0.0000   0.0000   0.0000   0.0000
    43  -0.0000   0.0000   0.0000   0.0000   0.0000   0.0000   0.0000   0.0000  -0.0000  -0.0000
    44  -0.0000   0.0000   0.0000   0.0000  -0.0000  -0.0000   0.0000   0.0000  -0.0000   0.0000
    45  -0.0000   0.0000  -0.0000   0.0000   0.0000  -0.0000   0.0000   0.0000  -0.0000   0.0000
    46   0.0000  -0.0000   0.0000  -0.0000  -0.0000   0.0000  -0.0000  -0.0000   0.0000  -0.0000
    47   0.0000  -0.0000  -0.0000  -0.0000   0.0000  -0.0000  -0.0000  -0.0000   0.0000   0.0000
    48  -0.0000   0.0000   0.0000   0.0000  -0.0000   0.0000  -0.0000   0.0000   0.0000   0.0000
    49  -0.0000   0.0000   0.0000   0.0000  -0.0000   0.0000  -0.0000   0.0000  -0.0000   0.0000
    50   0.0000  -0.0000  -0.0000  -0.0000  -0.0000   0.0000   0.0000  -0.0000   0.0000  -0.0000
    51  -0.0000  -0.0000   0.0000   0.0000   0.0000   0.0000   0.0000  -0.0000  -0.0000  -0.0000
    52   0.0000  -0.0000  -0.0000  -0.0000  -0.0000  -0.0000  -0.0000   0.0000  -0.0000   0.0000
    53  -0.0000   0.0000   0.0000   0.0000   0.0000   0.0000  -0.0000  -0.0000   0.0000   0.0000
    54  -0.0000   0.0000   0.0000  -0.0000   0.0000   0.0000   0.0000   0.0000   0.0000   0.0000
    55  -0.0000   0.0000   0.0000  -0.0000  -0.0000  -0.0000   0.0000   0.0000  -0.0000   0.0000
    56   0.0000  -0.0000   0.0000  -0.0000   0.0000   0.0000   0.0000  -0.0000  -0.0000  -0.0000
    57   0.0000  -0.0000  -0.0000  -0.0000  -0.0000  -0.0000  -0.0000  -0.0000  -0.0000  -0.0000
    58   0.0000  -0.0000  -0.0000  -0.0000  -0.0000   0.0000  -0.0000  -0.0000  -0.0000   0.0000
    59  -0.0000   0.0000  -0.0000  -0.0000   0.0000  -0.0000  -0.0000   0.0000   0.0000   0.0000
    60  -0.0000  -0.0000  -0.0000   0.0000   0.0000   0.0000  -0.0000  -0.0000  -0.0000   0.0000
    61  -0.0000   0.0000   0.0000  -0.0000   0.0000  -0.0000   0.0000   0.0000   0.0000   0.0000
    62  -0.0000   0.0000   0.0000   0.0000  -0.0000   0.0000   0.0000   0.0000  -0.0000   0.0000
    63  -0.0000   0.0000   0.0000   0.0000  -0.0000  -0.0000   0.0000   0.0000  -0.0000   0.0000
    64   0.0000  -0.0000   0.0000   0.0000  -0.0000   0.0000  -0.0000  -0.0000   0.0000   0.0000
    65   0.0000  -0.0000   0.0000  -0.0000  -0.0000   0.0000  -0.0000  -0.0000  -0.0000   0.0000
    66   0.0000   0.0000  -0.0000  -0.0000  -0.0000   0.0000   0.0000  -0.0000   0.0000   0.0000
    67   0.0000  -0.0000  -0.0000  -0.0000  -0.0000   0.0000   0.0000  -0.0000  -0.0000   0.0000
    68  -0.0000   0.0000   0.0000   0.0000   0.0000  -0.0000   0.0000   0.0000   0.0000   0.0000
    69  -0.0000  -0.0000   0.0000   0.0000  -0.0000  -0.0000  -0.0000   0.0000   0.0000  -0.0000
    70   0.0000   0.0000   0.0000  -0.0000   0.0000   0.0000  -0.0000  -0.0000  -0.0000  -0.0000
    71   0.0000   0.0000  -0.0000   0.0000  -0.0000   0.0000   0.0000  -0.0000  -0.0000  -0.0000
    72  -0.0000   0.0000   0.0000   0.0000  -0.0000  -0.0000  -0.0000  -0.0000  -0.0000   0.0000
    73   0.0000  -0.0000  -0.0000  -0.0000   0.0000   0.0000  -0.0000   0.0000   0.0000   0.0000
    74  -0.0000   0.0000   0.0000  -0.0000  -0.0000  -0.0000   0.0000  -0.0000  -0.0000  -0.0000
    75   0.0000  -0.0000  -0.0000   0.0000  -0.0000  -0.0000   0.0000   0.0000  -0.0000   0.0000
    76  -0.0000   0.0000   0.0000  -0.0000  -0.0000  -0.0000   0.0000  -0.0000   0.0000   0.0000
    77   0.0000  -0.0000  -0.0000   0.0000   0.0000   0.0000   0.0000   0.0000  -0.0000   0.0000
    78  -0.0000   0.0000   0.0000  -0.0000  -0.0000   0.0000  -0.0000  -0.0000   0.0000  -0.0000
    79  -0.0000   0.0000   0.0000  -0.0000  -0.0000   0.0000  -0.0000  -0.0000  -0.0000  -0.0000
    80   0.0000   0.0000  -0.0000  -0.0000  -0.0000   0.0000  -0.0000  -0.0000  -0.0000   0.0000
    81   0.0000   0.0000   0.0000  -0.0000  -0.0000   0.0000  -0.0000  -0.0000   0.0000   0.0000
    82   0.0000   0.0000  -0.0000  -0.0000  -0.0000   0.0000   0.0000  -0.0000   0.0000  -0.0000
    83  -0.0000   0.0000   0.0000   0.0000  -0.0000  -0.0000   0.0000   0.0000   0.0000   0.0000
    84  -0.0000   0.0000   0.0000   0.0000  -0.0000  -0.0000   0.0000   0.0000  -0.0000  -0.0000
    85   0.0000  -0.0000  -0.0000  -0.0000   0.0000   0.0000   0.0000  -0.0000   0.0000  -0.0000
    86   0.0000   0.0000  -0.0000   0.0000   0.0000   0.0000  -0.0000   0.0000  -0.0000   0.0000
    87   0.0000   0.0000  -0.0000   0.0000  -0.0000   0.0000   0.0000  -0.0000  -0.0000   0.0000
    88   0.0000   0.0000   0.0000   0.0000  -0.0000   0.0000  -0.0000  -0.0000  -0.0000  -0.0000
    89   0.0000  -0.0000  -0.0000   0.0000  -0.0000   0.0000   0.0000   0.0000  -0.0000  -0.0000
    90   0.0000   0.0000  -0.0000  -0.0000  -0.0000   0.0000   0.0000   0.0000   0.0000  -0.0000
    91   0.0000   0.0000   0.0000  -0.0000  -0.0000   0.0000  -0.0000   0.0000   0.0000   0.0000
    92   0.0000  -0.0000  -0.0000  -0.0000  -0.0000   0.0000   0.0000  -0.0000   0.0000  -0.0000
    93  -0.0000   0.0000   0.0001  -0.0001   0.0000   0.0000  -0.0000  -0.0000   0.0000  -0.0000
    94   0.0000   0.0000  -0.0001  -0.0001  -0.0000  -0.0000   0.0000  -0.0000   0.0000  -0.0000
    95   0.0000  -0.0000   0.0000  -0.0000  -0.0000  -0.0000   0.0000  -0.0000   0.0000   0.0000
    96   0.0000  -0.0000   0.0000  -0.0000  -0.0000  -0.0000  -0.0000  -0.0000   0.0000  -0.0000
    97  -0.0000   0.0000   0.0000  -0.0000  -0.0000   0.0000  -0.0000  -0.0000   0.0000   0.0000
    98   0.0000   0.0000  -0.0000  -0.0000   0.0000  -0.0000  -0.0000   0.0000   0.0000  -0.0000
    99   0.0000   0.0000  -0.0000   0.0000   0.0000  -0.0000   0.0000  -0.0000   0.0000   0.0000
   100  -0.0000   0.0000   0.0000  -0.0000  -0.0000   0.0000   0.0000   0.0000   0.0000  -0.0000
   101   0.0000  -0.0000  -0.0000  -0.0000   0.0000  -0.0000  -0.0000  -0.0000  -0.0000  -0.0000
   102  -0.0000   0.0000  -0.0000  -0.0000   0.0000   0.0000  -0.0000  -0.0000   0.0000   0.0000
   103  -0.0000   0.0000  -0.0000  -0.0000   0.0000   0.0000   0.0000  -0.0000   0.0000  -0.0000
   104   0.0000   0.0000  -0.0000   0.0000   0.0000  -0.0000  -0.0000   0.0000   0.0000   0.0000
   105   0.0000  -0.0000  -0.0000   0.0000  -0.0000  -0.0000  -0.0000   0.0000   0.0001  -0.0000
   106   0.0000  -0.0000   0.0000   0.0000  -0.0000  -0.0000   0.0000   0.0000   0.0000   0.0001
   107   0.0000  -0.0000  -0.0000   0.0000   0.0001  -0.0000  -0.0000  -0.0000   0.0000   0.0000
   108   0.0000   0.0000  -0.0000  -0.0000  -0.0000  -0.0000  -0.0000  -0.0000  -0.0001   0.0000
   109   0.0000   0.0000   0.0000  -0.0000  -0.0000  -0.0000   0.0000  -0.0000  -0.0000  -0.0001
   110   0.0000   0.0000  -0.0000  -0.0000   0.0001  -0.0000  -0.0000   0.0000  -0.0000   0.0000
   111   0.0000  -0.0000  -0.0000   0.0000  -0.0000  -0.0000   0.0000   0.0000   0.0000   0.0000
   112  -0.0000  -0.0000   0.0000   0.0000   0.0000   0.0000  -0.0000   0.0000   0.0000  -0.0000
   113  -0.0000   0.0000  -0.0000   0.0000   0.0000  -0.0000   0.0000   0.0000   0.0000   0.0000
   114  -0.0000   0.0000   0.0000   0.0000   0.0000  -0.0000   0.0000   0.0000   0.0000   0.0000
   115   0.0000  -0.0000  -0.0000  -0.0000  -0.0000   0.0000   0.0000  -0.0000  -0.0000   0.0000
   116  -0.0000   0.0000   0.0000   0.0000   0.0000   0.0000  -0.0000   0.0000  -0.0000  -0.0000
   117   0.0000  -0.0000  -0.0000  -0.0000  -0.0000   0.0000  -0.0000  -0.0000  -0.0000  -0.0000
   118   0.0000  -0.0000   0.0000  -0.0000  -0.0000   0.0000  -0.0000  -0.0000   0.0000  -0.0000
   119  -0.0000   0.0000   0.0000   0.0000   0.0000   0.0000   0.0000   0.0000  -0.0000   0.0000
   120  -0.0000   0.0000   0.0000   0.0000   0.0000  -0.0000  -0.0000   0.0000   0.0000  -0.0000
   121  -0.0000   0.0000   0.0000   0.0000   0.0000  -0.0000   0.0000   0.0000   0.0000   0.0000
   122  -0.0000   0.0000  -0.0000   0.0000  -0.0000  -0.0000   0.0000  -0.0000   0.0000  -0.0000
   123   0.0000  -0.0000   0.0000  -0.0000   0.0000   0.0000   0.0000   0.0000   0.0000  -0.0000
   124   0.0000  -0.0000   0.0000  -0.0000   0.0000  -0.0000  -0.0000   0.0000  -0.0000  -0.0000
   125   0.0000  -0.0000   0.0000  -0.0000   0.0000  -0.0000   0.0000   0.0000   0.0000  -0.0000
   126   0.0000  -0.0000   0.0000  -0.0000   0.0000  -0.0000   0.0000   0.0000  -0.0000  -0.0000
   127  -0.0000   0.0000   0.0000   0.0000   0.0000  -0.0000   0.0000   0.0000   0.0000   0.0000
   128   0.0000  -0.0000  -0.0000  -0.0000   0.0000  -0.0000  -0.0000   0.0000  -0.0000  -0.0000
   129   0.0000  -0.0000  -0.0000  -0.0000   0.0000   0.0000  -0.0000   0.0000  -0.0000   0.0000
   130   0.0000  -0.0000  -0.0000  -0.0000   0.0000   0.0000   0.0000   0.0000   0.0000   0.0000
   131   0.0000  -0.0000  -0.0000  -0.0000   0.0000  -0.0000  -0.0000   0.0000  -0.0000  -0.0000
   132   0.0000  -0.0000  -0.0000  -0.0000   0.0000  -0.0000   0.0000   0.0000  -0.0000  -0.0000
   133   0.0000  -0.0000  -0.0000  -0.0000   0.0000  -0.0000  -0.0000   0.0000  -0.0000  -0.0000
   134   0.0000  -0.0000  -0.0000  -0.0000   0.0000   0.0000  -0.0000   0.0000  -0.0000   0.0000
   135   0.0000  -0.0000   0.0000  -0.0000   0.0000  -0.0000  -0.0000   0.0000  -0.0000   0.0000
   136  -0.0000   0.0000  -0.0000   0.0000  -0.0000   0.0000  -0.0000  -0.0000  -0.0000   0.0000
   137  -0.0000   0.0000  -0.0000   0.0000  -0.0000  -0.0000   0.0000  -0.0000  -0.0000  -0.0000
   138   0.0000  -0.0000  -0.0000  -0.0000  -0.0000   0.0000  -0.0000  -0.0000  -0.0000  -0.0000

 MOs :     11       12       13       14       15       16       17       18       19       20
 occup:   2.00     2.00     2.00     2.00     2.00     2.00     2.00     2.00     2.00     2.00
 CF+SFO
     1  -0.0000   0.0000   0.0000   0.0000   0.0000   0.0000   0.0000  -0.0000   0.0000  -0.0000
     2   0.0000  -0.0000  -0.0000  -0.0000  -0.0000  -0.0000  -0.0000   0.0000  -0.0000   0.0000
     3   0.0000  -0.0001  -0.0002  -0.0000  -0.0000   0.0000  -0.0000   0.0000  -0.0000   0.0000
     4   0.0000  -0.0000   0.0000  -0.0000  -0.0000   0.0000   0.0000  -0.0000   0.0000   0.0000
     5  -0.0000   0.0000   0.0000  -0.0000  -0.0000   0.0000   0.0000   0.0000  -0.0000  -0.0001
     6  -0.0000   0.0000   0.0000  -0.0000  -0.0000   0.0000  -0.0000  -0.0000   0.0000  -0.0000
     7   0.0000   0.0000  -0.0000   0.0000   0.0000  -0.0000  -0.0000  -0.0000   0.0000   0.0000
[...]
  134    3.28571968234264E-16 -2.52212742132677E-16  7.19553006384870E-16  6.13751590016104E-16
  135    3.72153878013307E-16  5.85086314250013E-16 -9.53339817299451E-17 -7.95741237710231E-16
  136    4.69910162214163E-16  3.90543175056435E-16 -3.54445171943298E-16  7.74574572572615E-18
  137   -5.58002012245084E-16 -5.80216298319775E-16  1.76589640601813E-16  2.75510674514482E-16
  138   -8.19656842399041E-17  2.60208521396521E-16 -1.76074432811646E-16 -6.44287140999511E-17

 column         125                   126                   127                   128
 row
  125    1.00000000000000E+00
  126    2.56237207423319E-16  1.00000000000000E+00
  127   -1.17125005440893E-15 -1.05329394024020E-16  9.99999999999998E-01
  128    1.71359635668992E-16  3.69118058990788E-16 -3.60222783676520E-16  9.99999999999999E-01
  129   -1.29869463165282E-15  4.74369049527628E-16  6.98327843034335E-17  2.44290072400093E-16
  130    3.56370477832407E-16 -3.11469049540220E-16  1.00146399419770E-16  3.63759940324695E-16
  131    8.44488460280748E-16  2.85182970208959E-16 -6.95520775847135E-16  3.91696198655885E-16
  132    1.69146126819579E-16  3.42740341282546E-16  1.71032892709588E-17 -5.90478208354879E-16
  133    3.17063702156835E-16 -2.74341491114586E-16  1.72818332283282E-16  7.77060766474039E-16
  134   -3.79817620361827E-16 -4.37514831281050E-16  5.23275778990025E-17  1.63801441566633E-16
  135   -1.96267698274188E-16  4.77003427872707E-17 -8.28579487465418E-16 -3.92586536162567E-17
  136    9.62193852697101E-16  3.24082640674257E-16  6.77392576709998E-16  1.21016761844524E-16
  137   -5.96700830022764E-16 -7.05239526004812E-16  1.30843720461214E-16  4.26743642686409E-16
  138   -3.97251675998689E-16  8.27246257606440E-17 -4.14598910758457E-16  7.39154831091993E-17

 column         129                   130                   131                   132
 row
  129    1.00000000000000E+00
  130    1.26034563848235E-15  1.00000000000000E+00
  131   -9.73467225950345E-16 -7.74073764342551E-17  1.00000000000000E+00
  132   -6.59800814126270E-16 -1.48990342564953E-16  7.60670209106081E-16  1.00000000000000E+00
  133    2.72159679826246E-16  8.65574233771901E-17  5.14984120529794E-18  1.42375365971476E-16
  134    8.38472355833316E-17  4.56452502748186E-16 -4.99536621852040E-17 -4.25269593599950E-16
  135   -3.88601457903973E-16 -2.25751221102216E-17  9.17584650771716E-16 -2.41517045349460E-16
  136    8.30778384996490E-17  1.24106674508637E-15  2.65134441501278E-16  2.07607775372029E-16
  137   -2.24910805599862E-16  3.03525786319106E-16 -1.13457331603459E-15  2.24441019951491E-16
  138    3.36861614991246E-16  4.60569082871842E-16  3.93565388612238E-16 -8.66277535815918E-17

 column         133                   134                   135                   136
 row
  133    1.00000000000000E+00
  134    1.22750827546478E-15  9.99999999999999E-01
  135    6.74955742330086E-16 -3.99190110898480E-16  1.00000000000000E+00
  136    9.51142534424935E-16  3.93301220211813E-16  2.28499843016056E-16  1.00000000000000E+00
  137   -8.37370174063036E-16  6.17379286545406E-17 -1.57408187758502E-15  1.29707002245998E-16
  138   -2.66320711143908E-16  1.85940672581264E-17  3.90095941660284E-16 -4.59701721133854E-16

 column         137                   138
 row
  137    9.99999999999999E-01
  138   -1.81603863891322E-16  9.99999999999994E-01


 SFO contributions (%) per orbital
 (multiplication by the orbital occupation yields the SFO Gross Populations)

 Orb.:       31     32     33     34     35     36     37     38     39     40     41     42     43     44
 occup:     2.00   2.00   2.00   2.00   2.00   2.00   2.00   2.00   2.00   2.00   0.00   0.00   0.00   0.00
 CF+SFO     ----   ----   ----   ----   ----   ----   ----   ----   ----   ----   ----   ----   ----   ----
 ------
     29:   93.29   5.05   0.44   0.00   0.00   0.16   0.00   0.00   0.00   0.00   0.19   0.24   0.01  -0.00
     30:    4.07  92.96   1.02   0.00   0.00   0.46   0.00   0.00   0.00   0.00   0.23  -0.06  -0.07  -0.00
     31:   -0.00  -0.00  47.70   0.00   0.00  46.88   0.00   0.00   0.00   0.00   3.59   0.40   0.22   0.00
     32:    0.00   0.00   0.00  22.39   6.80   0.01  70.46   0.28  -0.01  -0.00   0.00  -0.00   0.00   0.05
     33:    0.00   0.00   0.00   6.80  22.39   0.00   0.28  70.47  -0.00  -0.01   0.00  -0.00   0.00   0.03
     34:    0.00   0.00   0.00   8.82   0.30   0.00   3.59   0.25  86.79   0.21   0.00  -0.00  -0.00   0.06
     35:    0.00   0.00   0.00   0.30   8.82   0.00   0.25   3.60   0.21  86.79   0.00  -0.00  -0.00   0.01
     36:    0.02  -0.00   3.74   0.00   0.00  20.62   0.00   0.00   0.00   0.00  74.20  -0.50  -0.27  -0.00
     37:    0.01  -0.01   0.50  -0.00  -0.00  -0.05  -0.00  -0.00  -0.00  -0.00   0.07 -16.38  93.32   0.00
     38:    0.04   0.01  -0.02   0.00   0.00   0.01   0.00   0.00   0.00   0.00   1.32  -6.05  10.68   0.00
     39:   -0.00   0.00   0.00   0.02   0.00  -0.00  -0.01  -0.00   0.05   0.00   0.00  -0.00   0.00  96.20
     40:   -0.00   0.00   0.00   0.00   0.02  -0.00  -0.00  -0.01   0.00   0.05   0.00  -0.00   0.00   2.87
     45:   -0.02   0.04   0.05   0.00   0.00   0.00  -0.00  -0.00  -0.00  -0.00   0.06  -9.56   1.04   0.00
     54:    0.00   0.00  -0.02   0.00   0.00   0.20   0.00   0.00   0.00   0.00   0.47   1.16   0.00   0.00
    114:    1.43   0.73   1.05   0.00   0.00  -0.01  -0.00  -0.00  -0.00  -0.00   0.19   1.23  -0.31  -0.00
    115:    0.01   0.01   0.37  60.14   0.65   0.20  17.92   6.54  11.72   0.68   0.14   0.01   0.00  -0.09
    116:    0.07   0.06   2.23   0.89  57.38   1.57   6.64  16.68   0.77  11.11   0.82   0.08   0.02  -0.00
    117:    1.36   1.22  43.07   0.25   3.25  27.56   0.06   1.41   0.01   0.71  15.71   1.52   0.31  -0.00
    118:   -0.09   0.02  -0.04   0.00   0.00   0.70   0.00   0.00   0.00   0.00   0.97 134.73  -5.41  -0.00
    119:   -0.24  -0.15  -0.27  -0.06  -0.01   0.66   0.04   0.00   0.03   0.00   0.49  -5.22   0.11  -0.03
    127:    0.01  -0.00  -0.09  -0.00  -0.00   0.01   0.00   0.00  -0.00  -0.00  -0.17  -1.48   0.27   0.00


 Summation over all MOs, multiplied by occupation: Total SFO Gross Populations in this Irrep
 ===========================================================================================

     2.00    2.00    2.00    2.00    2.00    2.00    2.00    2.00    2.00    2.00    2.00    2.00
     2.00    2.00    2.00    2.00    2.00    2.00    2.00    2.00    2.00    2.00    2.00    2.00
     2.00    2.00    2.00    2.00    2.00    1.99    1.91    2.00    2.00    2.00    2.00    0.50
     0.01    0.00    0.00    0.00    0.00    0.00    0.01    0.01    0.00    0.00    0.00    0.00
     0.00    0.01    0.02    0.01    0.01    0.00    0.00    0.00    0.00    0.00    0.00    0.00
     0.00    0.00    0.00    0.00    0.00    0.00    0.00    0.00    0.00    0.00   -0.00    0.00
     0.00   -0.00   -0.00   -0.00   -0.00    0.00    0.00    0.00    0.00    0.00   -0.00   -0.00
    -0.00   -0.00   -0.00   -0.00   -0.00   -0.00   -0.00   -0.00   -0.00    0.00   -0.00   -0.00
     0.00    0.00    0.00    0.00   -0.00   -0.00   -0.00   -0.00    0.00    0.00   -0.00    0.00
     0.00    0.00    0.00   -0.00    2.00    1.98    1.96    1.95    1.58    0.01    0.00    0.00
     0.00    0.00    0.00    0.00    0.00    0.00   -0.00    0.00    0.00    0.00    0.00    0.00
     0.00    0.00    0.00    0.00    0.00   -0.00



 List of all MOs, ordered by energy, with the most significant SFO gross populations
 ===================================================================================

 Each percentage contribution in the table below corresponds to the indicated SFO.
 In general, a SFO may be a linear combination of several Fragment Orbitals on the same,
 or on symmetry-related Fragments. Only the first 'member' of such a combination is
 specified here. A full definition of all SFOs is given in an earlier part of the output.
 The numbering of the SFOs in this table does NOT include the Core Orbitals, and starts
 from one for each symmetry representation, as in the SFO definition list earlier.

       E(eV)  Occ       MO           %     SFO (first member)   E(eV)  Occ   Fragment
 -------------------------------------------------------------------------------------

     -14.649  2.00    31 A         93.29%    29 A             -20.218  2.00     1 BrBr
                                    4.07%    30 A             -18.858  2.00     1 BrBr
                                    1.43%     2 A             -15.093  2.00     2 F
                                    1.36%     5 A               2.944  2.00     2 F
     -13.189  2.00    32 A         92.96%    30 A             -18.858  2.00     1 BrBr
                                    5.05%    29 A             -20.218  2.00     1 BrBr
                                    1.22%     5 A               2.944  2.00     2 F
      -5.803  2.00    33 A         47.70%    31 A             -10.077  2.00     1 BrBr
                                   43.07%     5 A               2.944  2.00     2 F
                                    3.74%    36 A              -6.158  0.00     1 BrBr
                                    2.23%     4 A               2.944  2.00     2 F
                                    1.05%     2 A             -15.093  2.00     2 F
                                    1.02%    30 A             -18.858  2.00     1 BrBr
      -3.843  2.00    34 A         60.14%     3 A               2.944  2.00     2 F
                                   22.39%    32 A              -8.256  2.00     1 BrBr
                                    8.82%    34 A              -7.190  2.00     1 BrBr
                                    6.80%    33 A              -8.256  2.00     1 BrBr
      -3.843  2.00    35 A         57.38%     4 A               2.944  2.00     2 F
                                   22.39%    33 A              -8.256  2.00     1 BrBr
                                    8.82%    35 A              -7.190  2.00     1 BrBr
                                    6.80%    32 A              -8.256  2.00     1 BrBr
                                    3.25%     5 A               2.944  2.00     2 F
      -2.727  2.00    36 A         46.88%    31 A             -10.077  2.00     1 BrBr
                                   27.56%     5 A               2.944  2.00     2 F
                                   20.62%    36 A              -6.158  0.00     1 BrBr
                                    1.57%     4 A               2.944  2.00     2 F
      -2.623  2.00    37 A         70.46%    32 A              -8.256  2.00     1 BrBr
                                   17.92%     3 A               2.944  2.00     2 F
                                    6.64%     4 A               2.944  2.00     2 F
                                    3.59%    34 A              -7.190  2.00     1 BrBr
      -2.623  2.00    38 A         70.47%    33 A              -8.256  2.00     1 BrBr
                                   16.68%     4 A               2.944  2.00     2 F
                                    6.54%     3 A               2.944  2.00     2 F
                                    3.60%    35 A              -7.190  2.00     1 BrBr
                                    1.41%     5 A               2.944  2.00     2 F
      -1.642  2.00    39 A         86.79%    34 A              -7.190  2.00     1 BrBr
                                   11.72%     3 A               2.944  2.00     2 F
      -1.642  2.00    40 A         86.79%    35 A              -7.190  2.00     1 BrBr
                                   11.11%     4 A               2.944  2.00     2 F
       1.034  0.00    41 A         74.20%    36 A              -6.158  0.00     1 BrBr
                                   15.71%     5 A               2.944  2.00     2 F
                                    3.59%    31 A             -10.077  2.00     1 BrBr
                                    1.32%    38 A               3.292  0.00     1 BrBr
       5.304  0.00    42 A        134.73%     6 A               7.773  0.00     2 F
                                  -16.38%    37 A               2.510  0.00     1 BrBr
                                   -9.56%    45 A               5.778  0.00     1 BrBr
                                   -6.05%    38 A               3.292  0.00     1 BrBr
                                   -5.22%     7 A              22.092  0.00     2 F
                                    1.52%     5 A               2.944  2.00     2 F
                                   -1.48%    15 A              55.515  0.00     2 F
                                    1.23%     2 A             -15.093  2.00     2 F
                                    1.16%    54 A              18.295  0.00     1 BrBr



 =======================================================================
 Electrostatic potential at the Nuclei due to electrons and other nuclei
 =======================================================================
  
         Atom                  Potential
         ----                  ---------
     1)   Br                176.10712864
     2)   Br                176.14924094
     3)   F                  26.83683887
 
 
 ========================
 No memory problems found
 ========================
 
 Maximum number of active allocate calls:         680
 
 *******************************************************************************

                             A D F   E X I T
 NORMAL TERMINATION



 =================
 Timing Statistics
 =================
  
 Total Used :                     CPU=        7.00      System=        0.22     Elapsed=        7.40

 Calls  Section                     ( Mean, Percentage )
 ---------------------------------------------------------------------------------------------------
     3  ><      ................      0.00    0.00             0.00    0.00             0.00    0.02
     1  INIT    ................      0.45    6.46             0.02    9.68             0.48    6.44
     1  GEOMET  ................      0.03    0.47             0.00    2.30             0.15    2.01
     1  FRAGM   ................      0.01    0.17             0.01    3.69             0.03    0.42
     1  INPUTA  ................      0.00    0.00             0.00    0.00             0.00    0.01
     1  ATDEN   ................      0.00    0.07             0.00    0.00             0.00    0.06
     1  MAINSY  ................      0.01    0.09             0.00    1.38             0.01    0.15
     1  SYMFIT  ................      0.00    0.03             0.00    0.00             0.00    0.03
     1  CORORT  ................      0.00    0.00             0.00    0.00             0.00    0.01
     1  SYMORB  ................      0.00    0.06             0.00    0.00             0.00    0.05
     1  CLSMAT  ................      0.01    0.19             0.00    0.00             0.01    0.18
     1  ORTHON  ................      0.01    0.16             0.00    1.38             0.01    0.18
     1  GENPT   ................      0.11    1.56             0.00    1.84             0.11    1.54
     1  PTBAS   ................      0.05    0.66             0.00    0.46             0.05    0.63
    17  FOCKY   ................      0.13   32.14             0.00    6.45             0.13   30.73
    17  FOCKTR  ................      0.00    0.53             0.00    0.46             0.00    0.54
    17  SDIIS   ................      0.00    0.99             0.00    1.38             0.00    0.95
     1  COREPS  ................      0.10    1.50             0.00    1.84             0.11    1.48
     1  TOTEN   ................      0.37    5.29             0.00    2.30             0.38    5.09
     1  POPAN   ................      0.00    0.04             0.00    0.46             0.01    0.12
     1  DEBYE   ................      0.01    0.11             0.00    0.46             0.01    0.11
     1  INPUTE  ................      0.00    0.01             0.00    0.00             0.00    0.02
     1  SYMORE  ................      0.00    0.01             0.00    0.00             0.00    0.02
     1  METS    ................      0.00    0.00             0.00    0.00             0.00    0.01
     1  CETS    ................      0.02    0.24             0.00    1.38             0.04    0.48
     1  POPUL   ................      3.42   48.84             0.14   62.67             3.58   48.32
     1  EXIT PROCEDURE .........      0.03    0.39             0.00    1.84             0.03    0.42


 Currently Open Files (EXIT00)
 ====================

 Unit    Access Format  Status   Type       Ident (file)
 -------------------------------------------------------
   3      SEQ    FORM   TRANSP  NORMAL      LOGFILE
                                          ( logfile )


 Buffered I/O statistics
 =======================
 Memory available:                     67108864
 Number of records fitting in memory:     16131
 Input :   1.0% of                        56784  *4k bytes
 Output:  13.8% of                         4580  *4k bytes
 Records from serial files evicted:           0
                    others evicted:           0
 Hash table lookups:     162503 with          0 conflicts (  0.00%)

 ***************************************************************************************************
 (LOGFILE)
 <May09-2019> <17:11:56>  ADF 2017  RunTime: May09-2019 17:11:56  Nodes: 1  Procs: 12
 <May09-2019> <17:11:57>  *** (NO TITLE) ***
 <May09-2019> <17:11:57>  RunType   : SINGLE POINT
 <May09-2019> <17:11:57>  Net Charge: -1 (Nuclei minus Electrons)
 <May09-2019> <17:11:57>  Symmetry  : NOSYM
 <May09-2019> <17:11:57>  >>>> FRAGM
  Coordinates
    Atom         X           Y           Z   (Angstrom)
    1.Br       -5.000760    3.281054   -0.090993
    2.Br       -4.017690    0.894220    0.517771
    3.F        -5.756931    5.123645   -0.563979
 <May09-2019> <17:11:57>  >>>> CORORT
 <May09-2019> <17:11:57>  >>>> CLSMAT
 <May09-2019> <17:11:57>  >>>> ORTHON
 <May09-2019> <17:11:57>  >>>> GENPT
 <May09-2019> <17:11:57>  Block Length= 128
 <May09-2019> <17:11:57>  >>>> PTBAS
 <May09-2019> <17:11:57>  >>>> CYCLE
 <May09-2019> <17:11:58>              |Error|         MaxErr       Wt(A-DIIS)
 <May09-2019> <17:11:58>      1      1.71499914      0.94042370
 <May09-2019> <17:11:58>      2      1.53159374      0.66856393    100.0
 <May09-2019> <17:11:58>      3      0.84947612      0.39885589    100.0
 <May09-2019> <17:11:58>      4      0.80662299      0.39294885    100.0
 <May09-2019> <17:11:58>      5      2.25959969      0.67306470    100.0
 <May09-2019> <17:11:58>      6      0.77638300      0.24345461    100.0
 <May09-2019> <17:11:58>      7      0.31686659      0.09265500     92.6
 <May09-2019> <17:11:58>      8      0.49617665      0.12201476    100.0
 <May09-2019> <17:11:59>      9      0.20249725      0.07141250     71.1
 <May09-2019> <17:11:59>     10      0.22092611      0.08405779     71.1
 <May09-2019> <17:11:59>     11      0.05478701      0.01432217     13.5
 <May09-2019> <17:11:59>     12      0.01167174      0.00353441      2.6
 <May09-2019> <17:11:59>     13      0.00075067      0.00028748      0.0
 <May09-2019> <17:11:59>     14      0.00004985      0.00001729      0.0
 <May09-2019> <17:11:59>     15      0.00001960      0.00000677      0.0
 <May09-2019> <17:11:59>     16      0.00000204      0.00000034      0.0
 <May09-2019> <17:12:00>  SCF converged
 <May09-2019> <17:12:00>     17      0.00000101      0.00000030      0.0
 <May09-2019> <17:12:00>  >>>> TOTEN
 <May09-2019> <17:12:00>  >>>> POPAN
 <May09-2019> <17:12:00>  >>>> DEBYE
 <May09-2019> <17:12:00>  >>>> AMETS
 <May09-2019> <17:12:04>   Bond Energy          -0.11990721 a.u.
 <May09-2019> <17:12:04>   Bond Energy          -3.26284120 eV
 <May09-2019> <17:12:04>   Bond Energy         -75.24       kcal/mol
 <May09-2019> <17:12:04>  >>>> POPUL
 <May09-2019> <17:12:04>  NORMAL TERMINATION
 <May09-2019> <17:12:04>  END
