
Create H   file=TZ2P-H
XC
  GGA blyp
  DISPERSION Grimme3 BJDAMP
End
End Input

 *******************************************************************************
 *                                                                             *
 *  -------------------------------------                                      *
 *   Amsterdam Density Functional  (ADF)         development version           *
 *  -------------------------------------                                      *
 *                                               r61132 2017-09-08             *
 *                                                                             *
 *                                                                             *
 *                              =================                              *
 *                              |               |                              *
 *                              |     A D F     |                              *
 *                              |               |                              *
 *                              =================                              *
 *                                                                             *
 *                                                                             *
 *   Online information and documentation:  https://www.scm.com/support/       *
 *   E-mail:  support@scm.com   info@scm.com                                   *
 *                                                                             *
 *   Scientific publications using ADF results must be properly referenced     *
 *   See the User Manuals (or the web site) for recommended citations          *
 *   The terms and conditions of the End User License Agreement apply to       *
 *   the use of ADF, https://www.scm.com/license-terms/                        *
 *                                                                             *
 **********************  x86_64_linux_intel / intelmpi  ************************
 
 Licensed to: VU/FEW (+ SARA) / ALGEMEEN / Amsterdam / THE NETHERLANDS
 SCM User ID: u7668
  
 ADF development version  RunTime: Apr18-2019 14:06:19  Nodes: 1  Procs: 1

 Temporary files are created in /local/datastore0/tcst25/186718/kid_0.gCly0V

 Hydrogen (TZ2P)



 ===========================
 A T T A C H E D   F I L E S
 ===========================
  
 CREATE - Data File:    TZ2P-H
                        Hydrogen (TZ2P)



 ===============================
 M O D E L   P A R A M E T E R S
 ===============================
  
 DENSITY FUNCTIONAL POTENTIAL (scf)
    LDA:                               Exchange only                           == Not Default ==
    Gradient Corrections:              Becke88 LYP                             == Not Default ==

 SPIN  (restricted / unrestr.)
    Molecule:                          Restricted                               

 OTHER ASPECTS
    Relativistic Corrections:          ---                                      

    Nuclear Charge Density Model:      Point Charge Nuclei                      
    Core Treatment:                    Frozen Orbital(s)                        

    Hyperfine or Zeeman Interaction:   ---                                      

 Settings for Grimme 3 dispersion correction

      damping                        BJ
      s6                          1.000
      a1                          0.430
      s8                          2.700
      a2                          4.236

 Other (technical) parameters

      alpha                      14.000
      version                         4
 



 =====================================
 S Y M M E T R Y ,   E L E C T R O N S
 =====================================
  
 Symmetry: ATOM

 Irreducible Representations, including subspecies
 -------------------------------------------------
 S
 P:x  P:y  P:z
 D:z2  D:x2-y2  D:xy  D:xz  D:yz
 F:z3  F:z  F:xyz  F:z2x  F:z2y  F:x  F:y


 Configuration of Valence Electrons
 ==================================

          Occupation Numbers
          -------------------------------------------------
 S        1
 P        0
 D        0
 F        0
          -------------------------------------------------

 Total:   1

 Net Charge: 0 (Nuclei minus Electrons)

 Preset values for MO occupations will be applied through SCF cycle no. 1000000
 Thereafter, the program will assign electrons to MOs that are spatially
 similar to the occupied MOs in a "reference" cycle ("KeepOrbitals").
 The reference cycle is always the PREVIOUS cycle: it will evolve with
 the SCF procedure.



 ================================
 (Slater-type)  F U N C T I O N S  ***  (Basis and Fit)  ***
 ================================
  

 Atom Type    1  (H)
 ==============

 Valence Basis Sets:   5
 -----------------------
   1 S    0.690000
   1 S    0.920000
   1 S    1.580000
   2 P    1.250000
   3 D    2.500000


 BAS: List of all Elementary Cartesian Basis Functions
 =====================================================

 The numbering in the list below (to the right of the function characteristics) is referred
 to in print-outs of MO eigenvectors and Mulliken populations in the BAS representation
 (as contrasted to the SFO representation).

 Notes:
 1. The functions are characterized by a polynomial prefactor (powers of x,y,z and r) and
    an exponential decay factor alpha.
 2. Since the basis sets are specific for an atom TYPE, the individual functions occur on
    all atoms of that type.
 3. The word 'Core' in the left margin signals that it is a Core Function (CF) : not a
    degree of freedom in the valence set, but only used to ensure orthogonalization of
    the other valence basis functions on the frozen Core Orbitals.


 (power of) X  Y  Z  R     Alpha  on Atom
            ==========     =====     ==========

 H                                    1
                                  ---------------------------------------------------------------------------
            0  0  0  0     0.690      1
            0  0  0  0     0.920      2
            0  0  0  0     1.580      3
            1  0  0  0     1.250      4
            0  1  0  0     1.250      5
            0  0  1  0     1.250      6
            2  0  0  0     2.500      7
            1  1  0  0     2.500      8
            1  0  1  0     2.500      9
            0  2  0  0     2.500     10
            0  1  1  0     2.500     11
            0  0  2  0     2.500     12

 Total number of charge fitting functions (nprimf)        50
 Total number of Cartesian basis functions (naos)         12
 Total number of Cartesian core functions  (ncos)          0



 BAS: List of all Elementary Cartesian Basis Functions
 =====================================================

 The numbering in the list below (to the right of the function characteristics) is referred
 to in print-outs of MO eigenvectors and Mulliken populations in the BAS representation
 (as contrasted to the SFO representation).

 Notes:
 1. The functions are characterized by a polynomial prefactor (powers of x,y,z and r) and
    an exponential decay factor alpha.
 2. Since the basis sets are specific for an atom TYPE, the individual functions occur on
    all atoms of that type.
 3. The word 'Core' in the left margin signals that it is a Core Function (CF) : not a
    degree of freedom in the valence set, but only used to ensure orthogonalization of
    the other valence basis functions on the frozen Core Orbitals.


 (power of) X  Y  Z  R     Alpha  on Atom
            ==========     =====     ==========

 H                                    1
                                  ---------------------------------------------------------------------------
            0  0  0  0     0.690      1
            0  0  0  0     0.920      2
            0  0  0  0     1.580      3
            1  0  0  0     1.250      4
            0  1  0  0     1.250      5
            0  0  1  0     1.250      6
            2  0  0  0     2.500      7
            1  1  0  0     2.500      8
            1  0  1  0     2.500      9
            0  2  0  0     2.500     10
            0  1  1  0     2.500     11
            0  0  2  0     2.500     12
1
 ***************************************************************************************************



                                              ***********************
                                              *  T E C H N I C A L  *
                                              ***********************
  



 =============================================================
 P A R A L L E L I Z A T I O N  and  V E C T O R I Z A T I O N
 =============================================================
  
 Nr of parallel processes:                                1
 Maximum vector length in NumInt loops:                 128

 IO buffersize (Mb):                                     64.000000



 =====================
 S C F   U P D A T E S
 =====================
  
 Max. nr. of cycles:                               300
 Convergence criterion:                              0.0000000100
   secondary criterion:                              0.0000000100

 Mix parameter (when DIIS does not apply):           0.2000000000
 Special mix parameter for the first cycle:          1.0000000000
 Mixed ADIIS+DIIS will be used
    Max number of expansion vectors:                10
    Pure ADIIS when Max([F,P]) is above              0.1000000000
    Pure DIIS when Max([F,P]) is below               0.0010000000
 Automatic ElectronSmearing (in case of problematic SCF convergence) disabled



 =================
 P R E C I S I O N  ***  (General: NumInt, NeglectFunctionTails, ...)  ***
 =================
  

 NumInt:           Target precision:                12.0000000000
 -------           Initial precision:               10.0000000000
                   Min. precision (optimization):   10.0000000000

 Neglect Functions:          Basis functions:        0.1000000000E-13
 ------------------          Fit functions:          0.1000000000E-13



 ===========================
 L I N E A R   S C A L I N G
 ===========================
  

 Cut-off radii density fit:                        0.1000000000E-97
 Overlap cut-off criterion AO matrix elements:     0.1000000000E-97
 Cut-offs for Coulomb potential and fitted density:0.1000000000E-97
 Cut-off criterion for Coulomb multipole terms:    0.1000000000E-97
 Progressive Convergence parameter:                 0.000000000    
1
 ***************************************************************************************************



                                            ***************************
                                            *  C O M P U T A T I O N  *
                                            ***************************
  

 Number of elements of the density matrix on this node (used, total):        78        78



 ===========================================
 Numerical Integration : Fuzzy Cells (Becke)
 ===========================================
  
 Becke grid quality: VERYGOOD       
  
 Lebedev angular grid order:             min:  13 max:  41
 Nr. of radial points:                   min:  64 max:  64

 Total nr. of points:         64
 Nr. of blocks:                1
 Block length:                64
 Nr. of dummy points:          0


 Test of Precision of the Numerical Integration Grid
 ===================================================

 Integral of the Total Core Density:                   0.00000000000000



 ========================
 Density Fitting (zlmFit)
 ========================
  
 ZlmFit Fit Quality: VERYGOOD       
  
 Max L-expansion:                        min:   0 max:   0
 Nr. of radial interpolation points:     min: 130 max: 130



 =====
 S C F  ***  ScaSCF  ***
 =====
  

 CYCLE    1
 SCF Error: norm([F,P])=      0.000000000000, max([F,P])=      0.000000000000
 orbitals (Q,E):
 ---------------
 S :1...3            ( 1.00    -0.5000)  ( 0.00    -0.0900)  ( 0.00     1.2939)
 P :1...1            ( 0.00     0.1562)
 D :1...1            ( 0.00     2.2917)

 CYCLE    2
 SCF Error: norm([F,P])=      0.031002856008, max([F,P])=      0.026444239384
 orbitals (Q,E):
 ---------------
 S :1...2            ( 1.00    -0.2236)  ( 0.00     0.0977)
 P :1...1            ( 0.00     0.4190)
 D :1...1            ( 0.00     2.5863)

 CYCLE    3
  SDIIS (wt  0.000):  0.2055  0.7945
 A-DIIS (wt  1.000):  0.0000  1.0000
  DIIS coefficients:  0.0000  1.0000
 SCF Error: norm([F,P])=      0.009580013340, max([F,P])=      0.009328518993
 orbitals (Q,E):
 ---------------
 S :1...2            ( 1.00    -0.2440)  ( 0.00     0.0860)
 P :1...1            ( 0.00     0.4030)
 D :1...1            ( 0.00     2.5655)

 CYCLE    4
  SDIIS (wt  0.987):  0.1949  0.8051
 A-DIIS (wt  0.013):  0.0000  1.0000
  DIIS coefficients:  0.1923  0.8077
 SCF Error: norm([F,P])=      0.002320932075, max([F,P])=      0.002286403159
 orbitals (Q,E):
 ---------------
 S :1...2            ( 1.00    -0.2400)  ( 0.00     0.0880)
 P :1...1            ( 0.00     0.4062)
 D :1...1            ( 0.00     2.5697)

 CYCLE    5
  SDIIS (wt  1.000):  0.0132  0.9868
  DIIS coefficients:  0.0132  0.9868
 SCF Error: norm([F,P])=      0.000031553206, max([F,P])=      0.000029840661
 orbitals (Q,E):
 ---------------
 S :1...2            ( 1.00    -0.2400)  ( 0.00     0.0880)
 P :1...1            ( 0.00     0.4062)
 D :1...1            ( 0.00     2.5697)

 CYCLE    6
  SDIIS (wt  1.000): -0.0314  1.0314
  DIIS coefficients: -0.0314  1.0314
 SCF Error: norm([F,P])=      0.000000959925, max([F,P])=      0.000000913629
 orbitals (Q,E):
 ---------------
 S :1...2            ( 1.00    -0.2400)  ( 0.00     0.0880)
 P :1...1            ( 0.00     0.4062)
 D :1...1            ( 0.00     2.5697)

 CYCLE    7
  SDIIS (wt  1.000):  0.0045  0.9955
  DIIS coefficients:  0.0045  0.9955
 SCF Error: norm([F,P])=      0.000000004387, max([F,P])=      0.000000004212
 orbitals (Q,E):
 ---------------
 S :1...2            ( 1.00    -0.2400)  ( 0.00     0.0880)
 P :1...1            ( 0.00     0.4062)
 D :1...1            ( 0.00     2.5697)

 SCF CONVERGED

 CYCLE    8
1
 ***************************************************************************************************



                                                *******************
                                                *  R E S U L T S  *
                                                *******************
  
 *** Setting up for NEW gradients in Focky
 *** Using FIT density in Focky

 Orbital Energies, per Irrep and Spin:
 ======================================
                        Occup              E (au)              E (eV)       Diff (eV) with prev. cycle
                        -----      --------------------        ------       --------------------------
 S
               1        1.000     -0.24003723730291E+00        -6.532              -1.36E-09
               2        0.000      0.87974178151410E-01         2.394
               3        0.000      0.15021841144445E+01        40.877
 P
               1        0.000      0.40615190499536E+00        11.052
 D
               1        0.000      0.25696970808913E+01        69.925


 Partially Occupied:
               1 S                -0.24003723730291E+00
  
 LUMO :        2 S                 0.87974178151410E-01
  


 Orbital Energies, all Irreps
 ========================================

 Irrep        no.  (spin)   Occup              E (au)                E (eV)
 ---------------------------------------------------------------------------
 S             1             1.00       -0.24003723730291E+00        -6.5317
 S             2             0.00        0.87974178151410E-01         2.3939
 P             1             0.00        0.40615190499536E+00        11.0520
 S             3             0.00        0.15021841144445E+01        40.8765
 D             1             0.00        0.25696970808913E+01        69.9250


 All Electron Calculation, thus no Orbital Energies of the Core Orbitals are calculated



 =======================================
 M U L L I K E N   P O P U L A T I O N S
 =======================================
  
 The survey below gives for each atom:
 a) the total charge (Z minus electrons)
 b) the net spin polarization (nr of electrons spin-A minus spin-B)
 c) for each spin the atomic electron valence density (integrated) per L-value.

 Atom              Charge    Spin density          S         P         D         F
 ----              ------    ------------       ------    ------    ------    ------
 1 H              -0.0000                       1.0000    0.0000    0.0000    0.0000

 Populations of individual BAS functions
 ----------------------------------------
 1 H            0.2458  0.6250  0.1292  0.0000  0.0000  0.0000  0.0000  0.0000  0.0000  0.0000
                0.0000  0.0000

 Gross Charges per Atom (Z minus electrons)
 ==========================================
            -0.0000
 Net Total: -0.00000000



 =======================================================================
 Electrostatic potential at the Nuclei due to electrons and other nuclei
 =======================================================================
  
         Atom                  Potential
         ----                  ---------
     1)   H                   0.94873442
 
 
 ========================
 No memory problems found
 ========================
 
 Maximum number of active allocate calls:         363
 
 *******************************************************************************

                             A D F   E X I T
 NORMAL TERMINATION



 =================
 Timing Statistics
 =================
  
 Total Used :                     CPU=        0.30      System=        0.02     Elapsed=        0.33

 Calls  Section                     ( Mean, Percentage )
 ---------------------------------------------------------------------------------------------------
     3  ><      ................      0.00    0.33             0.00    0.00             0.00    0.25
     1  INIT    ................      0.01    3.67             0.01   58.33             0.03    7.91
     1  GEOMET  ................      0.01    2.00             0.00    8.33             0.01    2.58
     1  INPUTA  ................      0.00    0.33             0.00    0.00             0.00    0.45
     1  MAINSY  ................      0.00    1.67             0.00    4.17             0.01    1.73
     1  SYMFIT  ................      0.00    0.33             0.00    0.00             0.00    0.24
     1  CORORT  ................      0.00    0.00             0.00    0.00             0.00    0.08
     1  SYMORB  ................      0.00    0.00             0.00    0.00             0.00    0.16
     1  CLSMAT  ................      0.00    1.00             0.00    4.17             0.00    1.21
     1  ORTHON  ................      0.00    0.33             0.00    4.16             0.00    0.39
     1  GENPT   ................      0.01    3.00             0.00    0.00             0.01    2.98
     1  PTBAS   ................      0.00    1.33             0.00    0.00             0.00    1.06
     8  FOCKY   ................      0.03   69.00             0.00   12.50             0.03   64.18
     8  FOCKTR  ................      0.00    1.67             0.00    0.00             0.00    1.65
     8  SDIIS   ................      0.00    3.67             0.00    0.00             0.00    3.65
     1  COREPS  ................      0.01    4.67             0.00    4.17             0.02    4.84
     1  POPAN   ................      0.00    1.33             0.00    0.00             0.00    1.16
     1  DEBYE   ................      0.00    0.33             0.00    0.00             0.00    0.15
     1  EXIT PROCEDURE .........      0.02    5.33             0.00    4.17             0.02    5.33


 Currently Open Files (EXIT00)
 ====================

 Unit    Access Format  Status   Type       Ident (file)
 -------------------------------------------------------
   3      SEQ    FORM   TRANSP  NORMAL      LOGFILE
                                          ( logfile )


 Buffered I/O statistics
 =======================
 Memory available:                     67108864
 Number of records fitting in memory:     16131
 Input :   0.2% of                        17484  *4k bytes
 Output:  15.2% of                         1046  *4k bytes
 Records from serial files evicted:           0
                    others evicted:           0
 Hash table lookups:      44693 with          0 conflicts (  0.00%)

 ***************************************************************************************************
 (LOGFILE)
 <Apr18-2019> <14:06:19>  ADF development version  RunTime: Apr18-2019 14:06:19  Nodes: 1  Procs: 1
 <Apr18-2019> <14:06:19>  Hydrogen (TZ2P)
 <Apr18-2019> <14:06:19>  RunType   : CREATE
 <Apr18-2019> <14:06:19>  Net Charge: 0 (Nuclei minus Electrons)
 <Apr18-2019> <14:06:19>  Symmetry  : ATOM
  Coordinates
    Atom         X           Y           Z   (Angstrom)
    1.H         0.000000    0.000000    0.000000
 <Apr18-2019> <14:06:19>  >>>> CORORT
 <Apr18-2019> <14:06:19>  >>>> CLSMAT
 <Apr18-2019> <14:06:19>  >>>> ORTHON
 <Apr18-2019> <14:06:19>  >>>> GENPT
 <Apr18-2019> <14:06:19>  Block Length=  64
 <Apr18-2019> <14:06:19>  >>>> PTBAS
 <Apr18-2019> <14:06:19>  >>>> CYCLE
 <Apr18-2019> <14:06:19>              |Error|         MaxErr       Wt(A-DIIS)
 <Apr18-2019> <14:06:19>      1      0.00000000      0.00000000
 <Apr18-2019> <14:06:19>      2      0.03100286      0.02644424
 <Apr18-2019> <14:06:19>      3      0.00958001      0.00932852    100.0
 <Apr18-2019> <14:06:19>      4      0.00232093      0.00228640      1.3
 <Apr18-2019> <14:06:19>      5      0.00003155      0.00002984      0.0
 <Apr18-2019> <14:06:19>      6      0.00000096      0.00000091      0.0
 <Apr18-2019> <14:06:19>      7      0.00000000      0.00000000      0.0
 <Apr18-2019> <14:06:19>  SCF converged
 <Apr18-2019> <14:06:19>      8      0.00000000      0.00000000      0.0
 <Apr18-2019> <14:06:19>  >>>> POPAN
 <Apr18-2019> <14:06:19>  >>>> DEBYE
 <Apr18-2019> <14:06:19>  NORMAL TERMINATION
 <Apr18-2019> <14:06:19>  END

Create F   file=TZ2P-F
XC
  GGA blyp
  DISPERSION Grimme3 BJDAMP
End
End Input

 *******************************************************************************
 *                                                                             *
 *  -------------------------------------                                      *
 *   Amsterdam Density Functional  (ADF)         development version           *
 *  -------------------------------------                                      *
 *                                               r61132 2017-09-08             *
 *                                                                             *
 *                                                                             *
 *                              =================                              *
 *                              |               |                              *
 *                              |     A D F     |                              *
 *                              |               |                              *
 *                              =================                              *
 *                                                                             *
 *                                                                             *
 *   Online information and documentation:  https://www.scm.com/support/       *
 *   E-mail:  support@scm.com   info@scm.com                                   *
 *                                                                             *
 *   Scientific publications using ADF results must be properly referenced     *
 *   See the User Manuals (or the web site) for recommended citations          *
 *   The terms and conditions of the End User License Agreement apply to       *
 *   the use of ADF, https://www.scm.com/license-terms/                        *
 *                                                                             *
 **********************  x86_64_linux_intel / intelmpi  ************************
 
 Licensed to: VU/FEW (+ SARA) / ALGEMEEN / Amsterdam / THE NETHERLANDS
 SCM User ID: u7668
  
 ADF development version  RunTime: Apr18-2019 14:06:19  Nodes: 1  Procs: 1

 Temporary files are created in /local/datastore0/tcst25/186718/kid_0.e0LI9l

 Fluorine (TZ2P)



 ===========================
 A T T A C H E D   F I L E S
 ===========================
  
 CREATE - Data File:    TZ2P-F
                        Fluorine (TZ2P)



 ===============================
 M O D E L   P A R A M E T E R S
 ===============================
  
 DENSITY FUNCTIONAL POTENTIAL (scf)
    LDA:                               Exchange only                           == Not Default ==
    Gradient Corrections:              Becke88 LYP                             == Not Default ==

 SPIN  (restricted / unrestr.)
    Molecule:                          Restricted                               

 OTHER ASPECTS
    Relativistic Corrections:          ---                                      

    Nuclear Charge Density Model:      Point Charge Nuclei                      
    Core Treatment:                    Frozen Orbital(s)                        

    Hyperfine or Zeeman Interaction:   ---                                      

 Settings for Grimme 3 dispersion correction

      damping                        BJ
      s6                          1.000
      a1                          0.430
      s8                          2.700
      a2                          4.236

 Other (technical) parameters

      alpha                      14.000
      version                         4
 



 =====================================
 S Y M M E T R Y ,   E L E C T R O N S
 =====================================
  
 Symmetry: ATOM

 Irreducible Representations, including subspecies
 -------------------------------------------------
 S
 P:x  P:y  P:z
 D:z2  D:x2-y2  D:xy  D:xz  D:yz
 F:z3  F:z  F:xyz  F:z2x  F:z2y  F:x  F:y


 Configuration of Valence Electrons
 ==================================

          Occupation Numbers
          -------------------------------------------------
 S        2*2
 P        5
 D        0
 F        0
          -------------------------------------------------

 Total:   9

 Net Charge: 0 (Nuclei minus Electrons)

 Preset values for MO occupations will be applied through SCF cycle no. 1000000
 Thereafter, the program will assign electrons to MOs that are spatially
 similar to the occupied MOs in a "reference" cycle ("KeepOrbitals").
 The reference cycle is always the PREVIOUS cycle: it will evolve with
 the SCF procedure.



 ================================
 (Slater-type)  F U N C T I O N S  ***  (Basis and Fit)  ***
 ================================
  

 Atom Type    1  (F)
 ==============

 Valence Basis Sets:  10
 -----------------------
   1 S   10.880000
   1 S    7.700000
   2 S    3.240000
   2 S    1.940000
   2 S    0.740000
   2 P    4.540000
   2 P    2.300000
   2 P    1.240000
   3 D    2.000000
   4 F    3.000000


 BAS: List of all Elementary Cartesian Basis Functions
 =====================================================

 The numbering in the list below (to the right of the function characteristics) is referred
 to in print-outs of MO eigenvectors and Mulliken populations in the BAS representation
 (as contrasted to the SFO representation).

 Notes:
 1. The functions are characterized by a polynomial prefactor (powers of x,y,z and r) and
    an exponential decay factor alpha.
 2. Since the basis sets are specific for an atom TYPE, the individual functions occur on
    all atoms of that type.
 3. The word 'Core' in the left margin signals that it is a Core Function (CF) : not a
    degree of freedom in the valence set, but only used to ensure orthogonalization of
    the other valence basis functions on the frozen Core Orbitals.


 (power of) X  Y  Z  R     Alpha  on Atom
            ==========     =====     ==========

 F                                    1
                                  ---------------------------------------------------------------------------
            0  0  0  0    10.880      1
            0  0  0  0     7.700      2
            0  0  0  1     3.240      3
            0  0  0  1     1.940      4
            0  0  0  1     0.740      5
            1  0  0  0     4.540      6
            0  1  0  0     4.540      7
            0  0  1  0     4.540      8
            1  0  0  0     2.300      9
            0  1  0  0     2.300     10
            0  0  1  0     2.300     11
            1  0  0  0     1.240     12
            0  1  0  0     1.240     13
            0  0  1  0     1.240     14
            2  0  0  0     2.000     15
            1  1  0  0     2.000     16
            1  0  1  0     2.000     17
            0  2  0  0     2.000     18
            0  1  1  0     2.000     19
            0  0  2  0     2.000     20
            3  0  0  0     3.000     21
            2  1  0  0     3.000     22
            2  0  1  0     3.000     23
            1  2  0  0     3.000     24
            1  1  1  0     3.000     25
            1  0  2  0     3.000     26
            0  3  0  0     3.000     27
            0  2  1  0     3.000     28
            0  1  2  0     3.000     29
            0  0  3  0     3.000     30

 Total number of charge fitting functions (nprimf)        85
 Total number of Cartesian basis functions (naos)         30
 Total number of Cartesian core functions  (ncos)          0



 BAS: List of all Elementary Cartesian Basis Functions
 =====================================================

 The numbering in the list below (to the right of the function characteristics) is referred
 to in print-outs of MO eigenvectors and Mulliken populations in the BAS representation
 (as contrasted to the SFO representation).

 Notes:
 1. The functions are characterized by a polynomial prefactor (powers of x,y,z and r) and
    an exponential decay factor alpha.
 2. Since the basis sets are specific for an atom TYPE, the individual functions occur on
    all atoms of that type.
 3. The word 'Core' in the left margin signals that it is a Core Function (CF) : not a
    degree of freedom in the valence set, but only used to ensure orthogonalization of
    the other valence basis functions on the frozen Core Orbitals.


 (power of) X  Y  Z  R     Alpha  on Atom
            ==========     =====     ==========

 F                                    1
                                  ---------------------------------------------------------------------------
            0  0  0  0    10.880      1
            0  0  0  0     7.700      2
            0  0  0  1     3.240      3
            0  0  0  1     1.940      4
            0  0  0  1     0.740      5
            1  0  0  0     4.540      6
            0  1  0  0     4.540      7
            0  0  1  0     4.540      8
            1  0  0  0     2.300      9
            0  1  0  0     2.300     10
            0  0  1  0     2.300     11
            1  0  0  0     1.240     12
            0  1  0  0     1.240     13
            0  0  1  0     1.240     14
            2  0  0  0     2.000     15
            1  1  0  0     2.000     16
            1  0  1  0     2.000     17
            0  2  0  0     2.000     18
            0  1  1  0     2.000     19
            0  0  2  0     2.000     20
            3  0  0  0     3.000     21
            2  1  0  0     3.000     22
            2  0  1  0     3.000     23
            1  2  0  0     3.000     24
            1  1  1  0     3.000     25
            1  0  2  0     3.000     26
            0  3  0  0     3.000     27
            0  2  1  0     3.000     28
            0  1  2  0     3.000     29
            0  0  3  0     3.000     30
1
 ***************************************************************************************************



                                              ***********************
                                              *  T E C H N I C A L  *
                                              ***********************
  



 =============================================================
 P A R A L L E L I Z A T I O N  and  V E C T O R I Z A T I O N
 =============================================================
  
 Nr of parallel processes:                                1
 Maximum vector length in NumInt loops:                 128

 IO buffersize (Mb):                                     64.000000



 =====================
 S C F   U P D A T E S
 =====================
  
 Max. nr. of cycles:                               300
 Convergence criterion:                              0.0000000100
   secondary criterion:                              0.0000000100

 Mix parameter (when DIIS does not apply):           0.2000000000
 Special mix parameter for the first cycle:          1.0000000000
 Mixed ADIIS+DIIS will be used
    Max number of expansion vectors:                10
    Pure ADIIS when Max([F,P]) is above              0.1000000000
    Pure DIIS when Max([F,P]) is below               0.0010000000
 Automatic ElectronSmearing (in case of problematic SCF convergence) disabled



 =================
 P R E C I S I O N  ***  (General: NumInt, NeglectFunctionTails, ...)  ***
 =================
  

 NumInt:           Target precision:                12.0000000000
 -------           Initial precision:               10.0000000000
                   Min. precision (optimization):   10.0000000000

 Neglect Functions:          Basis functions:        0.1000000000E-13
 ------------------          Fit functions:          0.1000000000E-13



 ===========================
 L I N E A R   S C A L I N G
 ===========================
  

 Cut-off radii density fit:                        0.1000000000E-97
 Overlap cut-off criterion AO matrix elements:     0.1000000000E-97
 Cut-offs for Coulomb potential and fitted density:0.1000000000E-97
 Cut-off criterion for Coulomb multipole terms:    0.1000000000E-97
 Progressive Convergence parameter:                 0.000000000    
1
 ***************************************************************************************************



                                            ***************************
                                            *  C O M P U T A T I O N  *
                                            ***************************
  

 Number of elements of the density matrix on this node (used, total):       465       465



 ===========================================
 Numerical Integration : Fuzzy Cells (Becke)
 ===========================================
  
 Becke grid quality: VERYGOOD       
  
 Lebedev angular grid order:             min:  13 max:  41
 Nr. of radial points:                   min:  76 max:  76

 Total nr. of points:         76
 Nr. of blocks:                1
 Block length:                76
 Nr. of dummy points:          0


 Test of Precision of the Numerical Integration Grid
 ===================================================

 Integral of the Total Core Density:                   0.00000000000000



 ========================
 Density Fitting (zlmFit)
 ========================
  
 ZlmFit Fit Quality: VERYGOOD       
  
 Max L-expansion:                        min:   0 max:   0
 Nr. of radial interpolation points:     min: 170 max: 170



 =====
 S C F  ***  ScaSCF  ***
 =====
  

 CYCLE    1
 SCF Error: norm([F,P])=      0.000000000000, max([F,P])=      0.000000000000
 orbitals (Q,E):
 ---------------
 S :1...5            ( 2.00   -40.4878)  ( 2.00   -10.0106)  ( 0.00    -4.4145)  ( 0.00    -2.1243)
                     ( 0.00    34.3132)
 P :1...3            ( 5.00   -10.1248)  ( 0.00    -4.4262)  ( 0.00    -2.4124)
 D :1...1            ( 0.00    -4.0000)
 F :1...1            ( 0.00    -2.2500)

 CYCLE    2
  SDIIS (wt  0.000):  1.0000 -0.0000
 A-DIIS (wt  1.000):  0.0000  1.0000
  DIIS coefficients:  0.0000  1.0000
 SCF Error: norm([F,P])=     11.373794780581, max([F,P])=      4.777759414031
 orbitals (Q,E):
 ---------------
 S :1...3            ( 2.00   -18.8794)  ( 2.00    -0.0304)  ( 0.00     0.3093)
 P :1...2            ( 5.00     0.3553)  ( 0.00     1.5643)
 D :1...1            ( 0.00     1.6494)
 F :1...1            ( 0.00     4.0453)

 CYCLE    3
  SDIIS (wt  0.000):  0.2302  0.7698
 A-DIIS (wt  1.000):  0.4427  0.5573
  DIIS coefficients:  0.4427  0.5573
 SCF Error: norm([F,P])=      5.107371177545, max([F,P])=      3.125425661947
 orbitals (Q,E):
 ---------------
 S :1...3            ( 2.00   -24.7932)  ( 2.00    -1.7827)  ( 0.00    -0.0636)
 P :1...2            ( 5.00    -1.0793)  ( 0.00     0.2021)
 D :1...1            ( 0.00     0.6865)
 F :1...1            ( 0.00     2.8888)

 CYCLE    4
  SDIIS (wt  0.000): -0.0128  0.1085  0.9043
 A-DIIS (wt  1.000):  0.0000  0.0000  1.0000
  DIIS coefficients:  0.0000  0.0000  1.0000
 SCF Error: norm([F,P])=      0.965884247460, max([F,P])=      0.451655557762
 orbitals (Q,E):
 ---------------
 S :1...3            ( 2.00   -23.6749)  ( 2.00    -0.7847)  ( 0.00     0.0644)
 P :1...2            ( 5.00    -0.1299)  ( 0.00     0.5762)
 D :1...1            ( 0.00     1.2513)
 F :1...1            ( 0.00     3.5825)

 CYCLE    5
  SDIIS (wt  0.000):  0.0122 -0.0391  0.5749  0.4520
 A-DIIS (wt  1.000):  0.0000  0.0000  0.6712  0.3288
  DIIS coefficients:  0.0000  0.0000  0.6712  0.3288
 SCF Error: norm([F,P])=      1.674963411166, max([F,P])=      0.825318021724
 orbitals (Q,E):
 ---------------
 S :1...3            ( 2.00   -24.3044)  ( 2.00    -1.0529)  ( 0.00     0.0313)
 P :1...2            ( 5.00    -0.3714)  ( 0.00     0.4442)
 D :1...1            ( 0.00     1.1317)
 F :1...1            ( 0.00     3.4351)

 CYCLE    6
  SDIIS (wt  0.024):  0.0029  0.0040  0.0564 -0.0876  1.0243
 A-DIIS (wt  0.976):  0.0000  0.0000  0.0000  0.0000  1.0000
  DIIS coefficients:  0.0001  0.0001  0.0013 -0.0021  1.0006
 SCF Error: norm([F,P])=      0.199607562059, max([F,P])=      0.097634841195
 orbitals (Q,E):
 ---------------
 S :1...3            ( 2.00   -24.5137)  ( 2.00    -1.1478)  ( 0.00     0.0173)
 P :1...2            ( 5.00    -0.4644)  ( 0.00     0.4071)
 D :1...1            ( 0.00     1.0935)
 F :1...1            ( 0.00     3.3875)

 CYCLE    7
  SDIIS (wt  0.000): -0.0005  0.0010  0.0222 -0.0066  0.6116  0.3724
 A-DIIS (wt  1.000):  0.0000  0.0000  0.0000  0.0000  0.6122  0.3878
  DIIS coefficients:  0.0000  0.0000  0.0000  0.0000  0.6122  0.3878
 SCF Error: norm([F,P])=      0.266507541610, max([F,P])=      0.126514736478
 orbitals (Q,E):
 ---------------
 S :1...3            ( 2.00   -24.3946)  ( 2.00    -1.0985)  ( 0.00     0.0225)
 P :1...2            ( 5.00    -0.4159)  ( 0.00     0.4255)
 D :1...1            ( 0.00     1.1136)
 F :1...1            ( 0.00     3.4123)

 CYCLE    8
  SDIIS (wt  0.859):  0.0000 -0.0000 -0.0010  0.0023  0.0294 -0.0834  1.0527
 A-DIIS (wt  0.141):  0.0000  0.0000  0.0000  0.0000  0.0000  0.0000  1.0000
  DIIS coefficients:  0.0000 -0.0000 -0.0009  0.0020  0.0252 -0.0716  1.0453
 SCF Error: norm([F,P])=      0.030968782312, max([F,P])=      0.014981503364
 orbitals (Q,E):
 ---------------
 S :1...3            ( 2.00   -24.3770)  ( 2.00    -1.0904)  ( 0.00     0.0233)
 P :1...2            ( 5.00    -0.4080)  ( 0.00     0.4287)
 D :1...1            ( 0.00     1.1172)
 F :1...1            ( 0.00     3.4167)

 CYCLE    9
  SDIIS (wt  0.981): -0.0000  0.0000 -0.0001 -0.0004  0.0017  0.0154  0.0457  0.9377
 A-DIIS (wt  0.019):  0.0000  0.0000  0.0000  0.0000  0.0000  0.0000  0.0000  1.0000
  DIIS coefficients: -0.0000  0.0000 -0.0001 -0.0004  0.0017  0.0151  0.0448  0.9389
 SCF Error: norm([F,P])=      0.006059807167, max([F,P])=      0.002904332574
 orbitals (Q,E):
 ---------------
 S :1...3            ( 2.00   -24.3801)  ( 2.00    -1.0917)  ( 0.00     0.0232)
 P :1...2            ( 5.00    -0.4093)  ( 0.00     0.4282)
 D :1...1            ( 0.00     1.1167)
 F :1...1            ( 0.00     3.4160)

 CYCLE   10
  SDIIS (wt  1.000): -0.0000  0.0000  0.0000 -0.0000 -0.0005 -0.0009  1.0014
  DIIS coefficients: -0.0000  0.0000  0.0000 -0.0000 -0.0005 -0.0009  1.0014
 SCF Error: norm([F,P])=      0.000165576581, max([F,P])=      0.000079185113
 orbitals (Q,E):
 ---------------
 S :1...3            ( 2.00   -24.3800)  ( 2.00    -1.0917)  ( 0.00     0.0232)
 P :1...2            ( 5.00    -0.4092)  ( 0.00     0.4282)
 D :1...1            ( 0.00     1.1167)
 F :1...1            ( 0.00     3.4160)

 CYCLE   11
  SDIIS (wt  1.000): -0.0000  0.0000 -0.0000 -0.0003 -0.0117  1.0121
  DIIS coefficients: -0.0000  0.0000 -0.0000 -0.0003 -0.0117  1.0121
 SCF Error: norm([F,P])=      0.000000045102, max([F,P])=      0.000000021900
 orbitals (Q,E):
 ---------------
 S :1...3            ( 2.00   -24.3800)  ( 2.00    -1.0917)  ( 0.00     0.0232)
 P :1...2            ( 5.00    -0.4092)  ( 0.00     0.4282)
 D :1...1            ( 0.00     1.1167)
 F :1...1            ( 0.00     3.4160)

 CYCLE   12
  SDIIS (wt  1.000): -0.0000  0.0075  0.9925
  DIIS coefficients: -0.0000  0.0075  0.9925
 SCF Error: norm([F,P])=      0.000000000761, max([F,P])=      0.000000000372
 orbitals (Q,E):
 ---------------
 S :1...3            ( 2.00   -24.3800)  ( 2.00    -1.0917)  ( 0.00     0.0232)
 P :1...2            ( 5.00    -0.4092)  ( 0.00     0.4282)
 D :1...1            ( 0.00     1.1167)
 F :1...1            ( 0.00     3.4160)

 SCF CONVERGED

 CYCLE   13
1
 ***************************************************************************************************



                                                *******************
                                                *  R E S U L T S  *
                                                *******************
  
 *** Setting up for NEW gradients in Focky
 *** Using FIT density in Focky

 Orbital Energies, per Irrep and Spin:
 ======================================
                        Occup              E (au)              E (eV)       Diff (eV) with prev. cycle
                        -----      --------------------        ------       --------------------------
 S
               1        2.000     -0.24380013662793E+02      -663.414              -5.70E-10
               2        2.000     -0.10916696572490E+01       -29.706              -4.11E-10
               3        0.000      0.23171521938657E-01         0.631
               4        0.000      0.15801599788495E+01        42.998
               5        0.000      0.48367571090263E+02      1316.149
 P
               1        5.000     -0.40924594303694E+00       -11.136              -3.94E-10
               2        0.000      0.42818717158446E+00        11.652
               3        0.000      0.45634501130520E+01       124.178
 D
               1        0.000      0.11166683619357E+01        30.386
 F
               1        0.000      0.34160293329535E+01        92.955


 Partially Occupied:
               1 P                -0.40924594303694E+00
  
 HOMO :        2 S                -0.10916696572490E+01
 LUMO :        3 S                 0.23171521938657E-01
  


 Orbital Energies, all Irreps
 ========================================

 Irrep        no.  (spin)   Occup              E (au)                E (eV)
 ---------------------------------------------------------------------------
 S             1             2.00       -0.24380013662793E+02      -663.4139
 S             2             2.00       -0.10916696572490E+01       -29.7058
 P             1             5.00       -0.40924594303694E+00       -11.1361
 S             3             0.00        0.23171521938657E-01         0.6305
 P             2             0.00        0.42818717158446E+00        11.6516
 D             1             0.00        0.11166683619357E+01        30.3861
 S             4             0.00        0.15801599788495E+01        42.9983
 F             1             0.00        0.34160293329535E+01        92.9549
 P             3             0.00        0.45634501130520E+01       124.1778
 S             5             0.00        0.48367571090263E+02      1316.1486


 All Electron Calculation, thus no Orbital Energies of the Core Orbitals are calculated



 =======================================
 M U L L I K E N   P O P U L A T I O N S
 =======================================
  
 The survey below gives for each atom:
 a) the total charge (Z minus electrons)
 b) the net spin polarization (nr of electrons spin-A minus spin-B)
 c) for each spin the atomic electron valence density (integrated) per L-value.

 Atom              Charge    Spin density          S         P         D         F
 ----              ------    ------------       ------    ------    ------    ------
 1 F              -0.0000                       4.0000    5.0000    0.0000    0.0000

 Populations of individual BAS functions
 ----------------------------------------
 1 F            0.5735  1.4020  1.1462  0.8789 -0.0006  0.3652  0.3652  0.3652  0.9146  0.9146
                0.9146  0.3869  0.3869  0.3869  0.0000  0.0000  0.0000  0.0000  0.0000  0.0000
                0.0000  0.0000  0.0000  0.0000  0.0000  0.0000  0.0000  0.0000  0.0000  0.0000

 Gross Charges per Atom (Z minus electrons)
 ==========================================
            -0.0000
 Net Total: -0.00000000



 =======================================================================
 Electrostatic potential at the Nuclei due to electrons and other nuclei
 =======================================================================
  
         Atom                  Potential
         ----                  ---------
     1)   F                  26.51041126
 
 
 ========================
 No memory problems found
 ========================
 
 Maximum number of active allocate calls:         447
 
 *******************************************************************************

                             A D F   E X I T
 NORMAL TERMINATION



 =================
 Timing Statistics
 =================
  
 Total Used :                     CPU=        0.50      System=        0.03     Elapsed=        0.53

 Calls  Section                     ( Mean, Percentage )
 ---------------------------------------------------------------------------------------------------
     3  ><      ................      0.00    0.20             0.00    0.00             0.00    0.15
     1  INIT    ................      0.01    1.99             0.01   53.57             0.03    4.79
     1  GEOMET  ................      0.00    0.99             0.00   10.72             0.01    1.58
     1  INPUTA  ................      0.00    0.20             0.00    0.00             0.00    0.28
     1  MAINSY  ................      0.00    0.80             0.00    7.14             0.01    1.12
     1  SYMFIT  ................      0.00    0.00             0.00    3.57             0.00    0.15
     1  CORORT  ................      0.00    0.00             0.00    0.00             0.00    0.05
     1  SYMORB  ................      0.00    0.20             0.00    0.00             0.00    0.13
     1  CLSMAT  ................      0.00    0.99             0.00    0.00             0.01    0.98
     1  ORTHON  ................      0.00    0.40             0.00    0.00             0.00    0.27
     1  GENPT   ................      0.01    2.78             0.00    0.00             0.01    2.77
     1  PTBAS   ................      0.00    0.80             0.00    0.00             0.00    0.65
    13  FOCKY   ................      0.03   75.55             0.00   14.28             0.03   72.39
    13  FOCKTR  ................      0.00    1.99             0.00    0.00             0.00    2.02
    13  SDIIS   ................      0.00    4.17             0.00    7.14             0.00    3.98
     1  COREPS  ................      0.02    4.37             0.00    0.00             0.02    4.13
     1  POPAN   ................      0.00    0.99             0.00    0.00             0.01    0.98
     1  DEBYE   ................      0.00    0.20             0.00    0.00             0.00    0.11
     1  EXIT PROCEDURE .........      0.02    3.38             0.00    3.57             0.02    3.48


 Currently Open Files (EXIT00)
 ====================

 Unit    Access Format  Status   Type       Ident (file)
 -------------------------------------------------------
   3      SEQ    FORM   TRANSP  NORMAL      LOGFILE
                                          ( logfile )


 Buffered I/O statistics
 =======================
 Memory available:                     67108864
 Number of records fitting in memory:     16131
 Input :   0.1% of                        27818  *4k bytes
 Output:  13.5% of                         1383  *4k bytes
 Records from serial files evicted:           0
                    others evicted:           0
 Hash table lookups:      71870 with          0 conflicts (  0.00%)

 ***************************************************************************************************
 (LOGFILE)
 <Apr18-2019> <14:06:19>  ADF development version  RunTime: Apr18-2019 14:06:19  Nodes: 1  Procs: 1
 <Apr18-2019> <14:06:19>  Hydrogen (TZ2P)
 <Apr18-2019> <14:06:19>  RunType   : CREATE
 <Apr18-2019> <14:06:19>  Net Charge: 0 (Nuclei minus Electrons)
 <Apr18-2019> <14:06:19>  Symmetry  : ATOM
  Coordinates
    Atom         X           Y           Z   (Angstrom)
    1.H         0.000000    0.000000    0.000000
 <Apr18-2019> <14:06:19>  >>>> CORORT
 <Apr18-2019> <14:06:19>  >>>> CLSMAT
 <Apr18-2019> <14:06:19>  >>>> ORTHON
 <Apr18-2019> <14:06:19>  >>>> GENPT
 <Apr18-2019> <14:06:19>  Block Length=  64
 <Apr18-2019> <14:06:19>  >>>> PTBAS
 <Apr18-2019> <14:06:19>  >>>> CYCLE
 <Apr18-2019> <14:06:19>              |Error|         MaxErr       Wt(A-DIIS)
 <Apr18-2019> <14:06:19>      1      0.00000000      0.00000000
 <Apr18-2019> <14:06:19>      2      0.03100286      0.02644424
 <Apr18-2019> <14:06:19>      3      0.00958001      0.00932852    100.0
 <Apr18-2019> <14:06:19>      4      0.00232093      0.00228640      1.3
 <Apr18-2019> <14:06:19>      5      0.00003155      0.00002984      0.0
 <Apr18-2019> <14:06:19>      6      0.00000096      0.00000091      0.0
 <Apr18-2019> <14:06:19>      7      0.00000000      0.00000000      0.0
 <Apr18-2019> <14:06:19>  SCF converged
 <Apr18-2019> <14:06:19>      8      0.00000000      0.00000000      0.0
 <Apr18-2019> <14:06:19>  >>>> POPAN
 <Apr18-2019> <14:06:19>  >>>> DEBYE
 <Apr18-2019> <14:06:19>  NORMAL TERMINATION
 <Apr18-2019> <14:06:19>  END
 <Apr18-2019> <14:06:19>  ADF development version  RunTime: Apr18-2019 14:06:19  Nodes: 1  Procs: 1
 <Apr18-2019> <14:06:19>  Fluorine (TZ2P)
 <Apr18-2019> <14:06:19>  RunType   : CREATE
 <Apr18-2019> <14:06:19>  Net Charge: 0 (Nuclei minus Electrons)
 <Apr18-2019> <14:06:19>  Symmetry  : ATOM
  Coordinates
    Atom         X           Y           Z   (Angstrom)
    1.F         0.000000    0.000000    0.000000
 <Apr18-2019> <14:06:19>  >>>> CORORT
 <Apr18-2019> <14:06:19>  >>>> CLSMAT
 <Apr18-2019> <14:06:19>  >>>> ORTHON
 <Apr18-2019> <14:06:19>  >>>> GENPT
 <Apr18-2019> <14:06:19>  Block Length=  76
 <Apr18-2019> <14:06:19>  >>>> PTBAS
 <Apr18-2019> <14:06:19>  >>>> CYCLE
 <Apr18-2019> <14:06:19>              |Error|         MaxErr       Wt(A-DIIS)
 <Apr18-2019> <14:06:19>      1      0.00000000      0.00000000
 <Apr18-2019> <14:06:19>      2     11.37379478      4.77775941    100.0
 <Apr18-2019> <14:06:19>      3      5.10737118      3.12542566    100.0
 <Apr18-2019> <14:06:19>      4      0.96588425      0.45165556    100.0
 <Apr18-2019> <14:06:19>      5      1.67496341      0.82531802    100.0
 <Apr18-2019> <14:06:20>      6      0.19960756      0.09763484     97.6
 <Apr18-2019> <14:06:20>      7      0.26650754      0.12651474    100.0
 <Apr18-2019> <14:06:20>      8      0.03096878      0.01498150     14.1
 <Apr18-2019> <14:06:20>      9      0.00605981      0.00290433      1.9
 <Apr18-2019> <14:06:20>     10      0.00016558      0.00007919      0.0
 <Apr18-2019> <14:06:20>     11      0.00000005      0.00000002      0.0
 <Apr18-2019> <14:06:20>     12      0.00000000      0.00000000      0.0
 <Apr18-2019> <14:06:20>  SCF converged
 <Apr18-2019> <14:06:20>     13      0.00000000      0.00000000      0.0
 <Apr18-2019> <14:06:20>  >>>> POPAN
 <Apr18-2019> <14:06:20>  >>>> DEBYE
 <Apr18-2019> <14:06:20>  NORMAL TERMINATION
 <Apr18-2019> <14:06:20>  END

Create Cl   file=TZ2P-Cl
XC
  GGA blyp
  DISPERSION Grimme3 BJDAMP
End
End Input

 *******************************************************************************
 *                                                                             *
 *  -------------------------------------                                      *
 *   Amsterdam Density Functional  (ADF)         development version           *
 *  -------------------------------------                                      *
 *                                               r61132 2017-09-08             *
 *                                                                             *
 *                                                                             *
 *                              =================                              *
 *                              |               |                              *
 *                              |     A D F     |                              *
 *                              |               |                              *
 *                              =================                              *
 *                                                                             *
 *                                                                             *
 *   Online information and documentation:  https://www.scm.com/support/       *
 *   E-mail:  support@scm.com   info@scm.com                                   *
 *                                                                             *
 *   Scientific publications using ADF results must be properly referenced     *
 *   See the User Manuals (or the web site) for recommended citations          *
 *   The terms and conditions of the End User License Agreement apply to       *
 *   the use of ADF, https://www.scm.com/license-terms/                        *
 *                                                                             *
 **********************  x86_64_linux_intel / intelmpi  ************************
 
 Licensed to: VU/FEW (+ SARA) / ALGEMEEN / Amsterdam / THE NETHERLANDS
 SCM User ID: u7668
  
 ADF development version  RunTime: Apr18-2019 14:06:20  Nodes: 1  Procs: 1

 Temporary files are created in /local/datastore0/tcst25/186718/kid_0.FeYaoV

 Chlorine (TZ2P)



 ===========================
 A T T A C H E D   F I L E S
 ===========================
  
 CREATE - Data File:    TZ2P-Cl
                        Chlorine (TZ2P)



 ===============================
 M O D E L   P A R A M E T E R S
 ===============================
  
 DENSITY FUNCTIONAL POTENTIAL (scf)
    LDA:                               Exchange only                           == Not Default ==
    Gradient Corrections:              Becke88 LYP                             == Not Default ==

 SPIN  (restricted / unrestr.)
    Molecule:                          Restricted                               

 OTHER ASPECTS
    Relativistic Corrections:          ---                                      

    Nuclear Charge Density Model:      Point Charge Nuclei                      
    Core Treatment:                    Frozen Orbital(s)                        

    Hyperfine or Zeeman Interaction:   ---                                      

 Settings for Grimme 3 dispersion correction

      damping                        BJ
      s6                          1.000
      a1                          0.430
      s8                          2.700
      a2                          4.236

 Other (technical) parameters

      alpha                      14.000
      version                         4
 



 =====================================
 S Y M M E T R Y ,   E L E C T R O N S
 =====================================
  
 Symmetry: ATOM

 Irreducible Representations, including subspecies
 -------------------------------------------------
 S
 P:x  P:y  P:z
 D:z2  D:x2-y2  D:xy  D:xz  D:yz
 F:z3  F:z  F:xyz  F:z2x  F:z2y  F:x  F:y


 Configuration of Valence Electrons
 ==================================

          Occupation Numbers
          -------------------------------------------------
 S        3*2
 P        6 5
 D        0
 F        0
          -------------------------------------------------

 Total:   17

 Net Charge: 0 (Nuclei minus Electrons)

 Preset values for MO occupations will be applied through SCF cycle no. 1000000
 Thereafter, the program will assign electrons to MOs that are spatially
 similar to the occupied MOs in a "reference" cycle ("KeepOrbitals").
 The reference cycle is always the PREVIOUS cycle: it will evolve with
 the SCF procedure.



 ================================
 (Slater-type)  F U N C T I O N S  ***  (Basis and Fit)  ***
 ================================
  

 Atom Type    1  (Cl)
 ==============

 Valence Basis Sets:  14
 -----------------------
   1 S   20.300000
   1 S   15.250000
   2 S    6.250000
   2 S    4.450000
   2 P    8.850000
   2 P    5.050000
   3 S    3.450000
   3 S    2.300000
   3 S    1.600000
   3 P    3.350000
   3 P    2.050000
   3 P    1.200000
   3 D    2.000000
   4 F    2.000000


 BAS: List of all Elementary Cartesian Basis Functions
 =====================================================

 The numbering in the list below (to the right of the function characteristics) is referred
 to in print-outs of MO eigenvectors and Mulliken populations in the BAS representation
 (as contrasted to the SFO representation).

 Notes:
 1. The functions are characterized by a polynomial prefactor (powers of x,y,z and r) and
    an exponential decay factor alpha.
 2. Since the basis sets are specific for an atom TYPE, the individual functions occur on
    all atoms of that type.
 3. The word 'Core' in the left margin signals that it is a Core Function (CF) : not a
    degree of freedom in the valence set, but only used to ensure orthogonalization of
    the other valence basis functions on the frozen Core Orbitals.


 (power of) X  Y  Z  R     Alpha  on Atom
            ==========     =====     ==========

 Cl                                   1
                                  ---------------------------------------------------------------------------
            0  0  0  0    20.300      1
            0  0  0  0    15.250      2
            0  0  0  1     6.250      3
            0  0  0  1     4.450      4
            1  0  0  0     8.850      5
            0  1  0  0     8.850      6
            0  0  1  0     8.850      7
            1  0  0  0     5.050      8
            0  1  0  0     5.050      9
            0  0  1  0     5.050     10
            0  0  0  2     3.450     11
            0  0  0  2     2.300     12
            0  0  0  2     1.600     13
            1  0  0  1     3.350     14
            0  1  0  1     3.350     15
            0  0  1  1     3.350     16
            1  0  0  1     2.050     17
            0  1  0  1     2.050     18
            0  0  1  1     2.050     19
            1  0  0  1     1.200     20
            0  1  0  1     1.200     21
            0  0  1  1     1.200     22
            2  0  0  0     2.000     23
            1  1  0  0     2.000     24
            1  0  1  0     2.000     25
            0  2  0  0     2.000     26
            0  1  1  0     2.000     27
            0  0  2  0     2.000     28
            3  0  0  0     2.000     29
            2  1  0  0     2.000     30
            2  0  1  0     2.000     31
            1  2  0  0     2.000     32
            1  1  1  0     2.000     33
            1  0  2  0     2.000     34
            0  3  0  0     2.000     35
            0  2  1  0     2.000     36
            0  1  2  0     2.000     37
            0  0  3  0     2.000     38

 Total number of charge fitting functions (nprimf)       106
 Total number of Cartesian basis functions (naos)         38
 Total number of Cartesian core functions  (ncos)          0



 BAS: List of all Elementary Cartesian Basis Functions
 =====================================================

 The numbering in the list below (to the right of the function characteristics) is referred
 to in print-outs of MO eigenvectors and Mulliken populations in the BAS representation
 (as contrasted to the SFO representation).

 Notes:
 1. The functions are characterized by a polynomial prefactor (powers of x,y,z and r) and
    an exponential decay factor alpha.
 2. Since the basis sets are specific for an atom TYPE, the individual functions occur on
    all atoms of that type.
 3. The word 'Core' in the left margin signals that it is a Core Function (CF) : not a
    degree of freedom in the valence set, but only used to ensure orthogonalization of
    the other valence basis functions on the frozen Core Orbitals.


 (power of) X  Y  Z  R     Alpha  on Atom
            ==========     =====     ==========

 Cl                                   1
                                  ---------------------------------------------------------------------------
            0  0  0  0    20.300      1
            0  0  0  0    15.250      2
            0  0  0  1     6.250      3
            0  0  0  1     4.450      4
            1  0  0  0     8.850      5
            0  1  0  0     8.850      6
            0  0  1  0     8.850      7
            1  0  0  0     5.050      8
            0  1  0  0     5.050      9
            0  0  1  0     5.050     10
            0  0  0  2     3.450     11
            0  0  0  2     2.300     12
            0  0  0  2     1.600     13
            1  0  0  1     3.350     14
            0  1  0  1     3.350     15
            0  0  1  1     3.350     16
            1  0  0  1     2.050     17
            0  1  0  1     2.050     18
            0  0  1  1     2.050     19
            1  0  0  1     1.200     20
            0  1  0  1     1.200     21
            0  0  1  1     1.200     22
            2  0  0  0     2.000     23
            1  1  0  0     2.000     24
            1  0  1  0     2.000     25
            0  2  0  0     2.000     26
            0  1  1  0     2.000     27
            0  0  2  0     2.000     28
            3  0  0  0     2.000     29
            2  1  0  0     2.000     30
            2  0  1  0     2.000     31
            1  2  0  0     2.000     32
            1  1  1  0     2.000     33
            1  0  2  0     2.000     34
            0  3  0  0     2.000     35
            0  2  1  0     2.000     36
            0  1  2  0     2.000     37
            0  0  3  0     2.000     38
1
 ***************************************************************************************************



                                              ***********************
                                              *  T E C H N I C A L  *
                                              ***********************
  



 =============================================================
 P A R A L L E L I Z A T I O N  and  V E C T O R I Z A T I O N
 =============================================================
  
 Nr of parallel processes:                                1
 Maximum vector length in NumInt loops:                 128

 IO buffersize (Mb):                                     64.000000



 =====================
 S C F   U P D A T E S
 =====================
  
 Max. nr. of cycles:                               300
 Convergence criterion:                              0.0000000100
   secondary criterion:                              0.0000000100

 Mix parameter (when DIIS does not apply):           0.2000000000
 Special mix parameter for the first cycle:          1.0000000000
 Mixed ADIIS+DIIS will be used
    Max number of expansion vectors:                10
    Pure ADIIS when Max([F,P]) is above              0.1000000000
    Pure DIIS when Max([F,P]) is below               0.0010000000
 Automatic ElectronSmearing (in case of problematic SCF convergence) disabled



 =================
 P R E C I S I O N  ***  (General: NumInt, NeglectFunctionTails, ...)  ***
 =================
  

 NumInt:           Target precision:                12.0000000000
 -------           Initial precision:               10.0000000000
                   Min. precision (optimization):   10.0000000000

 Neglect Functions:          Basis functions:        0.1000000000E-13
 ------------------          Fit functions:          0.1000000000E-13



 ===========================
 L I N E A R   S C A L I N G
 ===========================
  

 Cut-off radii density fit:                        0.1000000000E-97
 Overlap cut-off criterion AO matrix elements:     0.1000000000E-97
 Cut-offs for Coulomb potential and fitted density:0.1000000000E-97
 Cut-off criterion for Coulomb multipole terms:    0.1000000000E-97
 Progressive Convergence parameter:                 0.000000000    
1
 ***************************************************************************************************



                                            ***************************
                                            *  C O M P U T A T I O N  *
                                            ***************************
  

 Number of elements of the density matrix on this node (used, total):       741       741



 ===========================================
 Numerical Integration : Fuzzy Cells (Becke)
 ===========================================
  
 Becke grid quality: VERYGOOD       
  
 Lebedev angular grid order:             min:  13 max:  41
 Nr. of radial points:                   min:  93 max:  93

 Total nr. of points:         93
 Nr. of blocks:                1
 Block length:                93
 Nr. of dummy points:          0


 Test of Precision of the Numerical Integration Grid
 ===================================================

 Integral of the Total Core Density:                   0.00000000000000



 ========================
 Density Fitting (zlmFit)
 ========================
  
 ZlmFit Fit Quality: VERYGOOD       
  
 Max L-expansion:                        min:   0 max:   0
 Nr. of radial interpolation points:     min: 200 max: 200



 =====
 S C F  ***  ScaSCF  ***
 =====
  

 CYCLE    1
 SCF Error: norm([F,P])=      0.000000000000, max([F,P])=      0.000000000000
 orbitals (Q,E):
 ---------------
 S :1...7            ( 2.00  -144.4893)  ( 2.00   -36.0966)  ( 2.00   -16.0338)  ( 0.00    -8.9253)
                     ( 0.00    -5.5262)  ( 0.00    -3.6296)  ( 0.00   175.9783)
 P :1...5            ( 6.00   -36.1179)  ( 5.00   -15.7666)  ( 0.00    -8.4199)  ( 0.00    -4.8064)
                     ( 0.00    -2.9092)
 D :1...1            ( 0.00    -9.3333)
 F :1...1            ( 0.00    -6.5000)

 CYCLE    2
  SDIIS (wt  0.000):  1.0000 -0.0000
 A-DIIS (wt  1.000):  0.0000  1.0000
  DIIS coefficients:  0.0000  1.0000
 SCF Error: norm([F,P])=     37.918093115371, max([F,P])=     10.754162001971
 orbitals (Q,E):
 ---------------
 S :1...4            ( 2.00   -86.3665)  ( 2.00    -3.0042)  ( 2.00     0.0879)  ( 0.00     0.9074)
 P :1...3            ( 6.00    -0.5941)  ( 5.00     0.2005)  ( 0.00     1.0624)
 D :1...1            ( 0.00     1.3908)
 F :1...1            ( 0.00     1.7118)

 CYCLE    3
  SDIIS (wt  0.000):  0.2468  0.7532
 A-DIIS (wt  1.000):  0.2184  0.7816
  DIIS coefficients:  0.2184  0.7816
 SCF Error: norm([F,P])=     20.757708249348, max([F,P])=      6.871796656039
 orbitals (Q,E):
 ---------------
 S :1...4            ( 2.00  -105.5772)  ( 2.00   -12.2185)  ( 2.00    -1.9200)  ( 0.00    -0.1982)
 P :1...3            ( 6.00   -10.2793)  ( 5.00    -1.3974)  ( 0.00    -0.0873)
 D :1...1            ( 0.00    -0.4679)
 F :1...1            ( 0.00     0.6062)

 CYCLE    4
  SDIIS (wt  0.000): -0.0788  0.1328  0.9460
 A-DIIS (wt  1.000):  0.0000  0.0000  1.0000
  DIIS coefficients:  0.0000  0.0000  1.0000
 SCF Error: norm([F,P])=      6.021405452047, max([F,P])=      2.061487593708
 orbitals (Q,E):
 ---------------
 S :1...4            ( 2.00   -97.6728)  ( 2.00    -7.4155)  ( 2.00    -0.2425)  ( 0.00     0.4293)
 P :1...3            ( 6.00    -5.1248)  ( 5.00     0.0322)  ( 0.00     0.5151)
 D :1...1            ( 0.00     0.8498)
 F :1...1            ( 0.00     1.4674)

 CYCLE    5
  SDIIS (wt  0.000): -0.0198 -0.0624  0.3895  0.6927
 A-DIIS (wt  1.000):  0.0000  0.0000  0.4691  0.5309
  DIIS coefficients:  0.0000  0.0000  0.4691  0.5309
 SCF Error: norm([F,P])=      4.122826282833, max([F,P])=      1.762338952725
 orbitals (Q,E):
 ---------------
 S :1...4            ( 2.00  -100.7640)  ( 2.00    -9.3467)  ( 2.00    -0.9097)  ( 0.00     0.1217)
 P :1...3            ( 6.00    -7.1584)  ( 5.00    -0.4570)  ( 0.00     0.1672)
 D :1...1            ( 0.00     0.2335)
 F :1...1            ( 0.00     1.0657)

 CYCLE    6
  SDIIS (wt  0.000): -0.0001 -0.0138  0.0424  0.0981  0.8734
 A-DIIS (wt  1.000):  0.0000  0.0000  0.0000  0.0000  1.0000
  DIIS coefficients:  0.0000  0.0000  0.0000  0.0000  1.0000
 SCF Error: norm([F,P])=      0.297134459880, max([F,P])=      0.111907135573
 orbitals (Q,E):
 ---------------
 S :1...4            ( 2.00  -100.6199)  ( 2.00    -9.0705)  ( 2.00    -0.6673)  ( 0.00     0.2275)
 P :1...3            ( 6.00    -6.8928)  ( 5.00    -0.2439)  ( 0.00     0.2570)
 D :1...1            ( 0.00     0.4575)
 F :1...1            ( 0.00     1.2382)

 CYCLE    7
  SDIIS (wt  0.000): -0.0002  0.0003  0.0119 -0.0199  0.3831  0.6249
 A-DIIS (wt  1.000):  0.0000  0.0000  0.0000  0.0000  0.4431  0.5569
  DIIS coefficients:  0.0000  0.0000  0.0000  0.0000  0.4431  0.5569
 SCF Error: norm([F,P])=      0.268270877863, max([F,P])=      0.112251171075
 orbitals (Q,E):
 ---------------
 S :1...4            ( 2.00  -100.8158)  ( 2.00    -9.2442)  ( 2.00    -0.7560)  ( 0.00     0.1940)
 P :1...3            ( 6.00    -7.0691)  ( 5.00    -0.3171)  ( 0.00     0.2236)
 D :1...1            ( 0.00     0.3804)
 F :1...1            ( 0.00     1.1860)

 CYCLE    8
  SDIIS (wt  0.746):  0.0001 -0.0001 -0.0028  0.0035  0.0906  0.1300  0.7787
 A-DIIS (wt  0.254):  0.0000  0.0000  0.0000  0.0000  0.0000  0.0000  1.0000
  DIIS coefficients:  0.0000 -0.0001 -0.0021  0.0026  0.0676  0.0969  0.8350
 SCF Error: norm([F,P])=      0.071559445743, max([F,P])=      0.026187079053
 orbitals (Q,E):
 ---------------
 S :1...4            ( 2.00  -100.7523)  ( 2.00    -9.2108)  ( 2.00    -0.7461)  ( 0.00     0.1973)
 P :1...3            ( 6.00    -7.0328)  ( 5.00    -0.3089)  ( 0.00     0.2267)
 D :1...1            ( 0.00     0.3881)
 F :1...1            ( 0.00     1.1908)

 CYCLE    9
  SDIIS (wt  0.957):  0.0000 -0.0000 -0.0001  0.0003  0.0037 -0.0063  0.1578  0.8445
 A-DIIS (wt  0.043):  0.0000  0.0000  0.0000  0.0000  0.0000  0.0000  0.0000  1.0000
  DIIS coefficients:  0.0000 -0.0000 -0.0001  0.0003  0.0036 -0.0060  0.1511  0.8511
 SCF Error: norm([F,P])=      0.013066268529, max([F,P])=      0.005220141314
 orbitals (Q,E):
 ---------------
 S :1...4            ( 2.00  -100.7623)  ( 2.00    -9.2169)  ( 2.00    -0.7484)  ( 0.00     0.1965)
 P :1...3            ( 6.00    -7.0393)  ( 5.00    -0.3108)  ( 0.00     0.2259)
 D :1...1            ( 0.00     0.3862)
 F :1...1            ( 0.00     1.1896)

 CYCLE   10
  SDIIS (wt  1.000):  0.0000  0.0000 -0.0000 -0.0000  0.0002  0.0011 -0.0030  0.0039  0.9977
  DIIS coefficients:  0.0000  0.0000 -0.0000 -0.0000  0.0002  0.0011 -0.0030  0.0039  0.9977
 SCF Error: norm([F,P])=      0.000485727205, max([F,P])=      0.000202934402
 orbitals (Q,E):
 ---------------
 S :1...4            ( 2.00  -100.7620)  ( 2.00    -9.2166)  ( 2.00    -0.7483)  ( 0.00     0.1965)
 P :1...3            ( 6.00    -7.0390)  ( 5.00    -0.3107)  ( 0.00     0.2259)
 D :1...1            ( 0.00     0.3863)
 F :1...1            ( 0.00     1.1896)

 CYCLE   11
  SDIIS (wt  1.000):  0.0000  0.0000  0.0000  0.0000 -0.0002 -0.0009  0.0045  0.9965
  DIIS coefficients:  0.0000  0.0000  0.0000  0.0000 -0.0002 -0.0009  0.0045  0.9965
 SCF Error: norm([F,P])=      0.000002451026, max([F,P])=      0.000000874874
 orbitals (Q,E):
 ---------------
 S :1...4            ( 2.00  -100.7620)  ( 2.00    -9.2166)  ( 2.00    -0.7483)  ( 0.00     0.1965)
 P :1...3            ( 6.00    -7.0390)  ( 5.00    -0.3107)  ( 0.00     0.2259)
 D :1...1            ( 0.00     0.3863)
 F :1...1            ( 0.00     1.1896)

 CYCLE   12
  SDIIS (wt  1.000):  0.0000  0.0000 -0.0000 -0.0000  0.0001  0.0049  0.9950
  DIIS coefficients:  0.0000  0.0000 -0.0000 -0.0000  0.0001  0.0049  0.9950
 SCF Error: norm([F,P])=      0.000000029116, max([F,P])=      0.000000011194
 orbitals (Q,E):
 ---------------
 S :1...4            ( 2.00  -100.7620)  ( 2.00    -9.2166)  ( 2.00    -0.7483)  ( 0.00     0.1965)
 P :1...3            ( 6.00    -7.0390)  ( 5.00    -0.3107)  ( 0.00     0.2259)
 D :1...1            ( 0.00     0.3863)
 F :1...1            ( 0.00     1.1896)

 CYCLE   13
  SDIIS (wt  1.000):  0.0000 -0.0004  0.0111  0.9893
  DIIS coefficients:  0.0000 -0.0004  0.0111  0.9893
 SCF Error: norm([F,P])=      0.000000001290, max([F,P])=      0.000000000495
 orbitals (Q,E):
 ---------------
 S :1...4            ( 2.00  -100.7620)  ( 2.00    -9.2166)  ( 2.00    -0.7483)  ( 0.00     0.1965)
 P :1...3            ( 6.00    -7.0390)  ( 5.00    -0.3107)  ( 0.00     0.2259)
 D :1...1            ( 0.00     0.3863)
 F :1...1            ( 0.00     1.1896)

 SCF CONVERGED

 CYCLE   14
1
 ***************************************************************************************************



                                                *******************
                                                *  R E S U L T S  *
                                                *******************
  
 *** Setting up for NEW gradients in Focky
 *** Using FIT density in Focky

 Orbital Energies, per Irrep and Spin:
 ======================================
                        Occup              E (au)              E (eV)       Diff (eV) with prev. cycle
                        -----      --------------------        ------       --------------------------
 S
               1        2.000     -0.10076196025470E+03     -2741.872               4.83E-10
               2        2.000     -0.92166234791376E+01      -250.797               4.96E-10
               3        2.000     -0.74829309878317E+00       -20.362               4.12E-10
               4        0.000      0.19650378945431E+00         5.347
               5        0.000      0.20105214794381E+01        54.709
               6        0.000      0.12737820956871E+02       346.614
               7        0.000      0.21467502602048E+03      5841.605
 P
               1        6.000     -0.70390087591571E+01      -191.541               4.92E-10
               2        5.000     -0.31074821072056E+00        -8.456               3.59E-10
               3        0.000      0.22590803353600E+00         6.147
               4        0.000      0.21023976914888E+01        57.209
               5        0.000      0.18828233069566E+02       512.342
 D
               1        0.000      0.38627333037828E+00        10.511
 F
               1        0.000      0.11896264283968E+01        32.371


 Partially Occupied:
               2 P                -0.31074821072056E+00
  
 HOMO :        3 S                -0.74829309878317E+00
 LUMO :        4 S                 0.19650378945431E+00
  


 Orbital Energies, all Irreps
 ========================================

 Irrep        no.  (spin)   Occup              E (au)                E (eV)
 ---------------------------------------------------------------------------
 S             1             2.00       -0.10076196025470E+03     -2741.8724
 S             2             2.00       -0.92166234791376E+01      -250.7971
 P             1             6.00       -0.70390087591571E+01      -191.5412
 S             3             2.00       -0.74829309878317E+00       -20.3621
 P             2             5.00       -0.31074821072056E+00        -8.4559
 S             4             0.00        0.19650378945431E+00         5.3471
 P             3             0.00        0.22590803353600E+00         6.1473
 D             1             0.00        0.38627333037828E+00        10.5110
 F             1             0.00        0.11896264283968E+01        32.3714
 S             5             0.00        0.20105214794381E+01        54.7091
 P             4             0.00        0.21023976914888E+01        57.2092
 S             6             0.00        0.12737820956871E+02       346.6137
 P             5             0.00        0.18828233069566E+02       512.3423
 S             7             0.00        0.21467502602048E+03      5841.6047


 All Electron Calculation, thus no Orbital Energies of the Core Orbitals are calculated



 =======================================
 M U L L I K E N   P O P U L A T I O N S
 =======================================
  
 The survey below gives for each atom:
 a) the total charge (Z minus electrons)
 b) the net spin polarization (nr of electrons spin-A minus spin-B)
 c) for each spin the atomic electron valence density (integrated) per L-value.

 Atom              Charge    Spin density          S         P         D         F
 ----              ------    ------------       ------    ------    ------    ------
 1 Cl              0.0000                       6.0000   11.0000    0.0000    0.0000

 Populations of individual BAS functions
 ----------------------------------------
 1 Cl           0.5041  1.4544  1.7124  0.2493  0.7286  0.7286  0.7286  1.2681  1.2681  1.2681
                0.6256  1.0927  0.3615  0.2681  0.2681  0.2681  1.0016  1.0016  1.0016  0.4002
                0.4002  0.4002  0.0000  0.0000  0.0000  0.0000  0.0000  0.0000  0.0000  0.0000
                0.0000  0.0000  0.0000  0.0000  0.0000  0.0000  0.0000  0.0000

 Gross Charges per Atom (Z minus electrons)
 ==========================================
             0.0000
 Net Total:  0.00000000



 =======================================================================
 Electrostatic potential at the Nuclei due to electrons and other nuclei
 =======================================================================
  
         Atom                  Potential
         ----                  ---------
     1)   Cl                 64.38336388
 
 
 ========================
 No memory problems found
 ========================
 
 Maximum number of active allocate calls:         447
 
 *******************************************************************************

                             A D F   E X I T
 NORMAL TERMINATION



 =================
 Timing Statistics
 =================
  
 Total Used :                     CPU=        0.63      System=        0.03     Elapsed=        0.66

 Calls  Section                     ( Mean, Percentage )
 ---------------------------------------------------------------------------------------------------
     3  ><      ................      0.00    0.16             0.00    0.00             0.00    0.12
     1  INIT    ................      0.01    1.43             0.01   43.75             0.03    3.84
     1  GEOMET  ................      0.01    0.96             0.00    9.38             0.01    1.28
     1  INPUTA  ................      0.00    0.16             0.00    0.00             0.00    0.23
     1  MAINSY  ................      0.00    0.64             0.00    6.25             0.01    0.90
     1  SYMFIT  ................      0.00    0.00             0.00    3.12             0.00    0.12
[...]
 <Apr18-2019> <14:06:29>      8      0.00001092      0.00000276      0.0
 <Apr18-2019> <14:06:29>      9      0.00000125      0.00000030      0.0
 <Apr18-2019> <14:06:29>  SCF converged
 <Apr18-2019> <14:06:29>     10      0.00000033      0.00000012      0.0
 <Apr18-2019> <14:06:29>  >>>> TOTEN
 <Apr18-2019> <14:06:29>  >>>> POPAN
 <Apr18-2019> <14:06:29>  >>>> DEBYE
 <Apr18-2019> <14:06:29>  >>>> ENGRAD
 <Apr18-2019> <14:06:29>  current energy                               -0.45968392 Hartree
 <Apr18-2019> <14:06:29>  energy change                      -0.00561522     0.00010000    F
 <Apr18-2019> <14:06:29>  constrained gradient max            0.01955487     0.00010000    F
 <Apr18-2019> <14:06:29>  constrained gradient rms            0.01026818     0.00006667    F
 <Apr18-2019> <14:06:29>  gradient max                        0.01955487
 <Apr18-2019> <14:06:29>  gradient rms                        0.01026818
 <Apr18-2019> <14:06:29>  cart. step max                      0.15000000     0.01000000    F
 <Apr18-2019> <14:06:29>  cart. step rms                      0.06409954     0.00666667    F
  Coordinates in Geometry Cycle 8
    Atom         X           Y           Z   (Angstrom)
    1.Cl       -3.864460    0.049302   -0.092675
    2.H        -2.435701    0.372186    0.875655
    3.F        -1.580335    0.716381    1.407249
 <Apr18-2019> <14:06:30>  >>>> CORORT
 <Apr18-2019> <14:06:30>  >>>> CLSMAT
 <Apr18-2019> <14:06:30>  >>>> ORTHON
 <Apr18-2019> <14:06:30>  >>>> GENPT
 <Apr18-2019> <14:06:30>  Block Length= 128
 <Apr18-2019> <14:06:30>  >>>> PTBAS
 <Apr18-2019> <14:06:30>  >>>> CYCLE
 <Apr18-2019> <14:06:30>              |Error|         MaxErr       Wt(A-DIIS)
 <Apr18-2019> <14:06:30>      1      0.14208883      0.06218290
 <Apr18-2019> <14:06:30>      2      0.04098063      0.01049458    100.0
 <Apr18-2019> <14:06:30>      3      0.06761504      0.02150342    100.0
 <Apr18-2019> <14:06:30>      4      0.01131029      0.00230016      1.3
 <Apr18-2019> <14:06:30>      5      0.00369240      0.00099100      0.0
 <Apr18-2019> <14:06:30>      6      0.00047840      0.00012967      0.0
 <Apr18-2019> <14:06:30>      7      0.00013803      0.00004219      0.0
 <Apr18-2019> <14:06:30>      8      0.00002734      0.00000704      0.0
 <Apr18-2019> <14:06:30>      9      0.00000431      0.00000175      0.0
 <Apr18-2019> <14:06:30>     10      0.00000095      0.00000040      0.0
 <Apr18-2019> <14:06:30>  SCF converged
 <Apr18-2019> <14:06:30>     11      0.00000007      0.00000002      0.0
 <Apr18-2019> <14:06:30>  >>>> TOTEN
 <Apr18-2019> <14:06:31>  >>>> POPAN
 <Apr18-2019> <14:06:31>  >>>> DEBYE
 <Apr18-2019> <14:06:31>  >>>> ENGRAD
 <Apr18-2019> <14:06:31>  current energy                               -0.45966065 Hartree
 <Apr18-2019> <14:06:31>  energy change                       0.00002327     0.00010000    T
 <Apr18-2019> <14:06:31>  constrained gradient max            0.02721845     0.00010000    F
 <Apr18-2019> <14:06:31>  constrained gradient rms            0.01569721     0.00006667    F
 <Apr18-2019> <14:06:31>  gradient max                        0.02721845
 <Apr18-2019> <14:06:31>  gradient rms                        0.01569721
 <Apr18-2019> <14:06:31>  cart. step max                      0.15058580     0.01000000    F
 <Apr18-2019> <14:06:31>  cart. step rms                      0.06903244     0.00666667    F
  Coordinates in Geometry Cycle 9
    Atom         X           Y           Z   (Angstrom)
    1.Cl       -3.899280   -0.101284   -0.070758
    2.H        -2.394574    0.498500    0.866207
    3.F        -1.586641    0.740652    1.394779
 <Apr18-2019> <14:06:31>  >>>> CORORT
 <Apr18-2019> <14:06:31>  >>>> CLSMAT
 <Apr18-2019> <14:06:31>  >>>> ORTHON
 <Apr18-2019> <14:06:31>  >>>> GENPT
 <Apr18-2019> <14:06:31>  Block Length= 128
 <Apr18-2019> <14:06:31>  >>>> PTBAS
 <Apr18-2019> <14:06:31>  >>>> CYCLE
 <Apr18-2019> <14:06:31>              |Error|         MaxErr       Wt(A-DIIS)
 <Apr18-2019> <14:06:31>      1      0.16557657      0.07133269
 <Apr18-2019> <14:06:31>      2      0.05903049      0.01619753    100.0
 <Apr18-2019> <14:06:31>      3      0.02578403      0.00550528    100.0
 <Apr18-2019> <14:06:31>      4      0.04926906      0.01369287    100.0
 <Apr18-2019> <14:06:31>      5      0.00559540      0.00124726      0.2
 <Apr18-2019> <14:06:31>      6      0.00080287      0.00022083      0.0
 <Apr18-2019> <14:06:31>      7      0.00025725      0.00006619      0.0
 <Apr18-2019> <14:06:31>      8      0.00004089      0.00001216      0.0
 <Apr18-2019> <14:06:31>      9      0.00000704      0.00000234      0.0
 <Apr18-2019> <14:06:32>     10      0.00000202      0.00000085      0.0
 <Apr18-2019> <14:06:32>  SCF converged
 <Apr18-2019> <14:06:32>     11      0.00000043      0.00000012      0.0
 <Apr18-2019> <14:06:32>  >>>> TOTEN
 <Apr18-2019> <14:06:32>  >>>> POPAN
 <Apr18-2019> <14:06:32>  >>>> DEBYE
 <Apr18-2019> <14:06:32>  >>>> ENGRAD
 <Apr18-2019> <14:06:32>  current energy                               -0.46123566 Hartree
 <Apr18-2019> <14:06:32>  energy change                      -0.00157501     0.00010000    F
 <Apr18-2019> <14:06:32>  constrained gradient max            0.01306095     0.00010000    F
 <Apr18-2019> <14:06:32>  constrained gradient rms            0.00747388     0.00006667    F
 <Apr18-2019> <14:06:32>  gradient max                        0.01306095
 <Apr18-2019> <14:06:32>  gradient rms                        0.00747388
 <Apr18-2019> <14:06:32>  cart. step max                      0.03995677     0.01000000    F
 <Apr18-2019> <14:06:32>  cart. step rms                      0.01830443     0.00666667    F
  Coordinates in Geometry Cycle 10
    Atom         X           Y           Z   (Angstrom)
    1.Cl       -3.891025   -0.061327   -0.077311
    2.H        -2.405091    0.464884    0.869042
    3.F        -1.584379    0.734311    1.398498
 <Apr18-2019> <14:06:32>  >>>> CORORT
 <Apr18-2019> <14:06:32>  >>>> CLSMAT
 <Apr18-2019> <14:06:32>  >>>> ORTHON
 <Apr18-2019> <14:06:32>  >>>> GENPT
 <Apr18-2019> <14:06:32>  Block Length= 128
 <Apr18-2019> <14:06:32>  >>>> PTBAS
 <Apr18-2019> <14:06:32>  >>>> CYCLE
 <Apr18-2019> <14:06:32>              |Error|         MaxErr       Wt(A-DIIS)
 <Apr18-2019> <14:06:32>      1      0.04300162      0.01900943
 <Apr18-2019> <14:06:32>      2      0.01672337      0.00496844    100.0
 <Apr18-2019> <14:06:32>      3      0.03501776      0.01107543    100.0
 <Apr18-2019> <14:06:32>      4      0.00550910      0.00133822      0.3
 <Apr18-2019> <14:06:32>      5      0.00131248      0.00036684      0.0
 <Apr18-2019> <14:06:32>      6      0.00018444      0.00004691      0.0
 <Apr18-2019> <14:06:32>      7      0.00005112      0.00001562      0.0
 <Apr18-2019> <14:06:33>      8      0.00000851      0.00000219      0.0
 <Apr18-2019> <14:06:33>      9      0.00000147      0.00000053      0.0
 <Apr18-2019> <14:06:33>  SCF converged
 <Apr18-2019> <14:06:33>     10      0.00000039      0.00000015      0.0
 <Apr18-2019> <14:06:33>  >>>> TOTEN
 <Apr18-2019> <14:06:33>  >>>> POPAN
 <Apr18-2019> <14:06:33>  >>>> DEBYE
 <Apr18-2019> <14:06:33>  >>>> ENGRAD
 <Apr18-2019> <14:06:33>  current energy                               -0.46142484 Hartree
 <Apr18-2019> <14:06:33>  energy change                      -0.00018918     0.00010000    F
 <Apr18-2019> <14:06:33>  constrained gradient max            0.00332865     0.00010000    F
 <Apr18-2019> <14:06:33>  constrained gradient rms            0.00177527     0.00006667    F
 <Apr18-2019> <14:06:33>  gradient max                        0.00332865
 <Apr18-2019> <14:06:33>  gradient rms                        0.00177527
 <Apr18-2019> <14:06:33>  cart. step max                      0.00317591     0.01000000    T
 <Apr18-2019> <14:06:33>  cart. step rms                      0.00151019     0.00666667    T
  Coordinates in Geometry Cycle 11
    Atom         X           Y           Z   (Angstrom)
    1.Cl       -3.891458   -0.064343   -0.076674
    2.H        -2.404982    0.464724    0.869175
    3.F        -1.584055    0.737487    1.397728
 <Apr18-2019> <14:06:33>  >>>> CORORT
 <Apr18-2019> <14:06:33>  >>>> CLSMAT
 <Apr18-2019> <14:06:33>  >>>> ORTHON
 <Apr18-2019> <14:06:33>  >>>> GENPT
 <Apr18-2019> <14:06:33>  Block Length= 128
 <Apr18-2019> <14:06:33>  >>>> PTBAS
 <Apr18-2019> <14:06:33>  >>>> CYCLE
 <Apr18-2019> <14:06:33>              |Error|         MaxErr       Wt(A-DIIS)
 <Apr18-2019> <14:06:33>      1      0.00255852      0.00098624
 <Apr18-2019> <14:06:33>      2      0.00040380      0.00009473    100.0
 <Apr18-2019> <14:06:33>      3      0.00040936      0.00012631    100.0
 <Apr18-2019> <14:06:33>      4      0.00006440      0.00001775      0.0
 <Apr18-2019> <14:06:33>      5      0.00004031      0.00001348      0.0
 <Apr18-2019> <14:06:34>      6      0.00000761      0.00000198      0.0
 <Apr18-2019> <14:06:34>      7      0.00000213      0.00000064      0.0
 <Apr18-2019> <14:06:34>  SCF converged
 <Apr18-2019> <14:06:34>      8      0.00000026      0.00000007      0.0
 <Apr18-2019> <14:06:34>  >>>> TOTEN
 <Apr18-2019> <14:06:34>  >>>> POPAN
 <Apr18-2019> <14:06:34>  >>>> DEBYE
 <Apr18-2019> <14:06:34>  >>>> ENGRAD
 <Apr18-2019> <14:06:34>  current energy                               -0.46143157 Hartree
 <Apr18-2019> <14:06:34>  energy change                      -0.00000673     0.00010000    T
 <Apr18-2019> <14:06:34>  constrained gradient max            0.00311186     0.00010000    F
 <Apr18-2019> <14:06:34>  constrained gradient rms            0.00170534     0.00006667    F
 <Apr18-2019> <14:06:34>  gradient max                        0.00311186
 <Apr18-2019> <14:06:34>  gradient rms                        0.00170534
 <Apr18-2019> <14:06:34>  cart. step max                      0.01237816     0.01000000    F
 <Apr18-2019> <14:06:34>  cart. step rms                      0.00876948     0.00666667    F
  Coordinates in Geometry Cycle 12
    Atom         X           Y           Z   (Angstrom)
    1.Cl       -3.903649   -0.057244   -0.088079
    2.H        -2.397015    0.452346    0.879097
    3.F        -1.579831    0.742766    1.399211
 <Apr18-2019> <14:06:34>  >>>> CORORT
 <Apr18-2019> <14:06:34>  >>>> CLSMAT
 <Apr18-2019> <14:06:34>  >>>> ORTHON
 <Apr18-2019> <14:06:34>  >>>> GENPT
 <Apr18-2019> <14:06:34>  Block Length= 128
 <Apr18-2019> <14:06:34>  >>>> PTBAS
 <Apr18-2019> <14:06:34>  >>>> CYCLE
 <Apr18-2019> <14:06:34>              |Error|         MaxErr       Wt(A-DIIS)
 <Apr18-2019> <14:06:34>      1      0.02000483      0.00622037
 <Apr18-2019> <14:06:34>      2      0.00675665      0.00207801    100.0
 <Apr18-2019> <14:06:34>      3      0.01468777      0.00462834    100.0
 <Apr18-2019> <14:06:34>      4      0.00288337      0.00082987      0.0
 <Apr18-2019> <14:06:34>      5      0.00049463      0.00012140      0.0
 <Apr18-2019> <14:06:34>      6      0.00003989      0.00001043      0.0
 <Apr18-2019> <14:06:35>      7      0.00001847      0.00000496      0.0
 <Apr18-2019> <14:06:35>      8      0.00000181      0.00000039      0.0
 <Apr18-2019> <14:06:35>  SCF converged
 <Apr18-2019> <14:06:35>      9      0.00000053      0.00000018      0.0
 <Apr18-2019> <14:06:35>  >>>> TOTEN
 <Apr18-2019> <14:06:35>  >>>> POPAN
 <Apr18-2019> <14:06:35>  >>>> DEBYE
 <Apr18-2019> <14:06:35>  >>>> ENGRAD
 <Apr18-2019> <14:06:35>  current energy                               -0.46149139 Hartree
 <Apr18-2019> <14:06:35>  energy change                      -0.00005982     0.00010000    T
 <Apr18-2019> <14:06:35>  constrained gradient max            0.00134658     0.00010000    F
 <Apr18-2019> <14:06:35>  constrained gradient rms            0.00076686     0.00006667    F
 <Apr18-2019> <14:06:35>  gradient max                        0.00134658
 <Apr18-2019> <14:06:35>  gradient rms                        0.00076686
 <Apr18-2019> <14:06:35>  cart. step max                      0.01372901     0.01000000    F
 <Apr18-2019> <14:06:35>  cart. step rms                      0.00582904     0.00666667    T
  Coordinates in Geometry Cycle 13
    Atom         X           Y           Z   (Angstrom)
    1.Cl       -3.906099   -0.070973   -0.085538
    2.H        -2.395067    0.458240    0.878677
    3.F        -1.579329    0.750602    1.397089
 <Apr18-2019> <14:06:35>  >>>> CORORT
 <Apr18-2019> <14:06:35>  >>>> CLSMAT
 <Apr18-2019> <14:06:35>  >>>> ORTHON
 <Apr18-2019> <14:06:35>  >>>> GENPT
 <Apr18-2019> <14:06:35>  Block Length= 128
 <Apr18-2019> <14:06:35>  >>>> PTBAS
 <Apr18-2019> <14:06:35>  >>>> CYCLE
 <Apr18-2019> <14:06:35>              |Error|         MaxErr       Wt(A-DIIS)
 <Apr18-2019> <14:06:35>      1      0.00693684      0.00179588
 <Apr18-2019> <14:06:35>      2      0.00250768      0.00078035    100.0
 <Apr18-2019> <14:06:35>      3      0.00554050      0.00175278    100.0
 <Apr18-2019> <14:06:35>      4      0.00111522      0.00032696      0.0
 <Apr18-2019> <14:06:35>      5      0.00017919      0.00004185      0.0
 <Apr18-2019> <14:06:35>      6      0.00001185      0.00000309      0.0
 <Apr18-2019> <14:06:36>      7      0.00000306      0.00000111      0.0
 <Apr18-2019> <14:06:36>      8      0.00000074      0.00000025      0.0
 <Apr18-2019> <14:06:36>  SCF converged
 <Apr18-2019> <14:06:36>      9      0.00000012      0.00000003      0.0
 <Apr18-2019> <14:06:36>  >>>> TOTEN
 <Apr18-2019> <14:06:36>  >>>> POPAN
 <Apr18-2019> <14:06:36>  >>>> DEBYE
 <Apr18-2019> <14:06:36>  >>>> ENGRAD
 <Apr18-2019> <14:06:36>  current energy                               -0.46150229 Hartree
 <Apr18-2019> <14:06:36>  energy change                      -0.00001089     0.00010000    T
 <Apr18-2019> <14:06:36>  constrained gradient max            0.00057483     0.00010000    F
 <Apr18-2019> <14:06:36>  constrained gradient rms            0.00029651     0.00006667    F
 <Apr18-2019> <14:06:36>  gradient max                        0.00057483
 <Apr18-2019> <14:06:36>  gradient rms                        0.00029651
 <Apr18-2019> <14:06:36>  cart. step max                      0.00301220     0.01000000    T
 <Apr18-2019> <14:06:36>  cart. step rms                      0.00161886     0.00666667    T
  Coordinates in Geometry Cycle 14
    Atom         X           Y           Z   (Angstrom)
    1.Cl       -3.907920   -0.073985   -0.085943
    2.H        -2.393806    0.461739    0.878508
    3.F        -1.578769    0.750115    1.397664
 <Apr18-2019> <14:06:36>  >>>> CORORT
 <Apr18-2019> <14:06:36>  >>>> CLSMAT
 <Apr18-2019> <14:06:36>  >>>> ORTHON
 <Apr18-2019> <14:06:36>  >>>> GENPT
 <Apr18-2019> <14:06:36>  Block Length= 128
 <Apr18-2019> <14:06:36>  >>>> PTBAS
 <Apr18-2019> <14:06:36>  >>>> CYCLE
 <Apr18-2019> <14:06:36>              |Error|         MaxErr       Wt(A-DIIS)
 <Apr18-2019> <14:06:36>      1      0.00447441      0.00146499
 <Apr18-2019> <14:06:36>      2      0.00166821      0.00050211    100.0
 <Apr18-2019> <14:06:36>      3      0.00068561      0.00017912    100.0
 <Apr18-2019> <14:06:36>      4      0.00139828      0.00042624      0.0
 <Apr18-2019> <14:06:36>      5      0.00013087      0.00003137      0.0
 <Apr18-2019> <14:06:36>      6      0.00001162      0.00000216      0.0
 <Apr18-2019> <14:06:37>      7      0.00000399      0.00000105      0.0
 <Apr18-2019> <14:06:37>      8      0.00000072      0.00000019      0.0
 <Apr18-2019> <14:06:37>  SCF converged
 <Apr18-2019> <14:06:37>      9      0.00000013      0.00000004      0.0
 <Apr18-2019> <14:06:37>  >>>> TOTEN
 <Apr18-2019> <14:06:37>  >>>> POPAN
 <Apr18-2019> <14:06:37>  >>>> DEBYE
 <Apr18-2019> <14:06:37>  >>>> ENGRAD
 <Apr18-2019> <14:06:37>  current energy                               -0.46150468 Hartree
 <Apr18-2019> <14:06:37>  energy change                      -0.00000240     0.00010000    T
 <Apr18-2019> <14:06:37>  constrained gradient max            0.00055027     0.00010000    F
 <Apr18-2019> <14:06:37>  constrained gradient rms            0.00029440     0.00006667    F
 <Apr18-2019> <14:06:37>  gradient max                        0.00055027
 <Apr18-2019> <14:06:37>  gradient rms                        0.00029440
 <Apr18-2019> <14:06:37>  cart. step max                      0.00254995     0.01000000    T
 <Apr18-2019> <14:06:37>  cart. step rms                      0.00118232     0.00666667    T
  Coordinates in Geometry Cycle 15
    Atom         X           Y           Z   (Angstrom)
    1.Cl       -3.907774   -0.076535   -0.085203
    2.H        -2.394005    0.462141    0.878263
    3.F        -1.578716    0.752263    1.397169
 <Apr18-2019> <14:06:37>  >>>> CORORT
 <Apr18-2019> <14:06:37>  >>>> CLSMAT
 <Apr18-2019> <14:06:37>  >>>> ORTHON
 <Apr18-2019> <14:06:37>  >>>> GENPT
 <Apr18-2019> <14:06:37>  Block Length= 128
 <Apr18-2019> <14:06:37>  >>>> PTBAS
 <Apr18-2019> <14:06:37>  >>>> CYCLE
 <Apr18-2019> <14:06:37>              |Error|         MaxErr       Wt(A-DIIS)
 <Apr18-2019> <14:06:37>      1      0.00163374      0.00055585
 <Apr18-2019> <14:06:37>      2      0.00035113      0.00007155    100.0
 <Apr18-2019> <14:06:37>      3      0.00053691      0.00014136    100.0
 <Apr18-2019> <14:06:37>      4      0.00009883      0.00002343      0.0
 <Apr18-2019> <14:06:37>      5      0.00003525      0.00001056      0.0
 <Apr18-2019> <14:06:38>      6      0.00000549      0.00000164      0.0
 <Apr18-2019> <14:06:38>      7      0.00000179      0.00000055      0.0
 <Apr18-2019> <14:06:38>  SCF converged
 <Apr18-2019> <14:06:38>      8      0.00000026      0.00000008      0.0
 <Apr18-2019> <14:06:38>  >>>> TOTEN
 <Apr18-2019> <14:06:38>  >>>> POPAN
 <Apr18-2019> <14:06:38>  >>>> DEBYE
 <Apr18-2019> <14:06:38>  >>>> ENGRAD
 <Apr18-2019> <14:06:38>  current energy                               -0.46150486 Hartree
 <Apr18-2019> <14:06:38>  energy change                      -0.00000018     0.00010000    T
 <Apr18-2019> <14:06:38>  constrained gradient max            0.00001875     0.00010000    T
 <Apr18-2019> <14:06:38>  constrained gradient rms            0.00000934     0.00006667    T
 <Apr18-2019> <14:06:38>  gradient max                        0.00001875
 <Apr18-2019> <14:06:38>  gradient rms                        0.00000934
 <Apr18-2019> <14:06:38>  cart. step max                      0.00038502     0.01000000    T
 <Apr18-2019> <14:06:38>  cart. step rms                      0.00019171     0.00666667    T
 <Apr18-2019> <14:06:38>  GEOMETRY CONVERGED
 <Apr18-2019> <14:06:38>  Calculating Energy Terms for Final Geometry
  Coordinates in Geometry Cycle 15
    Atom         X           Y           Z   (Angstrom)
    1.Cl       -3.907774   -0.076535   -0.085203
    2.H        -2.394005    0.462141    0.878263
    3.F        -1.578716    0.752263    1.397169
 <Apr18-2019> <14:06:38>  >>>> CORORT
 <Apr18-2019> <14:06:38>  >>>> CLSMAT
 <Apr18-2019> <14:06:38>  >>>> ORTHON
 <Apr18-2019> <14:06:38>  >>>> GENPT
 <Apr18-2019> <14:06:38>  Block Length= 128
 <Apr18-2019> <14:06:38>  >>>> PTBAS
 <Apr18-2019> <14:06:38>  >>>> CYCLE
 <Apr18-2019> <14:06:38>              |Error|         MaxErr       Wt(A-DIIS)
 <Apr18-2019> <14:06:38>      1      0.00000002      0.00000001
 <Apr18-2019> <14:06:38>      2      0.00000004      0.00000001    100.0
 <Apr18-2019> <14:06:38>  SCF converged
 <Apr18-2019> <14:06:38>      3      0.00000007      0.00000002    100.0
 <Apr18-2019> <14:06:38>  >>>> TOTEN
 <Apr18-2019> <14:06:38>  >>>> POPAN
 <Apr18-2019> <14:06:38>  >>>> DEBYE
 <Apr18-2019> <14:06:39>  >>>> AMETS
 <Apr18-2019> <14:06:39>  >>>> POPUL
 <Apr18-2019> <14:06:39>   Bond Energy          -0.46150486 a.u.
 <Apr18-2019> <14:06:39>   Bond Energy         -12.55818628 eV
 <Apr18-2019> <14:06:39>   Bond Energy        -289.60       kcal/mol
 <Apr18-2019> <14:06:39>  >>>> ENHESS
 <Apr18-2019> <14:06:39>  === NUCLEUS:     1
 <Apr18-2019> <14:06:40>  === NUCLEUS:     2
 <Apr18-2019> <14:06:42>  === NUCLEUS:     3
 <Apr18-2019> <14:06:43>  >>>> CALC_HESS_PMAT
 <Apr18-2019> <14:06:43>  >>>> CALC_HESS_WMAT
 <Apr18-2019> <14:06:43>  NORMAL TERMINATION
 <Apr18-2019> <14:06:43>  END
