

 Parallel Execution: Process Information
 ==============================================================================
 Rank   Node Name                              NodeID   MyNodeRank  NodeMaster
    0   BAZIS-cn025                               0          0          0
    1   BAZIS-cn025                               0          1         -1
    2   BAZIS-cn025                               0          2         -1
    3   BAZIS-cn025                               0          3         -1
    4   BAZIS-cn025                               0          4         -1
    5   BAZIS-cn025                               0          5         -1
    6   BAZIS-cn025                               0          6         -1
    7   BAZIS-cn025                               0          7         -1
    8   BAZIS-cn025                               0          8         -1
    9   BAZIS-cn025                               0          9         -1
   10   BAZIS-cn025                               0         10         -1
   11   BAZIS-cn025                               0         11         -1
 ==============================================================================


May use up to 30771MB of RAM as shared memory on node 0


XC
    GGA BP86
END

SCF
    iterations 250
END

EPRINT
    SFO Eig Ovl
END

ZLMFIT
    Quality normal
END

BECKEGRID
    Quality good
End

SYMMETRY nosym
CHARGE -1

ATOMS
1.Cl       -4.986400    3.223898   -0.065687 f=ClCl
2.Cl       -3.930844    1.122090    0.259518 f=ClCl
3.F        -5.858137    4.952930   -0.331032 f=F
END

Fragments
ClCl /home/tcst25/advanced_comp_chemistry/exercise2/halogen/ClClF/frag1_ClCl.t21
F /home/tcst25/advanced_comp_chemistry/exercise2/halogen/ClClF/frag2_F.t21
End
end input

 *******************************************************************************
 *                                                                             *
 *  -------------------------------------                                      *
 *   Amsterdam Density Functional  (ADF)         2017                          *
 *  -------------------------------------                                      *
 *                                               r58813 2017-04-12             *
 *                                                                             *
 *                                                                             *
 *                              =================                              *
 *                              |               |                              *
 *                              |     A D F     |                              *
 *                              |               |                              *
 *                              =================                              *
 *                                                                             *
 *                                                                             *
 *   Online information and documentation:  https://www.scm.com/support/       *
 *   E-mail:  support@scm.com   info@scm.com                                   *
 *                                                                             *
 *   Scientific publications using ADF results must be properly referenced     *
 *   See the User Manuals (or the web site) for recommended citations          *
 *   The terms and conditions of the End User License Agreement apply to       *
 *   the use of ADF, https://www.scm.com/license-terms/                        *
 *                                                                             *
 **********************  x86_64_linux_intel / intelmpi  ************************
 
 Licensed to: VU/FEW (+ SARA) / ALGEMEEN / Amsterdam / THE NETHERLANDS
 SCM User ID: u7668
  
 ADF 2017  RunTime: May09-2019 17:12:05  Nodes: 1  Procs: 12

 Temporary files are created in /local/datastore0/tcst25/189779/kid_0.iyJWiH


Communication costs MPI_COMM_WORLD:      3.867 usec per message,   0.0183 usec per 8-byte item
Communication costs for intra-node:      3.862 usec per message,   0.0175 usec per 8-byte item

 *** (NO TITLE) ***



 ===========================
 A T T A C H E D   F I L E S
 ===========================
  



 ===============================
 M O D E L   P A R A M E T E R S
 ===============================
  
 DENSITY FUNCTIONAL POTENTIAL (scf)
    LDA:                               VWN                                      
    Gradient Corrections:              Becke88 Perdew86                        == Not Default ==

 SPIN  (restricted / unrestr.)
    Molecule:                          Restricted                               
    Fragments:                         Restricted                               

 OTHER ASPECTS
    Relativistic Corrections:          ---                                      

    Nuclear Charge Density Model:      Point Charge Nuclei                      
    Core Treatment:                    Frozen Orbital(s)                        

    Hyperfine or Zeeman Interaction:   ---                                      


 Fragment File(s)
 ----------------
 ClCl:
         file : /home/tcst25/advanced_comp_chemistry/exercise2/halogen/ClClF/frag1_ClCl.t21
         jobid: ADF 2017  RunTime: May09-2019 16:32:23  Nodes: 1  Procs: 12
         title: *** (NO TITLE) ***
 F:
         file : /home/tcst25/advanced_comp_chemistry/exercise2/halogen/ClClF/frag2_F.t21
         jobid: ADF 2017  RunTime: May09-2019 16:32:25  Nodes: 1  Procs: 12
         title: *** (NO TITLE) ***



                                        ************************************
                                        *  R U N   T Y P E : SINGLE POINT  *
                                        ************************************
  



 ===============
 G E O M E T R Y  ***  Planar Molecule  ***
 ===============
  

 ATOMS
 =====                            X Y Z                    CHARGE
                                (Angstrom)             Nucl     +Core       At.Mass
                       --------------------------    ----------------       -------
    1  Cl             -4.9864    3.2239   -0.0657     17.00     17.00       34.9689
    2  Cl             -3.9308    1.1221    0.2595     17.00     17.00       34.9689
    3  F              -5.8581    4.9529   -0.3310      9.00      9.00       18.9984


 FRAGMENTS
 =========                                     Atoms in this Fragment     Cart. coord.s (Angstrom)
                                               -------------------------------------------------------
    1  ClCl                                              1  Cl          -4.9864    3.2239   -0.0657
                                                         2  Cl          -3.9308    1.1221    0.2595
    2  F                                                 3  F           -5.8581    4.9529   -0.3310


 Interatomic Distance Matrix (Angstrom)
 --------------------------------------

   1)     0.000
   2)     2.374   0.000
   3)     1.954   4.329   0.000

 Min. Distance =    1.9545
 Max. Distance =    4.3288



 =====================================
 S Y M M E T R Y ,   E L E C T R O N S
 =====================================
  
 Symmetry: NOSYM

 Irreducible Representations, including subspecies
 -------------------------------------------------
 A


 Configuration of Valence Electrons
 ==================================
 ( determined in the SCF procedure )

 Total:   44

 Net Charge: -1 (Nuclei minus Electrons)

 Aufbau principle for MO occupations will be applied through SCF cycle no.     125
 Thereafter, the program will assign electrons to MOs that are spatially
 similar to the occupied MOs in a "reference" cycle ("KeepOrbitals").
 The reference cycle is always the PREVIOUS cycle: it will evolve with
 the SCF procedure.
1
 ***************************************************************************************************



                                      ****************************************
                                      *  B U I L D : (Fragments, Functions)  *
                                      ****************************************
  

 The individual fragments are copies of the corresponding 'Master' fragments defined on the fragment files.
 However, they may have been rotated (and translated) with respect to the Master. The local coordinate axes
 of each fragment (which define for instance the spatial orientation in the current molecule of a fragment
 P:x orbital) are not necessarily those of the molecule.
 The local frame (if different from the molecular one) is printed to enable an interpretation of the expan-
 sion of an MO in Fragment Orbitals.



                                             **************************
                                             *  Fragment Type : ClCl  *
                                             **************************
  

 Fragment no.    1   (in the list of all fragments)
 -----------------
 The local coordinate frame is identical to the molecular frame.

 Check Atomic Coordinates:

                  Master (on file)          After Computed Tranformation               As specified on Input
           ----------------------------     ----------------------------     ---------------------------------
     1)    -4.98640   3.22390  -0.06569     -4.98640   3.22390  -0.06569       1  -4.98640   3.22390  -0.06569
     2)    -3.93084   1.12209   0.25952     -3.93084   1.12209   0.25952       2  -3.93084   1.12209   0.25952



                                              ***********************
                                              *  Fragment Type : F  *
                                              ***********************
  

 Fragment no.    2   (in the list of all fragments)
 -----------------
 The local coordinate frame is identical to the molecular frame.

 Check Atomic Coordinates:

                  Master (on file)          After Computed Tranformation               As specified on Input
           ----------------------------     ----------------------------     ---------------------------------
     1)    -5.85814   4.95293  -0.33103     -5.85814   4.95293  -0.33103       3  -5.85814   4.95293  -0.33103



 =======
 S F O s  ***  (Symmetrized Fragment Orbitals)  ***
 =======
  
 SFOs are linear combinations of (valence) Fragment Orbitals (FOs), such that the SFOs transform as the
 irreducible representations of the (molecular) symmetry group. Each SFO is therefore characterized by
 an irrep of the molecule and by a few (or only one) generating FOs.
 The SFOs constitute a symmetry-adapted basis for the Fock matrix. The MO eigenvector coefficients in
 this basis provide a direct interpretation of the MOs in terms of Frontier Orbital Theory.

 The SFOs are combined with auxiliary Core Functions (CFs) to ensure orthogonalization on the (frozen)
 Core Orbitals (COs). The Core-orthogonalized SFOs (CSFOs) constitute the true Fock basis.

 The FOs, and hence also the (C)SFOs are combinations of the elementary basis functions (BAS). The basis
 functions that participate in the description of the SFOs depend on the irrep. The indices of the
 involved functions are printed below for each irrep.
 (The complete list of primitive basis functions is printed in another section)

 Total nr. of (C)SFOs (summation over all irreps) :    94

 NOTE: a (C)SFO that is defined as a combination of more than one FO is usually NOT normalized.



                                       === A ===
 Nr. of SFOs :   94
 Cartesian basis functions that participate in this irrep (total number =   106) :
      1     2     3     4    11    12    13     5     8    14
     17    20     6     9    15    18    21     7    10    16
     19    22    23    24    25    26    27    28    29    30
     31    32    33    34    35    36    37    38    39    40
     41    42    49    50    51    43    46    52    55    58
     44    47    53    56    59    45    48    54    57    60
     61    62    63    64    65    66    67    68    69    70
     71    72    73    74    75    76    77    78    79    80
     81    82    85    88    83    86    89    84    87    90
     91    92    93    94    95    96    97    98    99   100
    101   102   103   104   105   106

    SFO  (index         Fragment          Generating    Expansion in Fragment Orbitals
  indx  incl.CFs)   Occup   Orb.Energy   FragmentType  Coeff.   Orbital     on Fragment
 --------------------------------------------------------------------------------------
     1       1      2.000    -100.780 au  ClCl          1.00      1 A               1
                        (   -2742.373 eV)
     2       2      2.000    -100.780 au  ClCl          1.00      2 A               1
                        (   -2742.373 eV)
     3       3      2.000      -9.230 au  ClCl          1.00      3 A               1
                        (    -251.162 eV)
     4       4      2.000      -9.230 au  ClCl          1.00      4 A               1
                        (    -251.162 eV)
     5       5      2.000      -7.064 au  ClCl          1.00      5 A               1
                        (    -192.224 eV)
     6       6      2.000      -7.064 au  ClCl          1.00      6 A               1
                        (    -192.224 eV)
     7       7      2.000      -7.046 au  ClCl          1.00      7 A               1
                        (    -191.742 eV)
     8       8      2.000      -7.046 au  ClCl          1.00      8 A               1
                        (    -191.742 eV)
     9       9      2.000      -7.046 au  ClCl          1.00      9 A               1
                        (    -191.742 eV)
    10      10      2.000      -7.046 au  ClCl          1.00     10 A               1
                        (    -191.741 eV)
    11      11      2.000      -0.795 au  ClCl          1.00     11 A               1
                        (     -21.634 eV)
    12      12      2.000      -0.730 au  ClCl          1.00     12 A               1
                        (     -19.858 eV)
    13      13      2.000      -0.404 au  ClCl          1.00     13 A               1
                        (     -11.001 eV)
    14      14      2.000      -0.333 au  ClCl          1.00     14 A               1
                        (      -9.073 eV)
    15      15      2.000      -0.333 au  ClCl          1.00     15 A               1
                        (      -9.073 eV)
    16      16      2.000      -0.288 au  ClCl          1.00     16 A               1
                        (      -7.826 eV)
    17      17      2.000      -0.288 au  ClCl          1.00     17 A               1
                        (      -7.826 eV)
    18      18       --        -0.241 au  ClCl          1.00     18 A               1
                        (      -6.565 eV)
    19      19       --         0.176 au  ClCl          1.00     19 A               1
                        (       4.784 eV)
    20      20       --         0.181 au  ClCl          1.00     20 A               1
                        (       4.923 eV)
    21      21       --         0.206 au  ClCl          1.00     21 A               1
                        (       5.601 eV)
    22      22       --         0.206 au  ClCl          1.00     22 A               1
                        (       5.601 eV)
    23      23       --         0.214 au  ClCl          1.00     23 A               1
                        (       5.826 eV)
    24      24       --         0.263 au  ClCl          1.00     24 A               1
                        (       7.163 eV)
    25      25       --         0.263 au  ClCl          1.00     25 A               1
                        (       7.163 eV)
    26      26       --         0.300 au  ClCl          1.00     26 A               1
                        (       8.159 eV)
    27      27       --         0.300 au  ClCl          1.00     27 A               1
                        (       8.159 eV)
    28      28       --         0.344 au  ClCl          1.00     28 A               1
                        (       9.361 eV)
    29      29       --         0.371 au  ClCl          1.00     29 A               1
                        (      10.085 eV)
    30      30       --         0.371 au  ClCl          1.00     30 A               1
                        (      10.085 eV)
    31      31       --         0.399 au  ClCl          1.00     31 A               1
                        (      10.858 eV)
    32      32       --         0.410 au  ClCl          1.00     32 A               1
                        (      11.147 eV)
    33      33       --         0.410 au  ClCl          1.00     33 A               1
                        (      11.147 eV)
    34      34       --         0.494 au  ClCl          1.00     34 A               1
                        (      13.439 eV)
    35      35       --         0.494 au  ClCl          1.00     35 A               1
                        (      13.439 eV)
    36      36       --         0.762 au  ClCl          1.00     36 A               1
                        (      20.743 eV)
    37      37       --         1.061 au  ClCl          1.00     37 A               1
                        (      28.872 eV)
    38      38       --         1.061 au  ClCl          1.00     38 A               1
                        (      28.872 eV)
    39      39       --         1.120 au  ClCl          1.00     39 A               1
                        (      30.487 eV)
    40      40       --         1.120 au  ClCl          1.00     40 A               1
                        (      30.487 eV)
    41      41       --         1.157 au  ClCl          1.00     41 A               1
                        (      31.479 eV)
    42      42       --         1.157 au  ClCl          1.00     42 A               1
                        (      31.479 eV)
    43      43       --         1.212 au  ClCl          1.00     43 A               1
                        (      32.987 eV)
    44      44       --         1.240 au  ClCl          1.00     44 A               1
                        (      33.730 eV)
    45      45       --         1.240 au  ClCl          1.00     45 A               1
                        (      33.730 eV)
    46      46       --         1.367 au  ClCl          1.00     46 A               1
                        (      37.188 eV)
    47      47       --         1.367 au  ClCl          1.00     47 A               1
                        (      37.188 eV)
    48      48       --         1.384 au  ClCl          1.00     48 A               1
                        (      37.664 eV)
    49      49       --         1.440 au  ClCl          1.00     49 A               1
                        (      39.174 eV)
    50      50       --         1.440 au  ClCl          1.00     50 A               1
                        (      39.174 eV)
    51      51       --         1.994 au  ClCl          1.00     51 A               1
                        (      54.255 eV)
    52      52       --         2.073 au  ClCl          1.00     52 A               1
                        (      56.410 eV)
    53      53       --         2.076 au  ClCl          1.00     53 A               1
                        (      56.488 eV)
    54      54       --         2.076 au  ClCl          1.00     54 A               1
                        (      56.489 eV)
    55      55       --         2.134 au  ClCl          1.00     55 A               1
                        (      58.070 eV)
    56      56       --         2.224 au  ClCl          1.00     56 A               1
                        (      60.509 eV)
    57      57       --         2.224 au  ClCl          1.00     57 A               1
                        (      60.509 eV)
    58      58       --         2.725 au  ClCl          1.00     58 A               1
                        (      74.144 eV)
    59      59       --        12.686 au  ClCl          1.00     59 A               1
                        (     345.191 eV)
    60      60       --        13.475 au  ClCl          1.00     60 A               1
                        (     366.674 eV)
    61      61       --        18.740 au  ClCl          1.00     61 A               1
                        (     509.938 eV)
    62      62       --        18.740 au  ClCl          1.00     62 A               1
                        (     509.938 eV)
    63      63       --        18.829 au  ClCl          1.00     63 A               1
                        (     512.353 eV)
    64      64       --        19.058 au  ClCl          1.00     64 A               1
                        (     518.605 eV)
    65      65       --        19.058 au  ClCl          1.00     65 A               1
                        (     518.606 eV)
    66      66       --        19.542 au  ClCl          1.00     66 A               1
                        (     531.774 eV)
    67      67       --       214.519 au  ClCl          1.00     67 A               1
                        (    5837.359 eV)
    68      68       --       217.654 au  ClCl          1.00     68 A               1
                        (    5922.656 eV)
    69      69      2.000     -23.791 au  F             1.00      1 A               2
                        (    -647.398 eV)
    70      70      2.000      -0.555 au  F             1.00      2 A               2
                        (     -15.093 eV)
    71      71      2.000       0.108 au  F             1.00      3 A               2
                        (       2.944 eV)
    72      72      2.000       0.108 au  F             1.00      4 A               2
                        (       2.944 eV)
    73      73      2.000       0.108 au  F             1.00      5 A               2
                        (       2.944 eV)
    74      74       --         0.286 au  F             1.00      6 A               2
                        (       7.773 eV)
    75      75       --         0.812 au  F             1.00      7 A               2
                        (      22.092 eV)
    76      76       --         0.812 au  F             1.00      8 A               2
                        (      22.092 eV)
    77      77       --         0.812 au  F             1.00      9 A               2
                        (      22.092 eV)
    78      78       --         1.566 au  F             1.00     10 A               2
                        (      42.603 eV)
    79      79       --         1.566 au  F             1.00     11 A               2
                        (      42.603 eV)
    80      80       --         1.566 au  F             1.00     12 A               2
                        (      42.603 eV)
    81      81       --         1.566 au  F             1.00     13 A               2
                        (      42.603 eV)
    82      82       --         1.566 au  F             1.00     14 A               2
                        (      42.603 eV)
    83      83       --         2.040 au  F             1.00     15 A               2
                        (      55.515 eV)
    84      84       --         3.896 au  F             1.00     16 A               2
                        (     106.020 eV)
    85      85       --         3.896 au  F             1.00     17 A               2
                        (     106.020 eV)
    86      86       --         3.896 au  F             1.00     18 A               2
                        (     106.020 eV)
    87      87       --         3.896 au  F             1.00     19 A               2
                        (     106.020 eV)
    88      88       --         3.896 au  F             1.00     20 A               2
                        (     106.020 eV)
    89      89       --         3.896 au  F             1.00     21 A               2
                        (     106.020 eV)
    90      90       --         3.896 au  F             1.00     22 A               2
                        (     106.020 eV)
    91      91       --         5.088 au  F             1.00     23 A               2
                        (     138.458 eV)
    92      92       --         5.088 au  F             1.00     24 A               2
                        (     138.458 eV)
    93      93       --         5.088 au  F             1.00     25 A               2
                        (     138.458 eV)
    94      94       --        48.938 au  F             1.00     26 A               2
                        (    1331.672 eV)



 ================================
 (Slater-type)  F U N C T I O N S  ***  (Basis and Fit)  ***
 ================================
  

 Atom Type    1  (Cl)
 ==============

 Valence Basis Sets:  14
 -----------------------
   1 S   20.300000
   1 S   15.250000
   2 S    6.250000
   2 S    4.450000
   2 P    8.850000
   2 P    5.050000
   3 S    3.450000
   3 S    2.300000
   3 S    1.600000
   3 P    3.350000
   3 P    2.050000
   3 P    1.200000
   3 D    2.000000
   4 F    2.000000

 Atom Type    2  (F)
 ==============

 Valence Basis Sets:  10
 -----------------------
   1 S   10.880000
   1 S    7.700000
   2 S    3.240000
   2 S    1.940000
   2 S    0.740000
   2 P    4.540000
   2 P    2.300000
   2 P    1.240000
   3 D    2.000000
   4 F    3.000000


 BAS: List of all Elementary Cartesian Basis Functions
 =====================================================

 The numbering in the list below (to the right of the function characteristics) is referred
 to in print-outs of MO eigenvectors and Mulliken populations in the BAS representation
 (as contrasted to the SFO representation).

 Notes:
 1. The functions are characterized by a polynomial prefactor (powers of x,y,z and r) and
    an exponential decay factor alpha.
 2. Since the basis sets are specific for an atom TYPE, the individual functions occur on
    all atoms of that type.
 3. The word 'Core' in the left margin signals that it is a Core Function (CF) : not a
    degree of freedom in the valence set, but only used to ensure orthogonalization of
    the other valence basis functions on the frozen Core Orbitals.


 (power of) X  Y  Z  R     Alpha  on Atom
            ==========     =====     ==========

 Cl                                   1    2
                                  ---------------------------------------------------------------------------
            0  0  0  0    20.300      1   39
            0  0  0  0    15.250      2   40
            0  0  0  1     6.250      3   41
            0  0  0  1     4.450      4   42
            1  0  0  0     8.850      5   43
            0  1  0  0     8.850      6   44
            0  0  1  0     8.850      7   45
            1  0  0  0     5.050      8   46
            0  1  0  0     5.050      9   47
            0  0  1  0     5.050     10   48
            0  0  0  2     3.450     11   49
            0  0  0  2     2.300     12   50
            0  0  0  2     1.600     13   51
            1  0  0  1     3.350     14   52
            0  1  0  1     3.350     15   53
            0  0  1  1     3.350     16   54
            1  0  0  1     2.050     17   55
            0  1  0  1     2.050     18   56
            0  0  1  1     2.050     19   57
            1  0  0  1     1.200     20   58
            0  1  0  1     1.200     21   59
            0  0  1  1     1.200     22   60
            2  0  0  0     2.000     23   61
            1  1  0  0     2.000     24   62
            1  0  1  0     2.000     25   63
            0  2  0  0     2.000     26   64
            0  1  1  0     2.000     27   65
            0  0  2  0     2.000     28   66
            3  0  0  0     2.000     29   67
            2  1  0  0     2.000     30   68
            2  0  1  0     2.000     31   69
            1  2  0  0     2.000     32   70
            1  1  1  0     2.000     33   71
            1  0  2  0     2.000     34   72
            0  3  0  0     2.000     35   73
            0  2  1  0     2.000     36   74
            0  1  2  0     2.000     37   75
            0  0  3  0     2.000     38   76

 F                                    3
                                  ---------------------------------------------------------------------------
            0  0  0  0    10.880     77
            0  0  0  0     7.700     78
            0  0  0  1     3.240     79
            0  0  0  1     1.940     80
            0  0  0  1     0.740     81
            1  0  0  0     4.540     82
            0  1  0  0     4.540     83
            0  0  1  0     4.540     84
            1  0  0  0     2.300     85
            0  1  0  0     2.300     86
            0  0  1  0     2.300     87
            1  0  0  0     1.240     88
            0  1  0  0     1.240     89
            0  0  1  0     1.240     90
            2  0  0  0     2.000     91
            1  1  0  0     2.000     92
            1  0  1  0     2.000     93
            0  2  0  0     2.000     94
            0  1  1  0     2.000     95
            0  0  2  0     2.000     96
            3  0  0  0     3.000     97
            2  1  0  0     3.000     98
            2  0  1  0     3.000     99
            1  2  0  0     3.000    100
            1  1  1  0     3.000    101
            1  0  2  0     3.000    102
            0  3  0  0     3.000    103
            0  2  1  0     3.000    104
            0  1  2  0     3.000    105
            0  0  3  0     3.000    106

 Total number of charge fitting functions (nprimf)       297
 Total number of Cartesian basis functions (naos)        106
 Total number of Cartesian core functions  (ncos)          0

1
 ***************************************************************************************************



                                              ***********************
                                              *  T E C H N I C A L  *
                                              ***********************
  



 =============================================================
 P A R A L L E L I Z A T I O N  and  V E C T O R I Z A T I O N
 =============================================================
  
 Nr of parallel processes:                               12
 Maximum vector length in NumInt loops:                 128

 IO buffersize (Mb):                                     64.000000



 =====================
 S C F   U P D A T E S
 =====================
  
 Max. nr. of cycles:                               250
 Convergence criterion:                              0.0000010000
   secondary criterion:                              0.0010000000

 Mix parameter (when DIIS does not apply):           0.2000000000
 Mixed ADIIS+DIIS will be used
    Max number of expansion vectors:                10
    Pure ADIIS when Max([F,P]) is above              0.1000000000
    Pure DIIS when Max([F,P]) is below               0.0010000000
 Automatic ElectronSmearing (in case of problematic SCF convergence) disabled



 =================
 P R E C I S I O N  ***  (General: NumInt, NeglectFunctionTails, ...)  ***
 =================
  

 NumInt:           Target precision:                 6.0000000000
 -------           Initial precision:                6.0000000000
                   Min. precision (optimization):    6.0000000000

 Neglect Functions:          Basis functions:        0.1000000000E-07
 ------------------          Fit functions:          0.1000000000E-07



 ===========================
 L I N E A R   S C A L I N G
 ===========================
  

 Cut-off radii density fit:                        0.1000000000E-09
 Overlap cut-off criterion AO matrix elements:     0.1000000000E-07
 Cut-offs for Coulomb potential and fitted density:0.1000000000E-09
 Cut-off criterion for Coulomb multipole terms:    0.1000000000E-09
 Progressive Convergence parameter:                 0.000000000    
1
 ***************************************************************************************************



                                            ***************************
                                            *  C O M P U T A T I O N  *
                                            ***************************
  

 Number of elements of the density matrix on this node (used, total):       741      5671



 ===========================================
 Numerical Integration : Fuzzy Cells (Becke)
 ===========================================
  
 Becke grid quality: GOOD           
  
 Lebedev angular grid order:             min:  11 max:  31
 Nr. of radial points:                   min:  65 max:  80

 Total nr. of points:      48618
 Nr. of blocks:              380
 Block length:               128
 Nr. of dummy points:         22


 Test of Precision of the Numerical Integration Grid
 ===================================================

 Integral of the Total Core Density:                   0.00000000000000



 ========================
 Density Fitting (zlmFit)
 ========================
  
 ZlmFit Fit Quality: NORMAL         
  
 Max L-expansion:                        min:   7 max:   7
 Nr. of radial interpolation points:     min:  51 max:  60



 =====
 S C F  ***  ScaSCF  ***
 =====
  
 Initial density matrix is calculated as sum of fragments

 CYCLE    1
 SCF Error: norm([F,P])=      1.259081529375, max([F,P])=      0.509535577088
 orbitals (Q,E):
 ---------------
 A :13...32          ( 2.00    -0.6251)  ( 2.00    -0.5095)  ( 2.00    -0.2428)  ( 2.00    -0.2062)
                     ( 2.00    -0.2062)  ( 2.00    -0.0780)  ( 2.00    -0.0779)  ( 2.00    -0.0623)
                     ( 2.00     0.0686)  ( 2.00     0.0686)  ( 0.00     0.1295)  ( 0.00     0.2529)
                     ( 0.00     0.3032)  ( 0.00     0.3452)  ( 0.00     0.3453)  ( 0.00     0.3571)
                     ( 0.00     0.4225)  ( 0.00     0.4225)  ( 0.00     0.4954)  ( 0.00     0.4954)

 CYCLE    2
  SDIIS (wt  0.000):  0.5935  0.4065
 A-DIIS (wt  1.000):  0.9099  0.0901
  DIIS coefficients:  0.9099  0.0901
 SCF Error: norm([F,P])=      1.543985492287, max([F,P])=      0.586142729791
 orbitals (Q,E):
 ---------------
 A :13...23          ( 2.00    -0.6193)  ( 2.00    -0.5032)  ( 2.00    -0.2172)  ( 2.00    -0.1698)
                     ( 2.00    -0.1698)  ( 2.00    -0.0831)  ( 2.00    -0.0785)  ( 2.00    -0.0785)
                     ( 2.00    -0.0002)  ( 2.00    -0.0001)  ( 0.00     0.0879)

 CYCLE    3
  SDIIS (wt  0.000):  0.1442 -0.7406  1.5964
 A-DIIS (wt  1.000):  0.8420  0.0000  0.1580
  DIIS coefficients:  0.8420  0.0000  0.1580
 SCF Error: norm([F,P])=      0.840615673742, max([F,P])=      0.348883975835
 orbitals (Q,E):
 ---------------
 A :13...23          ( 2.00    -0.6076)  ( 2.00    -0.5094)  ( 2.00    -0.2128)  ( 2.00    -0.1588)
                     ( 2.00    -0.1588)  ( 2.00    -0.0864)  ( 2.00    -0.0859)  ( 2.00    -0.0859)
                     ( 2.00    -0.0084)  ( 2.00    -0.0084)  ( 0.00     0.0802)

 CYCLE    4
  SDIIS (wt  0.000): -0.7862 -1.2138  3.0000
 A-DIIS (wt  1.000):  0.0000  0.0000  1.0000
  DIIS coefficients:  0.0000  0.0000  1.0000
 SCF Error: norm([F,P])=      0.789439759934, max([F,P])=      0.342567954387
 orbitals (Q,E):
 ---------------
 A :13...23          ( 2.00    -0.6154)  ( 2.00    -0.4719)  ( 2.00    -0.4718)  ( 2.00    -0.4704)
                     ( 2.00    -0.3150)  ( 2.00    -0.1151)  ( 2.00    -0.1151)  ( 2.00    -0.0887)
                     ( 2.00     0.0911)  ( 2.00     0.0911)  ( 0.00     0.1216)

 CYCLE    5
  SDIIS (wt  0.000): -0.5365 -1.5597  3.0000  0.0962
 A-DIIS (wt  1.000):  0.0000  0.0000  0.7921  0.2079
  DIIS coefficients:  0.0000  0.0000  0.7921  0.2079
 SCF Error: norm([F,P])=      2.267418374196, max([F,P])=      0.670115964438
 orbitals (Q,E):
 ---------------
 A :13...23          ( 2.00    -0.5251)  ( 2.00    -0.4606)  ( 2.00    -0.2656)  ( 2.00    -0.2201)
                     ( 2.00    -0.2201)  ( 2.00    -0.0898)  ( 2.00    -0.0756)  ( 2.00    -0.0756)
                     ( 2.00    -0.0267)  ( 2.00    -0.0267)  ( 0.00     0.0705)

 CYCLE    6
  SDIIS (wt  0.000): -0.1165 -2.0000  2.6740 -0.0654  0.5079
 A-DIIS (wt  1.000):  0.0000  0.0000  0.4589  0.0000  0.5411
  DIIS coefficients:  0.0000  0.0000  0.4589  0.0000  0.5411
 SCF Error: norm([F,P])=      0.797548202220, max([F,P])=      0.258635628509
 orbitals (Q,E):
 ---------------
 A :13...23          ( 2.00    -0.5815)  ( 2.00    -0.4931)  ( 2.00    -0.2221)  ( 2.00    -0.1484)
                     ( 2.00    -0.1484)  ( 2.00    -0.0874)  ( 2.00    -0.0874)  ( 2.00    -0.0860)
                     ( 2.00    -0.0552)  ( 2.00    -0.0552)  ( 0.00     0.0448)

 CYCLE    7
  SDIIS (wt  0.073): -0.1670  0.2272  0.1851 -0.0460  0.2993  0.5014
 A-DIIS (wt  0.927):  0.0000  0.0000  0.0000  0.0000  0.0594  0.9406
  DIIS coefficients: -0.0122  0.0166  0.0135 -0.0033  0.0769  0.9086
 SCF Error: norm([F,P])=      0.295755982972, max([F,P])=      0.092788042866
 orbitals (Q,E):
 ---------------
 A :13...23          ( 2.00    -0.5738)  ( 2.00    -0.4847)  ( 2.00    -0.2145)  ( 2.00    -0.1378)
                     ( 2.00    -0.1378)  ( 2.00    -0.1224)  ( 2.00    -0.1224)  ( 2.00    -0.1196)
                     ( 2.00    -0.0389)  ( 2.00    -0.0389)  ( 0.00     0.0631)

 CYCLE    8
  SDIIS (wt  0.000): -0.0384 -0.1951  0.3137 -0.0079  0.1016  0.5647  0.2614
 A-DIIS (wt  1.000):  0.0000  0.0000  0.0000  0.0000  0.0000  0.7220  0.2780
  DIIS coefficients:  0.0000  0.0000  0.0000  0.0000  0.0000  0.7220  0.2780
 SCF Error: norm([F,P])=      0.518952396579, max([F,P])=      0.171007127239
 orbitals (Q,E):
 ---------------
 A :13...23          ( 2.00    -0.5613)  ( 2.00    -0.4984)  ( 2.00    -0.2204)  ( 2.00    -0.1433)
                     ( 2.00    -0.1433)  ( 2.00    -0.1029)  ( 2.00    -0.1011)  ( 2.00    -0.1011)
                     ( 2.00    -0.0570)  ( 2.00    -0.0570)  ( 0.00     0.0493)

 CYCLE    9
  SDIIS (wt  0.374): -0.0135 -0.1449  0.2186 -0.0071  0.0077  0.3679  0.0690  0.5025
 A-DIIS (wt  0.626):  0.0000  0.0000  0.0000  0.0000  0.0000  0.3133  0.0000  0.6867
  DIIS coefficients: -0.0051 -0.0542  0.0817 -0.0027  0.0029  0.3337  0.0258  0.6179
 SCF Error: norm([F,P])=      0.194116915511, max([F,P])=      0.063009660676
 orbitals (Q,E):
 ---------------
 A :13...23          ( 2.00    -0.5697)  ( 2.00    -0.5044)  ( 2.00    -0.2135)  ( 2.00    -0.1342)
                     ( 2.00    -0.1342)  ( 2.00    -0.0943)  ( 2.00    -0.0943)  ( 2.00    -0.0942)
                     ( 2.00    -0.0556)  ( 2.00    -0.0556)  ( 0.00     0.0509)

 CYCLE   10
  SDIIS (wt  0.374): -0.0038  0.1053 -0.1190 -0.0003 -0.0094  0.1654 -0.0520  0.5760  0.3378
 A-DIIS (wt  0.626):  0.0000  0.0000  0.0000  0.0000  0.0000  0.0982  0.0000  0.5210  0.3808
  DIIS coefficients: -0.0014  0.0394 -0.0445 -0.0001 -0.0035  0.1233 -0.0194  0.5415  0.3647
 SCF Error: norm([F,P])=      0.189754431122, max([F,P])=      0.070876391849
 orbitals (Q,E):
 ---------------
 A :13...23          ( 2.00    -0.5690)  ( 2.00    -0.4978)  ( 2.00    -0.2202)  ( 2.00    -0.1421)
                     ( 2.00    -0.1421)  ( 2.00    -0.0955)  ( 2.00    -0.0955)  ( 2.00    -0.0951)
                     ( 2.00    -0.0580)  ( 2.00    -0.0580)  ( 0.00     0.0466)

 CYCLE   11
  SDIIS (wt  0.725): -0.0016  0.0461 -0.0595 -0.0010 -0.0024  0.0306 -0.0079  0.2816  0.3026  0.4116
 A-DIIS (wt  0.275):  0.0000  0.0000  0.0000  0.0000  0.0000  0.0000  0.0000  0.1029  0.1820  0.7151
  DIIS coefficients: -0.0012  0.0334 -0.0431 -0.0007 -0.0018  0.0222 -0.0058  0.2325  0.2695  0.4950
 SCF Error: norm([F,P])=      0.058958837102, max([F,P])=      0.028217261834
 orbitals (Q,E):
 ---------------
 A :13...23          ( 2.00    -0.5664)  ( 2.00    -0.5004)  ( 2.00    -0.2175)  ( 2.00    -0.1384)
                     ( 2.00    -0.1384)  ( 2.00    -0.0972)  ( 2.00    -0.0969)  ( 2.00    -0.0969)
                     ( 2.00    -0.0577)  ( 2.00    -0.0577)  ( 0.00     0.0487)

 CYCLE   12
  SDIIS (wt  0.924):  0.0032 -0.0053 -0.0001 -0.0019  0.0030 -0.0077  0.0645  0.0611  0.2551  0.6282
 A-DIIS (wt  0.076):  0.0000  0.0000  0.0000  0.0000  0.0000  0.0000  0.0000  0.0000  0.1440  0.8560
  DIIS coefficients:  0.0030 -0.0049 -0.0001 -0.0018  0.0027 -0.0071  0.0596  0.0565  0.2466  0.6455
 SCF Error: norm([F,P])=      0.018299779303, max([F,P])=      0.008541370846
 orbitals (Q,E):
 ---------------
 A :13...23          ( 2.00    -0.5670)  ( 2.00    -0.4999)  ( 2.00    -0.2182)  ( 2.00    -0.1393)
                     ( 2.00    -0.1393)  ( 2.00    -0.0966)  ( 2.00    -0.0964)  ( 2.00    -0.0964)
                     ( 2.00    -0.0579)  ( 2.00    -0.0579)  ( 0.00     0.0481)

 CYCLE   13
  SDIIS (wt  1.000): -0.0005 -0.0000 -0.0004 -0.0011 -0.0015  0.0123  0.0164  0.0781  0.2401  0.6566
  DIIS coefficients: -0.0005 -0.0000 -0.0004 -0.0011 -0.0015  0.0123  0.0164  0.0781  0.2401  0.6566
 SCF Error: norm([F,P])=      0.001636141195, max([F,P])=      0.000745558423
 orbitals (Q,E):
 ---------------
 A :13...23          ( 2.00    -0.5670)  ( 2.00    -0.4999)  ( 2.00    -0.2181)  ( 2.00    -0.1392)
                     ( 2.00    -0.1392)  ( 2.00    -0.0967)  ( 2.00    -0.0965)  ( 2.00    -0.0965)
                     ( 2.00    -0.0579)  ( 2.00    -0.0579)  ( 0.00     0.0482)

 CYCLE   14
  SDIIS (wt  1.000): -0.0000  0.0000  0.0002 -0.0001 -0.0000 -0.0000 -0.0004  0.0235  0.2231  0.7537
  DIIS coefficients: -0.0000  0.0000  0.0002 -0.0001 -0.0000 -0.0000 -0.0004  0.0235  0.2231  0.7537
 SCF Error: norm([F,P])=      0.000042239336, max([F,P])=      0.000011979440
 orbitals (Q,E):
 ---------------
 A :13...23          ( 2.00    -0.5670)  ( 2.00    -0.4999)  ( 2.00    -0.2181)  ( 2.00    -0.1392)
                     ( 2.00    -0.1392)  ( 2.00    -0.0967)  ( 2.00    -0.0965)  ( 2.00    -0.0964)
                     ( 2.00    -0.0579)  ( 2.00    -0.0579)  ( 0.00     0.0482)

 CYCLE   15
  SDIIS (wt  1.000): -0.0000  0.0001 -0.0000  0.0001  0.0000  0.0007  0.0078  0.0534  0.2193  0.7186
  DIIS coefficients: -0.0000  0.0001 -0.0000  0.0001  0.0000  0.0007  0.0078  0.0534  0.2193  0.7186
 SCF Error: norm([F,P])=      0.000013980943, max([F,P])=      0.000005020069
 orbitals (Q,E):
 ---------------
 A :13...23          ( 2.00    -0.5670)  ( 2.00    -0.4999)  ( 2.00    -0.2181)  ( 2.00    -0.1392)
                     ( 2.00    -0.1392)  ( 2.00    -0.0967)  ( 2.00    -0.0965)  ( 2.00    -0.0964)
                     ( 2.00    -0.0579)  ( 2.00    -0.0579)  ( 0.00     0.0482)

 CYCLE   16
  SDIIS (wt  1.000):  0.0000 -0.0000  0.0000 -0.0000  0.0001  0.0021  0.0162  0.0734  0.2493  0.6589
  DIIS coefficients:  0.0000 -0.0000  0.0000 -0.0000  0.0001  0.0021  0.0162  0.0734  0.2493  0.6589
 SCF Error: norm([F,P])=      0.000001297650, max([F,P])=      0.000000418670
 orbitals (Q,E):
 ---------------
 A :13...23          ( 2.00    -0.5670)  ( 2.00    -0.4999)  ( 2.00    -0.2181)  ( 2.00    -0.1392)
                     ( 2.00    -0.1392)  ( 2.00    -0.0967)  ( 2.00    -0.0965)  ( 2.00    -0.0964)
                     ( 2.00    -0.0579)  ( 2.00    -0.0579)  ( 0.00     0.0482)

 SCF CONVERGED

 CYCLE   17
1
 ***************************************************************************************************



                                                *******************
                                                *  R E S U L T S  *
                                                *******************
  
 *** Setting up for NEW gradients in Focky
 *** Using FIT density in Focky

 Orbital Energies, per Irrep and Spin:
 ======================================
                        Occup              E (au)              E (eV)       Diff (eV) with prev. cycle
                        -----      --------------------        ------       --------------------------
 A
              13        2.000     -0.56696561874257E+00       -15.428              -4.18E-07
              14        2.000     -0.49991393974622E+00       -13.603              -7.26E-07
              15        2.000     -0.21812519773513E+00        -5.935              -3.19E-07
              16        2.000     -0.13921682778922E+00        -3.788              -3.12E-07
              17        2.000     -0.13921354066079E+00        -3.788              -3.12E-07
              18        2.000     -0.96658247838202E-01        -2.630              -3.23E-07
              19        2.000     -0.96453290979056E-01        -2.625              -2.66E-07
              20        2.000     -0.96449638994355E-01        -2.625              -2.67E-07
              21        2.000     -0.57935822038065E-01        -1.577              -4.21E-07
              22        2.000     -0.57932874242445E-01        -1.576              -4.21E-07
              23        0.000      0.48171289223546E-01         1.311
              24        0.000      0.21061798039840E+00         5.731
              25        0.000      0.36523984464606E+00         9.939
              26        0.000      0.39670893269410E+00        10.795
              27        0.000      0.39671608110225E+00        10.795
              28        0.000      0.40915629259562E+00        11.134
              29        0.000      0.46287620490699E+00        12.596
              30        0.000      0.46288125379256E+00        12.596
              31        0.000      0.50955849777626E+00        13.866
              32        0.000      0.50956432531470E+00        13.866
  
 HOMO :       22 A                -0.57932874242445E-01
 LUMO :       23 A                 0.48171289223546E-01
  


 All Electron Calculation, thus no Orbital Energies of the Core Orbitals are calculated


 Fit test: (difference of exact and fit density, squared integrated, result summed over spins)
         Sum-of-Fragments:                             0.00015908567630
         Orthogonalized Fragments:                     0.00016150707481
         SCF:                                          0.00016327323959



 ==========================
 Electron Density at Nuclei
 ==========================
  
 The electron density is calculated at points on a small sphere around the center of a nucleus.
 The printed electron density is the average electron density on these points.
 The radius of the sphere is the printed approximate finite nuclear radius.

         Atom        Nuclear Radius (Angstrom)             Electron Density (a.u.)
         ----        -------------------------             -----------------------
     1)   Cl                0.0000426624                             3212.01135
     2)   Cl                0.0000426624                             3210.57936
     3)   F                 0.0000361580                              447.53935



 =======================================
 M U L L I K E N   P O P U L A T I O N S
 =======================================
  
 The survey below gives for each atom:
 a) the total charge (Z minus electrons)
 b) the net spin polarization (nr of electrons spin-A minus spin-B)
 c) for each spin the atomic electron valence density (integrated) per L-value.

 Atom              Charge    Spin density          S         P         D         F
 ----              ------    ------------       ------    ------    ------    ------
 1 Cl             -0.0012                       5.9877   10.8953    0.1021    0.0161
 2 Cl             -0.4907                       5.9800   11.4822    0.0230    0.0055
 3 F              -0.5081                       3.9915    5.5041    0.0115    0.0010

 Populations of individual BAS functions
 ----------------------------------------
 1 Cl           0.5054  1.4528  1.7143  0.2454  0.7278  0.7181  0.7308  1.2709  1.2836  1.2670
                0.6474  1.0752  0.3472  0.2783  0.1665  0.3127  1.0683  0.7900  1.1539  0.4324
                0.1872  0.5077  0.0038  0.0372  0.0044  0.0386  0.0164  0.0017 -0.0038 -0.0016
               -0.0001  0.0121  0.0020 -0.0036  0.0150  0.0107 -0.0069 -0.0077
 2 Cl           0.5055  1.4530  1.7130  0.2537  0.7273  0.7233  0.7285  1.2707  1.2762  1.2690
                0.6073  1.0270  0.4206  0.2912  0.2374  0.3075  1.0365  0.9267  1.0698  0.5690
                0.4410  0.6081 -0.0011  0.0072  0.0014  0.0163  0.0050 -0.0059 -0.0033 -0.0027
               -0.0001  0.0081  0.0007 -0.0032  0.0113  0.0077 -0.0064 -0.0066
 3 F            0.5758  1.4010  1.0896  0.9086  0.0165  0.3921  0.3332  0.4104  0.9358  0.8455
                0.9638  0.5660  0.4577  0.5996 -0.0013  0.0038  0.0006  0.0106  0.0022 -0.0045
               -0.0015 -0.0020 -0.0001  0.0036  0.0001 -0.0017  0.0054  0.0040 -0.0030 -0.0038

 Gross Charges per Atom (Z minus electrons)
 ==========================================
            -0.0012   -0.4907   -0.5081
 Net Total: -1.00000000


 Atom-Atom Population Matrix (off-diagonal elements not doubled)
 ===============================================================

     1 :    17.0144
     2 :    -0.0281   17.5118
     3 :     0.0149    0.0070    9.4861


 Frag-Frag Population Matrix (off-diagonal elements not doubled)
 ===============================================================

     1 :    34.4700
     2 :     0.0220    9.4861



 =================================================
 H I R S H F E L D   C H A R G E   A N A L Y S I S
 =================================================
  
 For each fragment: the (numerical) integral of rho(scf) * rho(fragment)/rho(sum-of-fragments)
 (nuclear charges are included, electrons are counted negative)

 The fragments and their ordering are defined in the early G E O M E T R Y output section.
 If you use single-atom fragments, this usually implies that all atoms of the same
 chemical type are grouped together. This may not be the order in which you listed them
 in the input file!

    1  ClCl                     -0.4142
    2  F                        -0.5858

 Sum of these charges (accuracy NumInt/Tails) =          -1.00000250



 =============================
 V O R O N O I   C H A R G E S
 =============================
  
 For each atom: the (numerical) integral of the total electronic charge density in its Voronoi cell,
 i.e. the region of space that is closer to that atom than to any other atom.
 (cf. Wigner-Seitz cells in crystals)

 Within the Voronoi cell the subintegrals over the atomic sphere and the remaining part are evaluated
 separately to give the numbers of electrons (negative charge) in these regions.
 The net total charge in the cell (including the nuclear charge) is also given.

 Values are provided for
    a) the Initial (sum-of-fragments) density
    b) the Orthogonalized-Fragments density
    c) the SCF density
    d) the Voronoi Deformation Density (VDD): the difference SCF-Initial for the complete atomic cell
 ---------------------------------------------------------------------------------------------------
 Total NetCharge:              -1.000                     -1.000                     -1.000    0.000
 (accuracy NumInt/Tails)

 Remark: the 'NetTotal' Voronoi charges often do not match the Mulliken and/or Hirshfeld charges very
 well. This is caused by the fact that chemically different atoms are not treated in accordance with
 their relative sizes. (Voronoi cells are defined by boundary planes halfway between the atoms.)
 However, the CHANGES in charge, comparing 'Initial' to 'SCF' for instance, do give a fair indication
 of the flow of charge caused by the relaxation from sum-of-fragments to self-consistency.

 Warning: the absolute accuracy of the VDD charges obtained using the Fuzzy Cells (Becke) integration
 scheme is much poorer than the one obtained with an 'equivalent' Voronoi integration grid. 



 =================================================================
 M U L T I P O L E   D E R I V E D   C H A R G E   A N A L Y S I S
 =================================================================

 This charge analysis uses the atomic multipoles (obtained from the fitted density) up to some level X,
 and reconstructs these multipoles exactly (up to level X) by distributing charges over all atoms.
 This is achieved by using Lagrange multipliers and a weight function to keep the multipoles local.

 Dummy atoms can be included (by setting INCDUM in MDC-block to 1) to obtain a fractional charge.
 This is generally useful and necessary only for small symmetrical molecules, when there are not
 enough degrees of freedom to reconstruct the multipoles.

 Since the atomic multipoles are reconstructed up to level X,
 the molecular multipoles are represented also up to level X.
 The recommended level is to reconstruct up to quadrupole : -> MDC-q charges.

 See: M. Swart, P.Th. van Duijnen, J.G. Snijders, J.Comput.Chem., (2001), p. 79-88.

 ------------------------------------------------------------- 
 Atomic electronic multipole moments from SCF equations (a.u.)
 ------------------------------------------------------------- 

   atom        charge        dip-x     dip-y     dip-z      quad-xx   quad-xy   quad-xz   quad-yy   quad-yz   quad-zz
 --------------------------------------------------------------------------------------------------------------------
    1 Cl     0.162422    -0.270552  0.536043 -0.082115    -0.491600 -0.957840  0.147514  1.638773 -0.292976 -1.147173
    2 Cl    -0.449256    -0.117476  0.233615 -0.036118    -0.261111 -0.504135  0.078165  0.865663 -0.155643 -0.604552
    3 F     -0.713167    -0.130805  0.259331 -0.039689    -0.024818 -0.048833  0.007609  0.083251 -0.015021 -0.058433

 --------------------------------------- 
 Multipole derived atomic charges (a.u.)
 --------------------------------------- 

 The MDC-m charges are just the Monopole terms in the multipole expansion, while for the MDC-d charges
 also the Dipoles are reconstructed. The usually preferred charges are the MDC-q charges.
 These reconstruct the Monopoles, Dipoles and Quadrupoles (both atomic AND molecular).

        Atom    Level:     MDC-m        MDC-d        MDC-q
 ---------------------------------------------------------
     1     Cl           0.162422    -0.158920    -0.003895
     2     Cl          -0.449256    -0.446361    -0.516484
     3     F           -0.713167    -0.394719    -0.479621

 ------------------------------------------------ 
 Average absolute deviations in atomic multipoles
 ------------------------------------------------ 

 Stated here are the average differences between the atomic multipoles
 and the reconstructed atomic multipoles (from the distributed charges).
 If these values are not zero, this means there are not enough degrees of freedom,
 to be able to reconstruct the atomic multipoles. (This usually happens only
 for small and/or highly symmetric molecules). If this is the case, one could add
 dummy atoms as extra point charges (and setting INCDUM in MDC-block to 1).

 Level:                                 MDC-d        MDC-q
 ---------------------------------------------------------
 Charge   (a.u.)                       0.0000       0.0000
 Dipole   (Debye)                      0.0001       0.0046
 Quad.    (a.u.)                       0.3953       0.1698

 --------------------------------------- 
 Represented molecular multipole moments
 --------------------------------------- 

 Given here are the Molecular multipole moments from the atomic charges, and from the Fit Density.
 Note that the atomic charges represent the latter, NOT the ones from the Exact density.

            Q (a.u.)             Dipole moment (Debye)                                          Quadrupole moment (a.u.)
                                 x         y         z              xx        xy        xz        yy        yz        zz
------------------------------------------------------------------------------------------------------------------------
MDC-m        -1.0000       24.6591  -16.8724    0.5227        -68.3407  107.4695   -4.6683   -9.3918    5.3784   77.7325
MDC-d        -1.0000       23.3404  -14.2569    0.1214        -65.7392   85.5785   -1.9399    1.2046    2.9507   64.5346
MDC-q        -1.0000       23.3403  -14.2541    0.1200        -65.2250   87.0816   -2.1667   -0.5161    3.4111   65.7411
 
Fit.Dens.    -1.0000       23.3403  -14.2570    0.1213        -65.5837   86.7902   -2.1261    0.6852    3.3210   64.8986



 =============
 Dipole Moment  ***  (Debye)  ***
 =============
  
 Vector   :        23.33734175    -14.25099859      0.12012289
 Magnitude:        27.34477848

 This molecular dipole moment is calculated with analytic integration
 ************************************************************************************
 Since the molecule is NOT NEUTRAL, the dipole moment depends on the choice of origin
 ************************************************************************************



 =========================================
 Quadrupole Moment (Buckingham convention)  ***  (a.u.)  ***
 =========================================
  
      quad-xx        quad-xy        quad-xz        quad-yy        quad-yz        quad-zz
    -65.57646080    85.98939470    -2.00259396     0.70424738     3.08407857    64.87221342

 This molecular quadrupole moment is calculated with analytic integration
1



                                             *************************
                                             *  SFO MO coefficients  *
                                             *************************
  


                                       === A ===
 MOs expanded in CFs+SFOs
 ========================

 The SFOs have been characterized in an earlier part of output.
 To deduce the bonding / antibonding nature of SFO combinations in an MO, consider the products
 of the coefficients AND THE OVERLAP between the SFOs (may be NEGATIVE). The SFO overlap matrix
 is printed later, in the SFO Populations section.

 (The CF coefficients are not printed)

 MOs :      1        2        3        4        5        6        7        8        9       10
 occup:   2.00     2.00     2.00     2.00     2.00     2.00     2.00     2.00     2.00     2.00
 CF+SFO
     1  -0.7080  -0.7062   0.0000  -0.0000   0.0000  -0.0000  -0.0000  -0.0000  -0.0000   0.0000
     2  -0.7062   0.7080   0.0000  -0.0000  -0.0000  -0.0000  -0.0000  -0.0000   0.0000  -0.0000
     3   0.0000   0.0000   0.0000  -0.7071   0.7072  -0.0034  -0.0000  -0.0000  -0.0013   0.0000
     4   0.0000  -0.0000   0.0000  -0.7071  -0.7070  -0.0034  -0.0000  -0.0000   0.0014  -0.0000
     5  -0.0000   0.0000   0.0000  -0.0035  -0.0013   0.7072   0.0002   0.0007  -0.7071   0.0004
     6   0.0000   0.0000  -0.0000   0.0034  -0.0014  -0.7071  -0.0002  -0.0007  -0.7072   0.0004
     7  -0.0000  -0.0000  -0.0000  -0.0000   0.0000  -0.0006   0.4960   0.5039  -0.0004  -0.7066
     8   0.0000  -0.0000   0.0000   0.0000   0.0000   0.0006  -0.4960  -0.5040  -0.0004  -0.7066
     9   0.0000   0.0000   0.0000   0.0000  -0.0000   0.0004   0.5039  -0.4960   0.0002   0.0268
    10  -0.0000   0.0000  -0.0000  -0.0000  -0.0000  -0.0004  -0.5040   0.4960   0.0002   0.0268
    11   0.0000  -0.0000  -0.0001  -0.0005  -0.0008  -0.0003   0.0000   0.0000  -0.0001  -0.0000
    12   0.0000  -0.0000  -0.0001  -0.0005  -0.0001  -0.0003   0.0000   0.0000  -0.0001  -0.0000
    13  -0.0000   0.0000   0.0001   0.0000   0.0004   0.0002  -0.0000  -0.0000   0.0003  -0.0000
    14  -0.0000   0.0000   0.0000   0.0000   0.0000   0.0000   0.0001   0.0002   0.0000   0.0000
    15   0.0000  -0.0000  -0.0000   0.0000  -0.0000  -0.0000   0.0002  -0.0001  -0.0000   0.0000
    16   0.0000  -0.0000  -0.0000   0.0000  -0.0000  -0.0000  -0.0001  -0.0001  -0.0000  -0.0000
    17  -0.0000   0.0000   0.0000  -0.0000   0.0000   0.0000  -0.0001   0.0001   0.0000   0.0000
    18   0.0000  -0.0000  -0.0001   0.0001  -0.0005  -0.0002   0.0000   0.0000  -0.0000  -0.0000
    19   0.0000  -0.0000  -0.0001  -0.0002  -0.0008  -0.0004   0.0000  -0.0000  -0.0003   0.0000
    20  -0.0000   0.0000   0.0001   0.0001   0.0004   0.0003  -0.0000  -0.0000   0.0002   0.0000
    21   0.0000  -0.0000  -0.0000  -0.0000  -0.0000   0.0000   0.0000   0.0001  -0.0000  -0.0000
    22  -0.0000   0.0000   0.0000   0.0000   0.0000  -0.0000   0.0001  -0.0000   0.0000  -0.0000
    23   0.0000  -0.0000  -0.0001  -0.0000  -0.0005  -0.0005   0.0000  -0.0000  -0.0001  -0.0000
    24   0.0000  -0.0000  -0.0000  -0.0000  -0.0000  -0.0000   0.0002   0.0001  -0.0000  -0.0000
    25   0.0000  -0.0000  -0.0000  -0.0000  -0.0000  -0.0000  -0.0001   0.0002  -0.0000  -0.0000
    26   0.0000  -0.0000  -0.0000   0.0000  -0.0000  -0.0000   0.0001   0.0002  -0.0000   0.0001
    27  -0.0000   0.0000   0.0000  -0.0000   0.0000   0.0000   0.0002  -0.0001   0.0000   0.0000
    28   0.0000   0.0000  -0.0001  -0.0001   0.0002  -0.0003  -0.0000  -0.0000  -0.0001   0.0000
    29  -0.0000  -0.0000   0.0000   0.0000  -0.0000  -0.0000   0.0000   0.0000   0.0000   0.0000
    30   0.0000  -0.0000   0.0000   0.0000  -0.0000  -0.0000  -0.0000   0.0000   0.0000   0.0000
    31   0.0000  -0.0000   0.0000  -0.0003  -0.0000   0.0001  -0.0000  -0.0000   0.0000  -0.0000
    32  -0.0000  -0.0000   0.0000   0.0000   0.0000  -0.0000  -0.0000   0.0000  -0.0000  -0.0000
    33  -0.0000  -0.0000   0.0000   0.0000   0.0000  -0.0000   0.0000   0.0000   0.0000  -0.0000
    34  -0.0000  -0.0000  -0.0000   0.0000  -0.0000  -0.0000   0.0001   0.0001  -0.0000  -0.0001
    35   0.0000   0.0000   0.0000  -0.0000   0.0000   0.0000   0.0001  -0.0001   0.0000   0.0000
    36  -0.0000  -0.0000  -0.0000   0.0003   0.0001  -0.0004   0.0000  -0.0000  -0.0001  -0.0000
    37   0.0000   0.0000  -0.0000   0.0000   0.0000  -0.0000   0.0000   0.0000   0.0000   0.0000
    38   0.0000  -0.0000  -0.0000  -0.0000  -0.0000   0.0000  -0.0000   0.0000  -0.0000   0.0000
    39   0.0000   0.0000   0.0000  -0.0000   0.0000   0.0000   0.0000  -0.0001   0.0000   0.0000
    40   0.0000   0.0000   0.0000  -0.0000   0.0000   0.0000  -0.0001  -0.0000   0.0000   0.0000
    41  -0.0000   0.0000   0.0000   0.0000  -0.0000   0.0000  -0.0000   0.0000   0.0000   0.0000
    42  -0.0000   0.0000  -0.0000   0.0000  -0.0000   0.0000   0.0000   0.0000   0.0000  -0.0000
    43  -0.0000   0.0000   0.0001   0.0000   0.0002   0.0002   0.0000   0.0000   0.0001   0.0000
    44   0.0000   0.0000   0.0000  -0.0000   0.0000  -0.0000  -0.0000  -0.0000   0.0000   0.0000
    45   0.0000  -0.0000  -0.0000  -0.0000  -0.0000  -0.0000  -0.0000  -0.0000  -0.0000  -0.0000
    46   0.0000   0.0000  -0.0000   0.0000   0.0000  -0.0000   0.0000   0.0000  -0.0000  -0.0000
    47  -0.0000  -0.0000  -0.0000   0.0000  -0.0000  -0.0000   0.0000  -0.0000   0.0000  -0.0000
    48   0.0000   0.0000   0.0000  -0.0002   0.0002  -0.0000   0.0000   0.0000  -0.0001   0.0000
    49   0.0000   0.0000   0.0000  -0.0000   0.0000   0.0000   0.0001   0.0000   0.0000  -0.0001
    50   0.0000   0.0000   0.0000  -0.0000   0.0000   0.0000  -0.0000   0.0001   0.0000  -0.0000
    51  -0.0000   0.0000  -0.0000   0.0006   0.0005   0.0001   0.0000   0.0000  -0.0002   0.0000
    52   0.0000  -0.0000   0.0000  -0.0004  -0.0002   0.0005   0.0000   0.0000  -0.0004   0.0000
    53   0.0000  -0.0000   0.0000  -0.0000  -0.0000   0.0000  -0.0002  -0.0003   0.0000  -0.0002
    54  -0.0000   0.0000  -0.0000   0.0000   0.0000  -0.0000  -0.0003   0.0002  -0.0000  -0.0000
    55   0.0000   0.0000   0.0000  -0.0005   0.0004   0.0003   0.0000   0.0000   0.0003  -0.0000
    56   0.0000   0.0000   0.0000  -0.0000   0.0000   0.0000  -0.0003  -0.0003   0.0000   0.0002
    57  -0.0000  -0.0000  -0.0000   0.0000  -0.0000  -0.0000  -0.0003   0.0003  -0.0000   0.0000
    58  -0.0000  -0.0000   0.0000   0.0003  -0.0003   0.0003   0.0000   0.0000   0.0003  -0.0000
    59   0.0001  -0.0001  -0.0000  -0.0002  -0.0002  -0.0000  -0.0000   0.0000  -0.0000   0.0000
    60   0.0001   0.0001  -0.0000  -0.0002   0.0002  -0.0001  -0.0000   0.0000  -0.0000  -0.0000
    61   0.0000  -0.0000  -0.0000  -0.0000  -0.0000   0.0000   0.0003  -0.0001   0.0000   0.0002
    62   0.0000  -0.0000  -0.0000   0.0000  -0.0000  -0.0000   0.0001   0.0003   0.0000   0.0004
    63  -0.0000   0.0000  -0.0000   0.0001   0.0000  -0.0004  -0.0000  -0.0000   0.0003  -0.0000
    64   0.0000   0.0000  -0.0000  -0.0000   0.0000   0.0000   0.0003  -0.0001  -0.0000  -0.0002
    65   0.0000   0.0000  -0.0000   0.0000   0.0000  -0.0000   0.0001   0.0003  -0.0000  -0.0004
    66  -0.0000  -0.0000  -0.0000   0.0001  -0.0000  -0.0004  -0.0000  -0.0000  -0.0003   0.0000
    67   0.0001  -0.0001   0.0000   0.0000   0.0000   0.0000  -0.0000  -0.0000  -0.0000   0.0000
    68  -0.0001  -0.0001  -0.0000  -0.0000   0.0000   0.0000   0.0000   0.0000   0.0000  -0.0000
    69   0.0000  -0.0000   1.0000  -0.0000  -0.0001  -0.0001   0.0000   0.0000  -0.0000  -0.0000
    70  -0.0000   0.0000   0.0003   0.0002   0.0008   0.0006  -0.0000  -0.0000   0.0003   0.0000
    71  -0.0000   0.0000  -0.0000  -0.0002   0.0002   0.0005  -0.0000  -0.0000   0.0002   0.0000
    72   0.0000  -0.0000   0.0000   0.0001  -0.0002  -0.0003  -0.0000  -0.0000  -0.0001   0.0000
    73   0.0000  -0.0000   0.0000   0.0000  -0.0001  -0.0001  -0.0000   0.0000  -0.0000  -0.0000
    74   0.0000  -0.0000  -0.0001  -0.0006  -0.0010  -0.0003   0.0000   0.0000  -0.0002  -0.0000
    75  -0.0000   0.0000   0.0002  -0.0000   0.0004   0.0004  -0.0000   0.0000   0.0002   0.0000
    76  -0.0000   0.0000   0.0000  -0.0000   0.0001   0.0001   0.0000  -0.0000   0.0000   0.0000
    77   0.0000  -0.0000  -0.0000   0.0000  -0.0000  -0.0000  -0.0000  -0.0000  -0.0000   0.0000
    78   0.0000  -0.0000   0.0000  -0.0002  -0.0000   0.0001   0.0001  -0.0001   0.0000   0.0000
    79   0.0000  -0.0000   0.0000  -0.0003  -0.0000   0.0002  -0.0001  -0.0001   0.0000   0.0000
    80  -0.0000   0.0000  -0.0000   0.0002   0.0000  -0.0001  -0.0001  -0.0001  -0.0000   0.0000
    81   0.0000  -0.0000   0.0000  -0.0002  -0.0000   0.0001  -0.0001   0.0000   0.0000   0.0000
    82  -0.0000   0.0000  -0.0000   0.0003   0.0000  -0.0001  -0.0000  -0.0001  -0.0000   0.0000
    83   0.0000   0.0000  -0.0001  -0.0002   0.0003   0.0003  -0.0000  -0.0000   0.0001   0.0000
    84  -0.0000   0.0000  -0.0000   0.0001   0.0000   0.0000  -0.0000  -0.0000  -0.0000   0.0000
    85  -0.0000   0.0000  -0.0000   0.0000   0.0000   0.0000  -0.0000   0.0000  -0.0000  -0.0000
    86  -0.0000   0.0000  -0.0000   0.0000   0.0000   0.0000   0.0001   0.0000  -0.0000  -0.0000
    87   0.0000  -0.0000   0.0000  -0.0000  -0.0000  -0.0000   0.0000  -0.0000   0.0000   0.0000
    88  -0.0000   0.0000  -0.0000   0.0001   0.0000   0.0000  -0.0000   0.0000  -0.0000   0.0000
    89   0.0000  -0.0000   0.0000  -0.0001  -0.0000  -0.0000   0.0000  -0.0000   0.0000   0.0000
    90  -0.0000   0.0000  -0.0000   0.0002   0.0000   0.0000   0.0000  -0.0000  -0.0000   0.0000
    91  -0.0000   0.0000  -0.0001   0.0001   0.0000  -0.0001   0.0000   0.0000  -0.0000  -0.0000
    92  -0.0000   0.0000  -0.0001   0.0001   0.0000  -0.0001  -0.0000   0.0000  -0.0000   0.0000
    93   0.0000  -0.0000   0.0002  -0.0001  -0.0000   0.0001  -0.0000   0.0000   0.0000  -0.0000
    94  -0.0000  -0.0000  -0.0002   0.0000  -0.0000  -0.0000   0.0000   0.0000  -0.0000  -0.0000

 MOs :     11       12       13       14       15       16       17       18       19       20
 occup:   2.00     2.00     2.00     2.00     2.00     2.00     2.00     2.00     2.00     2.00
 CF+SFO
     1   0.0000   0.0005   0.0001   0.0001  -0.0010  -0.0000  -0.0000  -0.0012  -0.0000  -0.0002
     2  -0.0000   0.0005   0.0001   0.0001  -0.0010  -0.0000  -0.0000  -0.0012  -0.0000  -0.0002
     3   0.0000   0.0048   0.0003   0.0000  -0.0089  -0.0000  -0.0000  -0.0106  -0.0002  -0.0016
     4  -0.0000   0.0049  -0.0001   0.0006  -0.0088  -0.0000  -0.0000  -0.0105  -0.0002  -0.0016
     5   0.0002   0.0032   0.0001   0.0002  -0.0041  -0.0000  -0.0000  -0.0056  -0.0001  -0.0009
     6   0.0002  -0.0032  -0.0001  -0.0001   0.0043   0.0000   0.0000   0.0054   0.0001   0.0008
     7   0.0268  -0.0000  -0.0000  -0.0000   0.0000   0.0013  -0.0002  -0.0002   0.0009   0.0013
     8   0.0268   0.0000   0.0000   0.0000  -0.0000  -0.0013   0.0002   0.0002  -0.0009  -0.0013
     9   0.7066   0.0000   0.0000   0.0000  -0.0000  -0.0002  -0.0013   0.0001   0.0013  -0.0009
    10   0.7066  -0.0000  -0.0000  -0.0000   0.0000   0.0002   0.0013  -0.0001  -0.0013   0.0009
    11  -0.0000   0.0909   0.9733  -0.1819   0.0872   0.0001   0.0000   0.0820   0.0016   0.0126
    12  -0.0000   0.0894   0.1575   0.9717   0.1291   0.0002   0.0001   0.1267   0.0025   0.0194
    13  -0.0000  -0.0463  -0.0025  -0.0048   0.7195  -0.0016  -0.0006  -0.6723  -0.0133  -0.1020
    14   0.0000  -0.0001   0.0001   0.0000   0.0006   0.6521   0.1230   0.1113  -0.2142  -0.7110
    15  -0.0000   0.0000   0.0000   0.0000  -0.0001   0.1230  -0.6521  -0.0181  -0.7195   0.2140
    16   0.0000   0.0001  -0.0000  -0.0000  -0.0004  -0.2773   0.0504   0.0354  -0.1715  -0.2202
    17   0.0000  -0.0000   0.0000   0.0000   0.0002   0.0504   0.2772  -0.0207  -0.2229   0.1703
    18  -0.0000   0.0332  -0.0105   0.0065  -0.1521  -0.0002  -0.0001  -0.4154  -0.0082  -0.0633
    19  -0.0000  -0.0065  -0.0071   0.0046   0.0384   0.0000  -0.0000  -0.0014  -0.0000  -0.0002
    20   0.0000   0.0051  -0.0082   0.0127  -0.0189  -0.0000  -0.0000  -0.0241  -0.0005  -0.0037
    21  -0.0000  -0.0000  -0.0000  -0.0000   0.0000  -0.0067  -0.0022  -0.0057   0.0058   0.0374
    22   0.0000   0.0000   0.0000   0.0000  -0.0000  -0.0022   0.0067   0.0001   0.0378  -0.0058
    23  -0.0000   0.0064  -0.0108  -0.0015  -0.0138   0.0000   0.0000  -0.0016  -0.0000  -0.0002
    24   0.0000   0.0000  -0.0000  -0.0000   0.0000  -0.0038   0.0019   0.0021  -0.0165  -0.0120
    25  -0.0000   0.0000  -0.0000  -0.0000   0.0000  -0.0019  -0.0038   0.0022   0.0121  -0.0164
    26   0.0000   0.0000   0.0000  -0.0000  -0.0000  -0.0227  -0.0072   0.0015  -0.0018  -0.0102
    27  -0.0001  -0.0000  -0.0000  -0.0000   0.0000  -0.0072   0.0227  -0.0001  -0.0104   0.0018
    28   0.0000   0.0087   0.0012  -0.0122  -0.0145  -0.0000   0.0000  -0.0311  -0.0006  -0.0047
    29  -0.0000  -0.0000  -0.0000  -0.0000   0.0000   0.0000  -0.0000  -0.0000   0.0000   0.0000
    30   0.0000  -0.0000   0.0000   0.0000   0.0000   0.0000   0.0000  -0.0000  -0.0000   0.0000
    31  -0.0000  -0.0127   0.0007  -0.0016   0.0171   0.0000   0.0000   0.0481   0.0009   0.0073
    32  -0.0000  -0.0000   0.0000  -0.0000   0.0000   0.0000   0.0000  -0.0000  -0.0000   0.0000
    33   0.0000  -0.0000  -0.0000  -0.0000  -0.0000   0.0000  -0.0000  -0.0000   0.0000   0.0000
    34   0.0000   0.0000   0.0000   0.0000  -0.0000  -0.0141   0.0026   0.0014  -0.0066  -0.0085
    35   0.0001  -0.0000  -0.0000  -0.0000   0.0000   0.0026   0.0141  -0.0008  -0.0086   0.0066
    36  -0.0000   0.0064  -0.0005   0.0002  -0.0072   0.0000   0.0000  -0.0129  -0.0003  -0.0020
    37  -0.0000   0.0000   0.0000   0.0000  -0.0000  -0.0000   0.0000   0.0000  -0.0000  -0.0000
    38   0.0000   0.0000   0.0000   0.0000  -0.0000  -0.0000  -0.0000  -0.0000   0.0000  -0.0000
    39   0.0000  -0.0000   0.0000  -0.0000   0.0000   0.0024   0.0017  -0.0008  -0.0008   0.0053
    40  -0.0000  -0.0000   0.0000  -0.0000   0.0000   0.0017  -0.0024  -0.0002   0.0054   0.0008
    41  -0.0000  -0.0000  -0.0000  -0.0000   0.0000  -0.0000  -0.0000  -0.0000  -0.0000   0.0000
    42  -0.0000  -0.0000  -0.0000  -0.0000   0.0000  -0.0000   0.0000  -0.0000   0.0000   0.0000
    43   0.0000  -0.0032   0.0013  -0.0009   0.0006  -0.0000  -0.0000   0.0053   0.0001   0.0008
    44  -0.0000   0.0000   0.0000   0.0000  -0.0000   0.0000   0.0000  -0.0000   0.0000  -0.0000
    45  -0.0000   0.0000   0.0000   0.0000  -0.0000   0.0000  -0.0000  -0.0000  -0.0000  -0.0000
    46  -0.0000   0.0000   0.0000   0.0000  -0.0000  -0.0000  -0.0000   0.0000  -0.0000  -0.0000
    47   0.0000   0.0000  -0.0000  -0.0000  -0.0000  -0.0000   0.0000   0.0000  -0.0000   0.0000
    48   0.0000  -0.0026   0.0008  -0.0013   0.0024  -0.0000  -0.0000  -0.0005  -0.0000  -0.0001
    49   0.0000  -0.0000   0.0000   0.0000   0.0000   0.0016  -0.0007  -0.0000   0.0000   0.0000
    50  -0.0001  -0.0000   0.0000   0.0000   0.0000   0.0007   0.0016  -0.0000  -0.0000   0.0000
    51   0.0000   0.0006   0.0026  -0.0019   0.0014   0.0000   0.0000  -0.0011  -0.0000  -0.0002
    52   0.0000   0.0003   0.0003   0.0014  -0.0004  -0.0000  -0.0000  -0.0050  -0.0001  -0.0008
    53  -0.0000   0.0000   0.0000   0.0000  -0.0000   0.0019  -0.0001   0.0006  -0.0021  -0.0036
    54   0.0002  -0.0000  -0.0000  -0.0000   0.0000  -0.0001  -0.0019  -0.0002  -0.0037   0.0021
    55  -0.0000   0.0005   0.0014  -0.0018  -0.0044  -0.0000  -0.0000  -0.0012  -0.0000  -0.0002
    56   0.0000  -0.0000   0.0000   0.0000  -0.0000   0.0005  -0.0000  -0.0002   0.0009   0.0014
    57  -0.0002   0.0000  -0.0000  -0.0000   0.0000  -0.0000  -0.0005   0.0001   0.0014  -0.0009
    58  -0.0000  -0.0000   0.0002   0.0015  -0.0004  -0.0000   0.0000   0.0010   0.0000   0.0001
    59   0.0000  -0.0001  -0.0002   0.0000   0.0002   0.0000   0.0000   0.0002   0.0000   0.0000
    60  -0.0000  -0.0001  -0.0001  -0.0002   0.0003   0.0000   0.0000   0.0002   0.0000   0.0000
    61  -0.0004   0.0000   0.0000   0.0000  -0.0000   0.0001  -0.0002   0.0000  -0.0001   0.0000
    62   0.0002  -0.0000   0.0000   0.0000   0.0000   0.0002   0.0001   0.0000  -0.0000  -0.0001
    63  -0.0000  -0.0001  -0.0000  -0.0000   0.0002  -0.0000  -0.0000  -0.0001  -0.0000  -0.0000
    64   0.0004   0.0000   0.0000   0.0000   0.0000   0.0000  -0.0001  -0.0000   0.0001  -0.0000
    65  -0.0002  -0.0000   0.0000   0.0000   0.0000   0.0001   0.0000  -0.0000   0.0000   0.0001
    66   0.0000  -0.0000  -0.0000  -0.0000   0.0001   0.0000   0.0000   0.0002   0.0000   0.0000
    67   0.0000   0.0000   0.0000   0.0000  -0.0001  -0.0000  -0.0000  -0.0001  -0.0000  -0.0000
    68  -0.0000  -0.0000  -0.0000  -0.0000   0.0001   0.0000   0.0000   0.0001   0.0000   0.0000
    69  -0.0000   0.0015   0.0029   0.0035  -0.0080  -0.0000  -0.0000   0.0017   0.0000   0.0003
    70   0.0000   0.9640  -0.1726  -0.1421   0.1630   0.0001   0.0000  -0.0227  -0.0005  -0.0036
    71  -0.0000   0.0347   0.0517   0.0616  -0.4655  -0.2657   0.2320  -0.4906  -0.3372  -0.2052
    72  -0.0000  -0.0217  -0.0323  -0.0385   0.2907  -0.5210   0.1199   0.3924  -0.3380  -0.3526
    73  -0.0000  -0.0096  -0.0143  -0.0171   0.1292   0.2188   0.5672   0.0818  -0.4002   0.4707
    74  -0.0000   0.0212  -0.0036  -0.0004  -0.0157  -0.0001  -0.0000  -0.0321  -0.0006  -0.0048
    75  -0.0000  -0.0073  -0.0072  -0.0099   0.0482   0.0013  -0.0085   0.0402   0.0063   0.0042
    76   0.0000  -0.0015  -0.0015  -0.0020   0.0099   0.0068   0.0392   0.0062  -0.0212   0.0173
    77  -0.0000   0.0005   0.0005   0.0007  -0.0032   0.0400  -0.0064  -0.0064   0.0161   0.0213
    78   0.0000   0.0038   0.0018   0.0017  -0.0050  -0.0014  -0.0089  -0.0011   0.0035  -0.0028
    79  -0.0000   0.0061   0.0030   0.0028  -0.0082  -0.0062   0.0030  -0.0019  -0.0027  -0.0023
    80   0.0000  -0.0032  -0.0015  -0.0015   0.0042  -0.0064  -0.0006   0.0016  -0.0011  -0.0027
    81  -0.0000   0.0030   0.0015   0.0014  -0.0040   0.0002   0.0037  -0.0012  -0.0016   0.0008
    82   0.0000  -0.0049  -0.0024  -0.0022   0.0065  -0.0046  -0.0004   0.0021  -0.0008  -0.0018
    83   0.0000  -0.0066  -0.0005  -0.0023   0.0080   0.0000   0.0000  -0.0008  -0.0000  -0.0001
    84   0.0000  -0.0005  -0.0004  -0.0003   0.0011  -0.0010  -0.0001   0.0009  -0.0002  -0.0006
    85  -0.0000  -0.0003  -0.0002  -0.0002   0.0007   0.0008   0.0011   0.0004  -0.0005   0.0010
    86   0.0000  -0.0002  -0.0002  -0.0001   0.0005   0.0028  -0.0010   0.0001   0.0017   0.0016
    87   0.0000   0.0003   0.0002   0.0002  -0.0006  -0.0005  -0.0012  -0.0003   0.0006  -0.0008
    88  -0.0000  -0.0005  -0.0003  -0.0003   0.0010   0.0002   0.0021   0.0007  -0.0014   0.0009
    89   0.0000   0.0005   0.0003   0.0003  -0.0010  -0.0002  -0.0007  -0.0007   0.0004  -0.0005
    90   0.0000  -0.0014  -0.0010  -0.0009   0.0030  -0.0005  -0.0012   0.0023   0.0007  -0.0004
    91   0.0000  -0.0003   0.0001   0.0002   0.0002   0.0010  -0.0004   0.0009   0.0011   0.0012
    92  -0.0000  -0.0004   0.0001   0.0002   0.0002   0.0001   0.0010   0.0013  -0.0012   0.0010
    93  -0.0000   0.0006  -0.0001  -0.0003  -0.0004   0.0005   0.0004  -0.0024  -0.0003   0.0006
    94  -0.0000   0.0003   0.0001   0.0002  -0.0004  -0.0000  -0.0000   0.0001   0.0000   0.0000

 MOs :     21       22       23       24       25       26       27       28       29       30
 occup:   2.00     2.00     0.00     0.00     0.00     0.00     0.00     0.00     0.00     0.00
 CF+SFO
     1   0.0000   0.0000  -0.0012   0.0112   0.0018  -0.0000  -0.0000  -0.0030  -0.0000  -0.0000
     2   0.0000   0.0000  -0.0011   0.0128   0.0019  -0.0000  -0.0000  -0.0035  -0.0000  -0.0000
     3   0.0000   0.0000  -0.0102   0.0911   0.0149  -0.0000  -0.0000  -0.0247  -0.0000  -0.0000
     4   0.0000   0.0000  -0.0100   0.1048   0.0161  -0.0000  -0.0000  -0.0282  -0.0000  -0.0000
     5   0.0000   0.0000  -0.0057   0.0201   0.0053  -0.0000  -0.0000  -0.0060  -0.0000  -0.0000
     6  -0.0000  -0.0000   0.0058  -0.0237  -0.0055   0.0000   0.0000   0.0069   0.0000   0.0000
     7  -0.0012  -0.0003   0.0000  -0.0000  -0.0000  -0.0004  -0.0000   0.0000   0.0005   0.0002
     8   0.0012   0.0003  -0.0000   0.0000   0.0000   0.0004   0.0000  -0.0000  -0.0005  -0.0002
     9  -0.0003   0.0012  -0.0000   0.0000   0.0000  -0.0000   0.0004  -0.0000   0.0002  -0.0005
    10   0.0003  -0.0012   0.0000  -0.0000  -0.0000   0.0000  -0.0004   0.0000  -0.0002   0.0005
    11  -0.0002  -0.0002   0.0855  -0.4837  -0.0822   0.0002   0.0000   0.1213   0.0001   0.0001
    12  -0.0003  -0.0003   0.1057  -0.4606  -0.0716   0.0002   0.0000   0.1318   0.0001   0.0001
    13   0.0009   0.0008  -0.2410   0.3674   0.1055  -0.0002  -0.0001  -0.1220  -0.0001  -0.0001
    14   0.0294   0.0182  -0.0005   0.0007   0.0001  -0.0212  -0.0078  -0.0001   0.0062   0.0057
    15   0.0182  -0.0294   0.0001  -0.0001  -0.0000  -0.0078   0.0212   0.0000   0.0057  -0.0062
    16  -0.9042  -0.1715   0.0007  -0.0005  -0.0001  -0.0293   0.0004   0.0002   0.0267   0.0105
    17  -0.1715   0.9042  -0.0004   0.0003   0.0001   0.0004   0.0293  -0.0001   0.0105  -0.0267
    18   0.0013   0.0011   0.9204  -0.3989  -0.0507   0.0001   0.0000   0.1040   0.0001   0.0001
    19   0.0000   0.0000   0.0291  -0.4260  -0.9215   0.0011   0.0005   0.4193   0.0007   0.0008
    20   0.0000   0.0000   0.0161   0.2160  -0.4465  -0.0016  -0.0007  -0.7735  -0.0006  -0.0006
    21   0.0054   0.0045   0.0001  -0.0005  -0.0003  -0.8836  -0.4720   0.0026  -0.0362  -0.0438
    22   0.0045  -0.0054   0.0000   0.0000  -0.0000  -0.4720   0.8836   0.0002  -0.0437   0.0362
    23  -0.0000  -0.0000  -0.0668  -0.1992   0.1305  -0.0015  -0.0006  -0.6239   0.0011   0.0013
    24  -0.0213   0.0020  -0.0001  -0.0004  -0.0001   0.0519  -0.0157  -0.0004  -0.9659  -0.0909
    25  -0.0020  -0.0213  -0.0001  -0.0005  -0.0001   0.0158   0.0519  -0.0003   0.0909  -0.9659
    26   0.0119   0.0095  -0.0002  -0.0001   0.0001  -0.0163  -0.0083  -0.0001   0.0369   0.0431
    27   0.0095  -0.0119   0.0000   0.0000  -0.0000  -0.0083   0.0163   0.0000   0.0431  -0.0370
    28   0.0000   0.0000  -0.0263  -0.0161  -0.0007  -0.0002  -0.0001  -0.0220  -0.0004  -0.0005
    29  -0.0000  -0.0000   0.0000  -0.0000   0.0000  -0.0001   0.0000  -0.0000  -0.0001  -0.0000
    30   0.0000  -0.0000   0.0000  -0.0000   0.0000  -0.0000  -0.0001   0.0000   0.0000  -0.0001
    31  -0.0001  -0.0001   0.0354  -0.0647  -0.0101  -0.0001  -0.0000  -0.0430   0.0002   0.0002
    32  -0.0000  -0.0000  -0.0000   0.0000   0.0000  -0.0000  -0.0000   0.0000  -0.0000  -0.0000
    33  -0.0000   0.0000  -0.0000  -0.0000   0.0000  -0.0000   0.0000  -0.0000  -0.0001   0.0000
    34   0.0161   0.0030  -0.0001   0.0001  -0.0000   0.0137  -0.0002   0.0000   0.0627   0.0247
[...]
   93   -2.66559150918560E-17 -4.56154347150753E-16 -9.76442640935812E-17  4.92621656628892E-17
   94   -4.60785923306339E-18  1.86916454536501E-16  2.22911966663020E-16 -1.25333771139324E-16

 column          81                    82                    83                    84
 row
   81    1.00000000000000E+00
   82   -5.25698293219173E-16  1.00000000000000E+00
   83   -1.52604843909124E-16 -9.69717199334613E-17  9.99999999999997E-01
   84   -3.10700790657060E-16 -8.12072932905800E-16  4.12725273879130E-17  1.00000000000000E+00
   85   -2.03048620533433E-16 -5.66854565335075E-16  2.32162413479984E-16  1.70834845818608E-16
   86    4.34287238705317E-16 -1.00875059512646E-16  6.23628007415979E-18 -1.31469677809234E-16
   87   -2.60239649857333E-16 -7.55400711262093E-16  1.59706368138904E-16 -3.46932836734100E-16
   88    6.13866164457110E-16  4.47714087347837E-16 -3.26107684692906E-17 -3.90638889779475E-16
   89    1.15755416692654E-15  2.89761500926224E-16 -4.44395835776969E-17  5.40428302051043E-16
   90    3.18740192117688E-16  2.80849867288161E-16  8.66989043491612E-17  5.47747831385623E-16
   91   -2.00426418286970E-16 -1.35423627607018E-17  9.53818390914650E-17 -8.91195127541771E-18
   92   -1.66250121172917E-16 -5.14034226019007E-16  2.55600662163458E-16  3.00664932539755E-18
   93    2.96710135709024E-16  4.76964252598897E-17 -5.33683272812939E-16  2.30635424834321E-16
   94   -3.99420080343660E-16 -3.20056481317721E-16  1.99579935911132E-15 -3.91939085353510E-16

 column          85                    86                    87                    88
 row
   85    1.00000000000000E+00
   86    3.75852870893967E-17  1.00000000000000E+00
   87    4.93450346018883E-16 -3.53710979666486E-16  1.00000000000000E+00
   88   -3.93818704403026E-16  6.22007156931848E-16 -2.66881505188506E-15  1.00000000000000E+00
   89   -4.30568975825108E-16 -5.76469501017155E-16  4.65058198673612E-16 -6.57927124307384E-16
   90    1.66281249633729E-16  1.87123871729460E-16  2.58255263420153E-16  2.44448626379908E-16
   91    3.55320421675608E-16 -4.01659794274878E-16  3.18198885124833E-16  1.73928474839777E-16
   92   -3.02292771045700E-16  3.34970296299146E-17 -6.13371708974150E-16  3.74629967076368E-16
   93    1.09769117217053E-16  4.66348388670958E-16 -8.15881828311366E-16  2.59744982616136E-16
   94   -1.37259995036665E-16 -7.10152422978005E-18 -1.84856470408779E-17 -1.65123990869542E-16

 column          89                    90                    91                    92
 row
   89    1.00000000000000E+00
   90   -3.31263997759316E-17  1.00000000000000E+00
   91    1.34761247842265E-16 -5.48677450045235E-16  9.99999999999999E-01
   92   -2.87852394542231E-16 -3.03268288303141E-16  5.68676956721093E-16  1.00000000000000E+00
   93   -8.71785367555439E-17 -1.11084982900612E-16 -3.36503955329268E-16  4.77042603146518E-17
   94   -1.59486139572618E-16 -3.32199545649559E-16  3.05745012640912E-17  1.56233533055161E-16

 column          93                    94
 row
   93    1.00000000000000E+00
   94   -3.01408203950970E-17  9.99999999999998E-01


 SFO contributions (%) per orbital
 (multiplication by the orbital occupation yields the SFO Gross Populations)

 Orb.:       13     14     15     16     17     18     19     20     21     22     23     24     25     26
 occup:     2.00   2.00   2.00   2.00   2.00   2.00   2.00   2.00   2.00   2.00   0.00   0.00   0.00   0.00
 CF+SFO     ----   ----   ----   ----   ----   ----   ----   ----   ----   ----   ----   ----   ----   ----
 ------
     11:   94.42   3.33   0.37   0.00   0.00   0.19   0.00   0.00   0.00   0.00   0.19   0.18   0.07  -0.00
     12:    2.40  94.20   0.96   0.00   0.00   0.64   0.00   0.01   0.00   0.00   0.24  -0.02  -0.08   0.00
     13:   -0.00  -0.00  56.05   0.00   0.00  38.82   0.02   0.89   0.00   0.00   3.12   0.10   0.21   0.00
     14:    0.00   0.00   0.00  45.20   1.61   1.17   4.33  47.66   0.01   0.00   0.00  -0.00  -0.00   0.06
     15:   -0.00   0.00   0.00   1.61  45.20   0.03  48.81   4.32   0.00   0.01   0.00  -0.00  -0.00   0.01
     16:    0.00   0.00   0.00   8.98   0.30   0.15   3.45   5.68  78.54   2.83   0.00  -0.00   0.00   0.06
     17:    0.00   0.00   0.00   0.30   8.98   0.05   5.83   3.40   2.83  78.55   0.00  -0.00   0.00   0.00
     18:    0.03  -0.00   3.14   0.00   0.00  21.25   0.01   0.49   0.00   0.00  73.75  -0.02  -0.21  -0.00
     19:    0.04  -0.02   0.27   0.00  -0.00   0.00   0.00   0.00   0.00   0.00  -0.19 -12.93  73.39   0.00
     20:   -0.02   0.05   0.03   0.00   0.00  -0.05  -0.00  -0.00  -0.00  -0.00   0.15  -9.53  24.34   0.00
     21:    0.00   0.00   0.00   0.03   0.00  -0.00  -0.00  -0.04   0.02   0.01   0.00  -0.00   0.00  77.54
     22:    0.00   0.00   0.00   0.00   0.03  -0.00  -0.04  -0.00   0.01   0.02   0.00   0.00   0.00  22.12
     23:    0.06   0.00   0.03   0.00   0.00   0.01   0.00   0.00  -0.00  -0.00   1.15  -3.18   2.87   0.00
     70:    1.84   1.09   1.06   0.00   0.00  -0.03  -0.00  -0.00  -0.00  -0.00   0.27   0.98  -0.15   0.00
     71:    0.86   1.00  26.02   7.94   6.05  21.41  10.81   3.91   5.14   0.68  12.98   1.16  -0.05  -0.03
     72:    0.33   0.39  10.15  30.53   1.62  13.91  10.89  11.95  13.04   0.26   5.07   0.45  -0.02  -0.09
     73:    0.07   0.08   2.01   5.38  36.18   0.57  15.26  21.04   0.00  17.24   1.00   0.09  -0.00  -0.00
     74:    0.10   0.01  -0.04   0.00   0.00   0.39   0.00   0.01   0.00   0.00   1.13 127.96  -1.20   0.00
     75:   -0.19  -0.20  -0.31  -0.00  -0.02   0.66   0.01   0.01   0.00   0.01   0.34  -4.58   0.84  -0.00


 Summation over all MOs, multiplied by occupation: Total SFO Gross Populations in this Irrep
 ===========================================================================================

     2.00    2.00    2.00    2.00    2.00    2.00    2.00    2.00    2.00    2.00    1.99    1.99
     1.93    2.00    2.00    2.00    2.00    0.51    0.00   -0.00    0.00    0.00    0.01    0.00
     0.00    0.01    0.01    0.01    0.00    0.00    0.01    0.00    0.00    0.00    0.00    0.00
     0.00    0.00    0.00    0.00    0.00    0.00    0.00    0.00    0.00    0.00    0.00    0.00
     0.00    0.00    0.00   -0.00    0.00    0.00   -0.00    0.00    0.00    0.00   -0.00   -0.00
     0.00    0.00   -0.00    0.00    0.00   -0.00   -0.00   -0.00    2.00    1.98    1.68    1.86
     1.96    0.01   -0.00    0.00    0.00    0.00    0.00    0.00    0.00    0.00   -0.00    0.00
     0.00    0.00    0.00    0.00    0.00    0.00    0.00    0.00    0.00   -0.00



 List of all MOs, ordered by energy, with the most significant SFO gross populations
 ===================================================================================

 Each percentage contribution in the table below corresponds to the indicated SFO.
 In general, a SFO may be a linear combination of several Fragment Orbitals on the same,
 or on symmetry-related Fragments. Only the first 'member' of such a combination is
 specified here. A full definition of all SFOs is given in an earlier part of the output.
 The numbering of the SFOs in this table does NOT include the Core Orbitals, and starts
 from one for each symmetry representation, as in the SFO definition list earlier.

       E(eV)  Occ       MO           %     SFO (first member)   E(eV)  Occ   Fragment
 -------------------------------------------------------------------------------------

     -15.428  2.00    13 A         94.42%    11 A             -21.634  2.00     1 ClCl
                                    2.40%    12 A             -19.858  2.00     1 ClCl
                                    1.84%     2 A             -15.093  2.00     2 F
     -13.603  2.00    14 A         94.20%    12 A             -19.858  2.00     1 ClCl
                                    3.33%    11 A             -21.634  2.00     1 ClCl
                                    1.09%     2 A             -15.093  2.00     2 F
      -5.935  2.00    15 A         56.05%    13 A             -11.001  2.00     1 ClCl
                                   26.02%     3 A               2.944  2.00     2 F
                                   10.15%     4 A               2.944  2.00     2 F
                                    3.14%    18 A              -6.565  0.00     1 ClCl
                                    2.01%     5 A               2.944  2.00     2 F
                                    1.06%     2 A             -15.093  2.00     2 F
      -3.788  2.00    16 A         45.20%    14 A              -9.073  2.00     1 ClCl
                                   30.53%     4 A               2.944  2.00     2 F
                                    8.98%    16 A              -7.826  2.00     1 ClCl
                                    7.94%     3 A               2.944  2.00     2 F
                                    5.38%     5 A               2.944  2.00     2 F
                                    1.61%    15 A              -9.073  2.00     1 ClCl
      -3.788  2.00    17 A         45.20%    15 A              -9.073  2.00     1 ClCl
                                   36.18%     5 A               2.944  2.00     2 F
                                    8.98%    17 A              -7.826  2.00     1 ClCl
                                    6.05%     3 A               2.944  2.00     2 F
                                    1.62%     4 A               2.944  2.00     2 F
                                    1.61%    14 A              -9.073  2.00     1 ClCl
      -2.630  2.00    18 A         38.82%    13 A             -11.001  2.00     1 ClCl
                                   21.41%     3 A               2.944  2.00     2 F
                                   21.25%    18 A              -6.565  0.00     1 ClCl
                                   13.91%     4 A               2.944  2.00     2 F
                                    1.17%    14 A              -9.073  2.00     1 ClCl
      -2.625  2.00    19 A         48.81%    15 A              -9.073  2.00     1 ClCl
                                   15.26%     5 A               2.944  2.00     2 F
                                   10.89%     4 A               2.944  2.00     2 F
                                   10.81%     3 A               2.944  2.00     2 F
                                    5.83%    17 A              -7.826  2.00     1 ClCl
                                    4.33%    14 A              -9.073  2.00     1 ClCl
                                    3.45%    16 A              -7.826  2.00     1 ClCl
      -2.625  2.00    20 A         47.66%    14 A              -9.073  2.00     1 ClCl
                                   21.04%     5 A               2.944  2.00     2 F
                                   11.95%     4 A               2.944  2.00     2 F
                                    5.68%    16 A              -7.826  2.00     1 ClCl
                                    4.32%    15 A              -9.073  2.00     1 ClCl
                                    3.91%     3 A               2.944  2.00     2 F
                                    3.40%    17 A              -7.826  2.00     1 ClCl
      -1.577  2.00    21 A         78.54%    16 A              -7.826  2.00     1 ClCl
                                   13.04%     4 A               2.944  2.00     2 F
                                    5.14%     3 A               2.944  2.00     2 F
                                    2.83%    17 A              -7.826  2.00     1 ClCl
      -1.576  2.00    22 A         78.55%    17 A              -7.826  2.00     1 ClCl
                                   17.24%     5 A               2.944  2.00     2 F
                                    2.83%    16 A              -7.826  2.00     1 ClCl
       1.311  0.00    23 A         73.75%    18 A              -6.565  0.00     1 ClCl
                                   12.98%     3 A               2.944  2.00     2 F
                                    5.07%     4 A               2.944  2.00     2 F
                                    3.12%    13 A             -11.001  2.00     1 ClCl
                                    1.15%    23 A               5.826  0.00     1 ClCl
                                    1.13%     6 A               7.773  0.00     2 F
       5.731  0.00    24 A        127.96%     6 A               7.773  0.00     2 F
                                  -12.93%    19 A               4.784  0.00     1 ClCl
                                   -9.53%    20 A               4.923  0.00     1 ClCl
                                   -4.58%     7 A              22.092  0.00     2 F
                                   -3.18%    23 A               5.826  0.00     1 ClCl
                                    1.16%     3 A               2.944  2.00     2 F



 =======================================================================
 Electrostatic potential at the Nuclei due to electrons and other nuclei
 =======================================================================
  
         Atom                  Potential
         ----                  ---------
     1)   Cl                 64.58690164
     2)   Cl                 64.63648917
     3)   F                  26.84595816
 
 
 ========================
 No memory problems found
 ========================
 
 Maximum number of active allocate calls:         592
 
 *******************************************************************************

                             A D F   E X I T
 NORMAL TERMINATION



 =================
 Timing Statistics
 =================
  
 Total Used :                     CPU=        5.99      System=        0.19     Elapsed=        6.46

 Calls  Section                     ( Mean, Percentage )
 ---------------------------------------------------------------------------------------------------
     3  ><      ................      0.00    0.02             0.00    0.00             0.00    0.02
     1  INIT    ................      0.42    7.04             0.02   12.90             0.47    7.30
     1  GEOMET  ................      0.10    1.70             0.01    4.84             0.32    4.88
     1  FRAGM   ................      0.01    0.23             0.00    1.61             0.03    0.39
     1  INPUTA  ................      0.00    0.00             0.00    0.00             0.00    0.01
     1  ATDEN   ................      0.00    0.07             0.00    0.00             0.00    0.07
     1  MAINSY  ................      0.01    0.12             0.00    1.61             0.01    0.21
     1  SYMFIT  ................      0.00    0.05             0.00    0.00             0.00    0.04
     1  CORORT  ................      0.00    0.00             0.00    0.00             0.00    0.01
     1  SYMORB  ................      0.00    0.03             0.00    0.54             0.00    0.05
     1  CLSMAT  ................      0.01    0.10             0.00    0.54             0.01    0.11
     1  ORTHON  ................      0.01    0.15             0.00    0.00             0.01    0.13
     1  GENPT   ................      0.09    1.53             0.00    2.69             0.10    1.51
     1  PTBAS   ................      0.03    0.53             0.00    0.00             0.03    0.49
    17  FOCKY   ................      0.11   31.48             0.00    9.14             0.11   29.57
    17  FOCKTR  ................      0.00    0.38             0.00    0.00             0.00    0.49
    17  SDIIS   ................      0.00    1.12             0.00    2.69             0.00    1.02
     1  COREPS  ................      0.09    1.57             0.00    1.08             0.10    1.50
     1  TOTEN   ................      0.29    4.92             0.00    1.08             0.30    4.61
     1  POPAN   ................      0.00    0.07             0.00    0.00             0.01    0.13
     1  DEBYE   ................      0.00    0.05             0.00    0.00             0.00    0.04
     1  INPUTE  ................      0.00    0.00             0.00    0.00             0.00    0.02
     1  SYMORE  ................      0.00    0.03             0.00    0.00             0.00    0.02
     1  METS    ................      0.00    0.00             0.00    0.00             0.00    0.01
     1  CETS    ................      0.02    0.27             0.00    1.07             0.02    0.29
     1  POPUL   ................      2.88   48.09             0.11   59.14             3.01   46.61
     1  EXIT PROCEDURE .........      0.03    0.45             0.00    1.07             0.03    0.46


 Currently Open Files (EXIT00)
 ====================

 Unit    Access Format  Status   Type       Ident (file)
 -------------------------------------------------------
   3      SEQ    FORM   TRANSP  NORMAL      LOGFILE
                                          ( logfile )


 Buffered I/O statistics
 =======================
 Memory available:                     67108864
 Number of records fitting in memory:     16131
 Input :   1.1% of                        51146  *4k bytes
 Output:  11.1% of                         3890  *4k bytes
 Records from serial files evicted:           0
                    others evicted:           0
 Hash table lookups:     145169 with          0 conflicts (  0.00%)

 ***************************************************************************************************
 (LOGFILE)
 <May09-2019> <17:12:05>  ADF 2017  RunTime: May09-2019 17:12:05  Nodes: 1  Procs: 12
 <May09-2019> <17:12:05>  *** (NO TITLE) ***
 <May09-2019> <17:12:05>  RunType   : SINGLE POINT
 <May09-2019> <17:12:05>  Net Charge: -1 (Nuclei minus Electrons)
 <May09-2019> <17:12:05>  Symmetry  : NOSYM
 <May09-2019> <17:12:05>  >>>> FRAGM
  Coordinates
    Atom         X           Y           Z   (Angstrom)
    1.Cl       -4.986400    3.223898   -0.065687
    2.Cl       -3.930844    1.122090    0.259518
    3.F        -5.858137    4.952930   -0.331032
 <May09-2019> <17:12:05>  >>>> CORORT
 <May09-2019> <17:12:05>  >>>> CLSMAT
 <May09-2019> <17:12:05>  >>>> ORTHON
 <May09-2019> <17:12:05>  >>>> GENPT
 <May09-2019> <17:12:05>  Block Length= 128
 <May09-2019> <17:12:05>  >>>> PTBAS
 <May09-2019> <17:12:05>  >>>> CYCLE
 <May09-2019> <17:12:06>              |Error|         MaxErr       Wt(A-DIIS)
 <May09-2019> <17:12:06>      1      1.25908153      0.50953558
 <May09-2019> <17:12:06>      2      1.54398549      0.58614273    100.0
 <May09-2019> <17:12:06>      3      0.84061567      0.34888398    100.0
 <May09-2019> <17:12:06>      4      0.78943976      0.34256795    100.0
 <May09-2019> <17:12:06>      5      2.26741837      0.67011596    100.0
 <May09-2019> <17:12:06>      6      0.79754820      0.25863563    100.0
 <May09-2019> <17:12:06>      7      0.29575598      0.09278804     92.7
 <May09-2019> <17:12:06>      8      0.51895240      0.17100713    100.0
 <May09-2019> <17:12:07>      9      0.19411692      0.06300966     62.6
 <May09-2019> <17:12:07>     10      0.18975443      0.07087639     62.6
 <May09-2019> <17:12:07>     11      0.05895884      0.02821726     27.5
 <May09-2019> <17:12:07>     12      0.01829978      0.00854137      7.6
 <May09-2019> <17:12:07>     13      0.00163614      0.00074556      0.0
 <May09-2019> <17:12:07>     14      0.00004224      0.00001198      0.0
 <May09-2019> <17:12:07>     15      0.00001398      0.00000502      0.0
 <May09-2019> <17:12:07>     16      0.00000130      0.00000042      0.0
 <May09-2019> <17:12:07>  SCF converged
 <May09-2019> <17:12:07>     17      0.00000034      0.00000009      0.0
 <May09-2019> <17:12:08>  >>>> TOTEN
 <May09-2019> <17:12:08>  >>>> POPAN
 <May09-2019> <17:12:08>  >>>> DEBYE
 <May09-2019> <17:12:08>  >>>> AMETS
 <May09-2019> <17:12:11>   Bond Energy          -0.11574055 a.u.
 <May09-2019> <17:12:11>   Bond Energy          -3.14946075 eV
 <May09-2019> <17:12:11>   Bond Energy         -72.63       kcal/mol
 <May09-2019> <17:12:11>  >>>> POPUL
 <May09-2019> <17:12:11>  NORMAL TERMINATION
 <May09-2019> <17:12:11>  END
