

 Parallel Execution: Process Information
 ==============================================================================
 Rank   Node Name                              NodeID   MyNodeRank  NodeMaster
    0   BAZIS-cn022                               0          0          0
    1   BAZIS-cn022                               0          1         -1
    2   BAZIS-cn022                               0          2         -1
    3   BAZIS-cn022                               0          3         -1
    4   BAZIS-cn022                               0          4         -1
    5   BAZIS-cn022                               0          5         -1
    6   BAZIS-cn022                               0          6         -1
    7   BAZIS-cn022                               0          7         -1
    8   BAZIS-cn022                               0          8         -1
    9   BAZIS-cn022                               0          9         -1
   10   BAZIS-cn022                               0         10         -1
   11   BAZIS-cn022                               0         11         -1
 ==============================================================================


May use up to 30771MB of RAM as shared memory on node 0


XC
    GGA BLYP
END

SCF
    iterations 250
END

EPRINT
    SFO Eig Ovl
END

ZLMFIT
    Quality normal
END

BECKEGRID
    Quality good
End

SYMMETRY C(3V)
CHARGE 0

ATOMS
    1.Fe        0.000000    0.000000    0.000000 f=1
    2.C         0.917397    1.588977    0.000000 f=1
    3.O         1.495217    2.589792    0.000000 f=1
    4.C         0.917397   -1.588977    0.000000 f=1
    5.O         1.495217   -2.589792    0.000000 f=1
    6.C         0.000000    0.000000    1.835389 f=2
    7.O         0.000000    0.000000    2.987899 f=2
    8.C         0.000000    0.000000   -1.835389 f=1
    9.O         0.000000    0.000000   -2.987899 f=1
   10.C        -1.834793    0.000000    0.000000 f=1
   11.O        -2.990435    0.000000    0.000000 f=1
END

Fragments
1 /home/tcst25/advanced_comp_chemistry/exercise3/FeCO5/method1/sp_meth1_frag1_FeCO4.t21
2 /home/tcst25/advanced_comp_chemistry/exercise3/FeCO5/method1/sp_meth1_frag2_CO.t21
End
end input

 *******************************************************************************
 *                                                                             *
 *  -------------------------------------                                      *
 *   Amsterdam Density Functional  (ADF)         2017                          *
 *  -------------------------------------                                      *
 *                                               r58813 2017-04-12             *
 *                                                                             *
 *                                                                             *
 *                              =================                              *
 *                              |               |                              *
 *                              |     A D F     |                              *
 *                              |               |                              *
 *                              =================                              *
 *                                                                             *
 *                                                                             *
 *   Online information and documentation:  https://www.scm.com/support/       *
 *   E-mail:  support@scm.com   info@scm.com                                   *
 *                                                                             *
 *   Scientific publications using ADF results must be properly referenced     *
 *   See the User Manuals (or the web site) for recommended citations          *
 *   The terms and conditions of the End User License Agreement apply to       *
 *   the use of ADF, https://www.scm.com/license-terms/                        *
 *                                                                             *
 **********************  x86_64_linux_intel / intelmpi  ************************
 
 Licensed to: VU/FEW (+ SARA) / ALGEMEEN / Amsterdam / THE NETHERLANDS
 SCM User ID: u7668
  
 ADF 2017  RunTime: May15-2019 14:01:14  Nodes: 1  Procs: 12

 Temporary files are created in /local/datastore0/tcst25/190403/kid_0.NkKuyW


Communication costs MPI_COMM_WORLD:      3.834 usec per message,   0.0184 usec per 8-byte item
Communication costs for intra-node:      3.843 usec per message,   0.0179 usec per 8-byte item

 *** (NO TITLE) ***



 ===========================
 A T T A C H E D   F I L E S
 ===========================
  



 ===============================
 M O D E L   P A R A M E T E R S
 ===============================
  
 DENSITY FUNCTIONAL POTENTIAL (scf)
    LDA:                               Exchange only                           == Not Default ==
    Gradient Corrections:              Becke88 LYP                             == Not Default ==

 SPIN  (restricted / unrestr.)
    Molecule:                          Restricted                               
    Fragments:                         Restricted                               

 OTHER ASPECTS
    Relativistic Corrections:          ---                                      

    Nuclear Charge Density Model:      Point Charge Nuclei                      
    Core Treatment:                    Frozen Orbital(s)                        

    Hyperfine or Zeeman Interaction:   ---                                      


 Fragment File(s)
 ----------------
 1:
         file : /home/tcst25/advanced_comp_chemistry/exercise3/FeCO5/method1/sp_meth1_frag1_FeCO4.t21
         jobid: ADF development version  RunTime: Apr25-2019 17:17:29  Nodes: 1  Procs: 12
         title: *** (NO TITLE) ***
 2:
         file : /home/tcst25/advanced_comp_chemistry/exercise3/FeCO5/method1/sp_meth1_frag2_CO.t21
         jobid: ADF development version  RunTime: Apr25-2019 17:19:40  Nodes: 1  Procs: 12
         title: *** (NO TITLE) ***



                                        ************************************
                                        *  R U N   T Y P E : SINGLE POINT  *
                                        ************************************
  



 ===============
 G E O M E T R Y  ***  3D  Molecule  ***
 ===============
  

 ATOMS
 =====                            X Y Z                    CHARGE
                                (Angstrom)             Nucl     +Core       At.Mass
                       --------------------------    ----------------       -------
    1  Fe              0.0000    0.0000    0.0000     26.00     26.00       55.9349
    2  C               0.9174    1.5890    0.0000      6.00      6.00       12.0000
    3  O               1.4952    2.5898    0.0000      8.00      8.00       15.9949
    4  C               0.9174   -1.5890    0.0000      6.00      6.00       12.0000
    5  O               1.4952   -2.5898    0.0000      8.00      8.00       15.9949
    6  C               0.0000    0.0000    1.8354      6.00      6.00       12.0000
    7  O               0.0000    0.0000    2.9879      8.00      8.00       15.9949
    8  C               0.0000    0.0000   -1.8354      6.00      6.00       12.0000
    9  O               0.0000    0.0000   -2.9879      8.00      8.00       15.9949
   10  C              -1.8348    0.0000    0.0000      6.00      6.00       12.0000
   11  O              -2.9904    0.0000    0.0000      8.00      8.00       15.9949


 FRAGMENTS
 =========                                     Atoms in this Fragment     Cart. coord.s (Angstrom)
                                               -------------------------------------------------------
    1  1                                                 1  Fe           0.0000    0.0000    0.0000
                                                         2  C            0.9174    1.5890    0.0000
                                                         4  C            0.9174   -1.5890    0.0000
                                                         8  C            0.0000    0.0000   -1.8354
                                                        10  C           -1.8348    0.0000    0.0000
                                                         3  O            1.4952    2.5898    0.0000
                                                         5  O            1.4952   -2.5898    0.0000
                                                         9  O            0.0000    0.0000   -2.9879
                                                        11  O           -2.9904    0.0000    0.0000
    2  2                                                 6  C            0.0000    0.0000    1.8354
                                                         7  O            0.0000    0.0000    2.9879


 Interatomic Distance Matrix (Angstrom)
 --------------------------------------

   1)     0.000
   2)     1.835   0.000
   3)     2.990   1.156   0.000
   4)     1.835   3.178   4.219   0.000
   5)     2.990   4.219   5.180   1.156   0.000
   6)     1.835   2.595   3.509   2.595   3.509   0.000
   7)     2.988   3.506   4.227   3.506   4.227   1.153   0.000
   8)     1.835   2.595   3.509   2.595   3.509   3.671   4.823   0.000
   9)     2.988   3.506   4.227   3.506   4.227   4.823   5.976   1.153   0.000
  10)     1.835   3.178   4.219   3.178   4.219   2.595   3.506   2.595   3.506   0.000
  11)     2.990   4.219   5.180   4.219   5.180   3.509   4.227   3.509   4.227   1.156
          0.000

 Min. Distance =    1.1525
 Max. Distance =    5.9758



 =====================================
 S Y M M E T R Y ,   E L E C T R O N S
 =====================================
  
 Symmetry: C(3V)

 Irreducible Representations, including subspecies
 -------------------------------------------------
 A1
 A2
 E1:1  E1:2


 Configuration of Valence Electrons
 ==================================
 ( determined in the SCF procedure )

 Total:   96

 Net Charge: 0 (Nuclei minus Electrons)

 Aufbau principle for MO occupations will be applied through SCF cycle no.     125
 Thereafter, the program will assign electrons to MOs that are spatially
 similar to the occupied MOs in a "reference" cycle ("KeepOrbitals").
 The reference cycle is always the PREVIOUS cycle: it will evolve with
 the SCF procedure.
1
 ***************************************************************************************************



                                      ****************************************
                                      *  B U I L D : (Fragments, Functions)  *
                                      ****************************************
  

 The individual fragments are copies of the corresponding 'Master' fragments defined on the fragment files.
 However, they may have been rotated (and translated) with respect to the Master. The local coordinate axes
 of each fragment (which define for instance the spatial orientation in the current molecule of a fragment
 P:x orbital) are not necessarily those of the molecule.
 The local frame (if different from the molecular one) is printed to enable an interpretation of the expan-
 sion of an MO in Fragment Orbitals.



                                              ***********************
                                              *  Fragment Type : 1  *
                                              ***********************
  

 Fragment no.    1   (in the list of all fragments)
 -----------------
 The local coordinate frame is identical to the molecular frame.

 Check Atomic Coordinates:

                  Master (on file)          After Computed Tranformation               As specified on Input
           ----------------------------     ----------------------------     ---------------------------------
     1)     0.00000   0.00000   0.00000      0.00000   0.00000   0.00000       1   0.00000   0.00000   0.00000
     2)     0.91740   1.58898   0.00000      0.91740   1.58898   0.00000       2   0.91740   1.58898   0.00000
     3)     0.91740  -1.58898   0.00000      0.91740  -1.58898   0.00000       4   0.91740  -1.58898   0.00000
     4)     0.00000   0.00000  -1.83539      0.00000   0.00000  -1.83539       8   0.00000   0.00000  -1.83539
     5)    -1.83479   0.00000   0.00000     -1.83479   0.00000   0.00000      10  -1.83479   0.00000   0.00000
     6)     1.49522   2.58979   0.00000      1.49522   2.58979   0.00000       3   1.49522   2.58979   0.00000
     7)     1.49522  -2.58979   0.00000      1.49522  -2.58979   0.00000       5   1.49522  -2.58979   0.00000
     8)     0.00000   0.00000  -2.98790      0.00000   0.00000  -2.98790       9   0.00000   0.00000  -2.98790
     9)    -2.99043   0.00000   0.00000     -2.99043   0.00000   0.00000      11  -2.99043   0.00000   0.00000



                                              ***********************
                                              *  Fragment Type : 2  *
                                              ***********************
  

 Fragment no.    2   (in the list of all fragments)
 -----------------
 The local coordinate frame is identical to the molecular frame.

 Check Atomic Coordinates:

                  Master (on file)          After Computed Tranformation               As specified on Input
           ----------------------------     ----------------------------     ---------------------------------
     1)     0.00000   0.00000   1.83539      0.00000   0.00000   1.83539       6   0.00000   0.00000   1.83539
     2)     0.00000   0.00000   2.98790      0.00000   0.00000   2.98790       7   0.00000   0.00000   2.98790



 =======
 S F O s  ***  (Symmetrized Fragment Orbitals)  ***
 =======
  
 SFOs are linear combinations of (valence) Fragment Orbitals (FOs), such that the SFOs transform as the
 irreducible representations of the (molecular) symmetry group. Each SFO is therefore characterized by
 an irrep of the molecule and by a few (or only one) generating FOs.
 The SFOs constitute a symmetry-adapted basis for the Fock matrix. The MO eigenvector coefficients in
 this basis provide a direct interpretation of the MOs in terms of Frontier Orbital Theory.

 The SFOs are combined with auxiliary Core Functions (CFs) to ensure orthogonalization on the (frozen)
 Core Orbitals (COs). The Core-orthogonalized SFOs (CSFOs) constitute the true Fock basis.

 The FOs, and hence also the (C)SFOs are combinations of the elementary basis functions (BAS). The basis
 functions that participate in the description of the SFOs depend on the irrep. The indices of the
 involved functions are printed below for each irrep.
 (The complete list of primitive basis functions is printed in another section)

 Total nr. of (C)SFOs (summation over all irreps) :   309

 NOTE: a (C)SFO that is defined as a combination of more than one FO is usually NOT normalized.



                                       === A1 ===
 Nr. of SFOs :  100
 Cartesian basis functions that participate in this irrep (total number =   255) :
      1     2     3     4    11    12    40    41    42     7
     10    15    18    21    45    27    33    39    22    25
     28    31    34    37    55    48    53    46    49    56
     86   146    57    87   147    58    88   148    59    89
    149    60    90   150    63    93   153    66    96   156
     69    99   159    61    62    91    92   151    64    65
     94    95   154    67    68    97    98   157    75   105
    165    72    74   102   104   162    70    71    73   100
    101   103   160   163    85   115   175    81    84   111
    114   171    78    80    83   108   110   113   168   173
     76    77    79    82   106   107   109   112   166   169
    116   117   118   119   120   123   126   129   135   130
    133   145   138   143   136   139   176   206   266   177
    207   267   178   208   268   179   209   269   180   210
    270   183   213   273   186   216   276   189   219   279
    181   182   211   212   271   184   185   214   215   274
    187   188   217   218   277   195   225   285   192   194
    222   224   282   190   191   193   220   221   223   280
    283   205   235   295   201   204   231   234   291   198
    200   203   228   230   233   288   293   196   197   199
    202   226   227   229   232   286   289   236   237   238
    239   240   243   246   249   255   250   253   265   258
    263   256   259   296   297   298   299   300   303   306
    309   315   310   313   325   318   323   316   319   326
    327   328   329   330   333   336   339   345   340   343
    355   348   353   346   349

    SFO  (index         Fragment          Generating    Expansion in Fragment Orbitals
  indx  incl.CFs)   Occup   Orb.Energy   FragmentType  Coeff.   Orbital     on Fragment
 --------------------------------------------------------------------------------------
     1       1      2.000    -254.807 au  1             1.00      1 A1              1
                        (   -6933.656 eV)
     2       2      2.000     -29.573 au  1             1.00      2 A1              1
                        (    -804.731 eV)
     3       3      2.000     -25.538 au  1             1.00      3 A1              1
                        (    -694.916 eV)
     4       4      2.000     -18.885 au  1             1.00      4 A1              1
                        (    -513.880 eV)
     5       5      2.000     -18.867 au  1             1.00      5 A1              1
                        (    -513.409 eV)
     6       6      2.000     -10.064 au  1             1.00      6 A1              1
                        (    -273.861 eV)
     7       7      2.000     -10.034 au  1             1.00      7 A1              1
                        (    -273.043 eV)
     8       8      2.000      -3.303 au  1             1.00      8 A1              1
                        (     -89.875 eV)
     9       9      2.000      -2.145 au  1             1.00      9 A1              1
                        (     -58.356 eV)
    10      10      2.000      -1.065 au  1             1.00     10 A1              1
                        (     -28.991 eV)
    11      11      2.000      -1.045 au  1             1.00     11 A1              1
                        (     -28.449 eV)
    12      12      2.000      -0.550 au  1             1.00     12 A1              1
                        (     -14.957 eV)
    13      13      2.000      -0.515 au  1             1.00     13 A1              1
                        (     -14.018 eV)
    14      14      2.000      -0.451 au  1             1.00     14 A1              1
                        (     -12.267 eV)
    15      15      2.000      -0.424 au  1             1.00     15 A1              1
                        (     -11.550 eV)
    16      16      2.000      -0.403 au  1             1.00     16 A1              1
                        (     -10.967 eV)
    17      17       --        -0.189 au  1             1.00     17 A1              1
                        (      -5.154 eV)
    18      18       --        -0.074 au  1             1.00     18 A1              1
                        (      -2.027 eV)
    19      19       --        -0.004 au  1             1.00     19 A1              1
                        (      -0.120 eV)
    20      20       --         0.068 au  1             1.00     20 A1              1
                        (       1.858 eV)
    21      21       --         0.107 au  1             1.00     21 A1              1
                        (       2.910 eV)
    22      22       --         0.201 au  1             1.00     22 A1              1
                        (       5.465 eV)
    23      23       --         0.218 au  1             1.00     23 A1              1
                        (       5.941 eV)
    24      24       --         0.317 au  1             1.00     24 A1              1
                        (       8.628 eV)
    25      25       --         0.417 au  1             1.00     25 A1              1
                        (      11.347 eV)
    26      26       --         0.418 au  1             1.00     26 A1              1
                        (      11.383 eV)
    27      27       --         0.467 au  1             1.00     27 A1              1
                        (      12.713 eV)
    28      28       --         0.501 au  1             1.00     28 A1              1
                        (      13.627 eV)
    29      29       --         0.621 au  1             1.00     29 A1              1
                        (      16.890 eV)
    30      30       --         0.742 au  1             1.00     30 A1              1
                        (      20.194 eV)
    31      31       --         0.826 au  1             1.00     31 A1              1
                        (      22.482 eV)
    32      32       --         0.976 au  1             1.00     32 A1              1
                        (      26.557 eV)
    33      33       --         1.045 au  1             1.00     33 A1              1
                        (      28.437 eV)
    34      34       --         1.179 au  1             1.00     34 A1              1
                        (      32.095 eV)
    35      35       --         1.305 au  1             1.00     35 A1              1
                        (      35.499 eV)
    36      36       --         1.455 au  1             1.00     36 A1              1
                        (      39.581 eV)
    37      37       --         1.574 au  1             1.00     37 A1              1
                        (      42.836 eV)
    38      38       --         1.581 au  1             1.00     38 A1              1
                        (      43.009 eV)
    39      39       --         1.691 au  1             1.00     39 A1              1
                        (      46.028 eV)
    40      40       --         1.880 au  1             1.00     40 A1              1
                        (      51.165 eV)
    41      41       --         1.995 au  1             1.00     41 A1              1
                        (      54.294 eV)
    42      42       --         2.237 au  1             1.00     42 A1              1
                        (      60.875 eV)
    43      43       --         2.264 au  1             1.00     43 A1              1
                        (      61.617 eV)
    44      44       --         2.304 au  1             1.00     44 A1              1
                        (      62.688 eV)
    45      45       --         2.550 au  1             1.00     45 A1              1
                        (      69.379 eV)
    46      46       --         2.922 au  1             1.00     46 A1              1
                        (      79.522 eV)
    47      47       --         2.939 au  1             1.00     47 A1              1
                        (      79.970 eV)
    48      48       --         3.228 au  1             1.00     48 A1              1
                        (      87.834 eV)
    49      49       --         3.253 au  1             1.00     49 A1              1
                        (      88.525 eV)
    50      50       --         3.281 au  1             1.00     50 A1              1
                        (      89.270 eV)
    51      51       --         3.351 au  1             1.00     51 A1              1
                        (      91.198 eV)
    52      52       --         3.523 au  1             1.00     52 A1              1
                        (      95.856 eV)
    53      53       --         3.958 au  1             1.00     53 A1              1
                        (     107.700 eV)
    54      54       --         4.128 au  1             1.00     54 A1              1
                        (     112.331 eV)
    55      55       --         4.168 au  1             1.00     55 A1              1
                        (     113.407 eV)
    56      56       --         4.218 au  1             1.00     56 A1              1
                        (     114.769 eV)
    57      57       --         4.331 au  1             1.00     57 A1              1
                        (     117.848 eV)
    58      58       --         4.520 au  1             1.00     58 A1              1
                        (     123.002 eV)
    59      59       --         5.124 au  1             1.00     59 A1              1
                        (     139.431 eV)
    60      60       --         5.171 au  1             1.00     60 A1              1
                        (     140.717 eV)
    61      61       --         5.619 au  1             1.00     61 A1              1
                        (     152.903 eV)
    62      62       --         5.917 au  1             1.00     62 A1              1
                        (     161.023 eV)
    63      63       --         5.982 au  1             1.00     63 A1              1
                        (     162.773 eV)
    64      64       --         6.478 au  1             1.00     64 A1              1
                        (     176.282 eV)
    65      65       --         6.756 au  1             1.00     65 A1              1
                        (     183.852 eV)
    66      66       --         7.042 au  1             1.00     66 A1              1
                        (     191.629 eV)
    67      67       --         9.285 au  1             1.00     67 A1              1
                        (     252.645 eV)
    68      68       --        10.270 au  1             1.00     68 A1              1
                        (     279.453 eV)
    69      69       --        10.443 au  1             1.00     69 A1              1
                        (     284.176 eV)
    70      70       --        15.503 au  1             1.00     70 A1              1
                        (     421.871 eV)
    71      71       --        15.562 au  1             1.00     71 A1              1
                        (     423.462 eV)
    72      72       --        31.401 au  1             1.00     72 A1              1
                        (     854.474 eV)
    73      73       --        55.472 au  1             1.00     73 A1              1
                        (    1509.475 eV)
    74      74       --        56.196 au  1             1.00     74 A1              1
                        (    1529.168 eV)
    75      75       --        68.800 au  1             1.00     75 A1              1
                        (    1872.133 eV)
    76      76       --       129.040 au  1             1.00     76 A1              1
                        (    3511.359 eV)
    77      77       --       129.220 au  1             1.00     77 A1              1
                        (    3516.260 eV)
    78      78       --       523.071 au  1             1.00     78 A1              1
                        (   14233.477 eV)
    79      79      2.000     -18.885 au  2             1.00      1 A1              2
                        (    -513.899 eV)
    80      80      2.000     -10.034 au  2             1.00      2 A1              2
                        (    -273.046 eV)
    81      81      2.000      -1.058 au  2             1.00      3 A1              2
                        (     -28.792 eV)
    82      82      2.000      -0.514 au  2             1.00      4 A1              2
                        (     -13.980 eV)
    83      83      2.000      -0.331 au  2             1.00      5 A1              2
                        (      -9.014 eV)
    84      84       --         0.103 au  2             1.00      6 A1              2
                        (       2.790 eV)
    85      85       --         0.287 au  2             1.00      7 A1              2
                        (       7.819 eV)
    86      86       --         0.384 au  2             1.00      8 A1              2
                        (      10.452 eV)
    87      87       --         0.555 au  2             1.00      9 A1              2
                        (      15.094 eV)
    88      88       --         1.291 au  2             1.00     10 A1              2
                        (      35.133 eV)
    89      89       --         1.844 au  2             1.00     11 A1              2
                        (      50.171 eV)
    90      90       --         2.140 au  2             1.00     12 A1              2
                        (      58.240 eV)
    91      91       --         2.688 au  2             1.00     13 A1              2
                        (      73.137 eV)
    92      92       --         3.242 au  2             1.00     14 A1              2
                        (      88.228 eV)
    93      93       --         3.868 au  2             1.00     15 A1              2
                        (     105.242 eV)
    94      94       --         4.191 au  2             1.00     16 A1              2
                        (     114.039 eV)
    95      95       --         5.086 au  2             1.00     17 A1              2
                        (     138.391 eV)
    96      96       --         5.956 au  2             1.00     18 A1              2
                        (     162.061 eV)
    97      97       --         9.076 au  2             1.00     19 A1              2
                        (     246.964 eV)
    98      98       --        15.332 au  2             1.00     20 A1              2
                        (     417.212 eV)
    99      99       --        53.307 au  2             1.00     21 A1              2
                        (    1450.564 eV)
   100     100       --       128.548 au  2             1.00     22 A1              2
                        (    3497.966 eV)



                                       === A2 ===
 Nr. of SFOs :   21
 Cartesian basis functions that participate in this irrep (total number =   108) :
     47    52    61    62    91    92   152    64    65    94
     95   155    67    68    97    98   158    72    74   102
    104   164    70    71    73   100   101   103   161    81
     84   111   114   174    78    80    83   108   110   113
    170    76    77    79    82   106   107   109   112   167
    172   137   142   181   182   211   212   272   184   185
    214   215   275   187   188   217   218   278   192   194
    222   224   284   190   191   193   220   221   223   281
    201   204   231   234   294   198   200   203   228   230
    233   290   196   197   199   202   226   227   229   232
    287   292   257   262   317   322   347   352

    SFO  (index         Fragment          Generating    Expansion in Fragment Orbitals
  indx  incl.CFs)   Occup   Orb.Energy   FragmentType  Coeff.   Orbital     on Fragment
 --------------------------------------------------------------------------------------
     1       1      2.000      -0.410 au  1             1.00      1 A2              1
                        (     -11.156 eV)
     2       2       --        -0.064 au  1             1.00      2 A2              1
                        (      -1.755 eV)
     3       3       --         0.263 au  1             1.00      3 A2              1
                        (       7.166 eV)
     4       4       --         0.692 au  1             1.00      4 A2              1
                        (      18.842 eV)
     5       5       --         0.914 au  1             1.00      5 A2              1
                        (      24.860 eV)
     6       6       --         1.075 au  1             1.00      6 A2              1
                        (      29.250 eV)
     7       7       --         1.499 au  1             1.00      7 A2              1
                        (      40.801 eV)
     8       8       --         1.802 au  1             1.00      8 A2              1
                        (      49.036 eV)
     9       9       --         2.402 au  1             1.00      9 A2              1
                        (      65.371 eV)
    10      10       --         2.729 au  1             1.00     10 A2              1
                        (      74.256 eV)
    11      11       --         3.238 au  1             1.00     11 A2              1
                        (      88.108 eV)
    12      12       --         3.255 au  1             1.00     12 A2              1
                        (      88.577 eV)
    13      13       --         3.282 au  1             1.00     13 A2              1
                        (      89.308 eV)
    14      14       --         4.058 au  1             1.00     14 A2              1
                        (     110.431 eV)
    15      15       --         4.159 au  1             1.00     15 A2              1
                        (     113.183 eV)
    16      16       --         4.205 au  1             1.00     16 A2              1
                        (     114.433 eV)
    17      17       --         4.480 au  1             1.00     17 A2              1
                        (     121.914 eV)
    18      18       --         5.159 au  1             1.00     18 A2              1
                        (     140.373 eV)
    19      19       --         7.117 au  1             1.00     19 A2              1
                        (     193.671 eV)
    20      20       --         3.242 au  2             1.00      1 A2              2
                        (      88.228 eV)
    21      21       --         4.191 au  2             1.00      2 A2              2
                        (     114.039 eV)



                                       === E1:1 ===
 Nr. of SFOs :   94
 Cartesian basis functions that participate in this irrep (total number =   226) :
      5     8    13    16    19    43    24    30    36    22
     25    28    31    34    37    51    48    53    46    49
     56    86   146    57    87   147    58    88   148    59
     89   149    60    90   150    63    93   153    66    96
    156    69    99   159    61    62    91    92   151    64
     65    94    95   154    67    68    97    98   157    75
    105   165    72    74   102   104   162    70    71    73
    100   101   103   160   163    85   115   175    81    84
    111   114   171    78    80    83   108   110   113   168
    173    76    77    79    82   106   107   109   112   166
    169   121   124   127   132   130   133   141   138   143
    136   139   176   206   266   177   207   267   178   208
    268   179   209   269   180   210   270   183   213   273
    186   216   276   189   219   279   181   182   211   212
    271   184   185   214   215   274   187   188   217   218
    277   195   225   285   192   194   222   224   282   190
    191   193   220   221   223   280   283   205   235   295
    201   204   231   234   291   198   200   203   228   230
    233   288   293   196   197   199   202   226   227   229
    232   286   289   241   244   247   252   250   253   261
    258   263   256   259   301   304   307   312   310   313
    321   318   323   316   319   331   334   337   342   340
    343   351   348   353   346   349

    SFO  (index         Fragment          Generating    Expansion in Fragment Orbitals
  indx  incl.CFs)   Occup   Orb.Energy   FragmentType  Coeff.   Orbital     on Fragment
 --------------------------------------------------------------------------------------
     1       1      2.000     -25.520 au  1             1.00      1 E1:1            1
                        (    -694.434 eV)
     2       2      2.000     -18.867 au  1             1.00      2 E1:1            1
                        (    -513.409 eV)
     3       3      2.000     -10.034 au  1             1.00      3 E1:1            1
                        (    -273.043 eV)
     4       4      2.000      -2.112 au  1             1.00      4 E1:1            1
                        (     -57.472 eV)
     5       5      2.000      -1.045 au  1             1.00      5 E1:1            1
                        (     -28.446 eV)
     6       6      2.000      -0.512 au  1             1.00      6 E1:1            1
                        (     -13.932 eV)
     7       7      2.000      -0.440 au  1             1.00      7 E1:1            1
                        (     -11.984 eV)
     8       8      2.000      -0.417 au  1             1.00      8 E1:1            1
                        (     -11.336 eV)
     9       9      2.000      -0.415 au  1             1.00      9 E1:1            1
                        (     -11.298 eV)
    10      10      2.000      -0.399 au  1             1.00     10 E1:1            1
                        (     -10.846 eV)
    11      11      2.000      -0.261 au  1             1.00     11 E1:1            1
                        (      -7.100 eV)
    12      12      2.000      -0.214 au  1             1.00     12 E1:1            1
                        (      -5.825 eV)
    13      13       --        -0.084 au  1             1.00     13 E1:1            1
                        (      -2.274 eV)
    14      14       --        -0.054 au  1             1.00     14 E1:1            1
                        (      -1.466 eV)
    15      15       --        -0.047 au  1             1.00     15 E1:1            1
                        (      -1.286 eV)
    16      16       --         0.074 au  1             1.00     16 E1:1            1
                        (       2.021 eV)
    17      17       --         0.141 au  1             1.00     17 E1:1            1
                        (       3.838 eV)
    18      18       --         0.170 au  1             1.00     18 E1:1            1
                        (       4.631 eV)
    19      19       --         0.267 au  1             1.00     19 E1:1            1
                        (       7.279 eV)
    20      20       --         0.339 au  1             1.00     20 E1:1            1
                        (       9.237 eV)
    21      21       --         0.393 au  1             1.00     21 E1:1            1
                        (      10.699 eV)
    22      22       --         0.488 au  1             1.00     22 E1:1            1
                        (      13.286 eV)
    23      23       --         0.535 au  1             1.00     23 E1:1            1
                        (      14.569 eV)
    24      24       --         0.565 au  1             1.00     24 E1:1            1
                        (      15.375 eV)
    25      25       --         0.598 au  1             1.00     25 E1:1            1
                        (      16.285 eV)
    26      26       --         0.690 au  1             1.00     26 E1:1            1
                        (      18.783 eV)
    27      27       --         0.820 au  1             1.00     27 E1:1            1
                        (      22.321 eV)
    28      28       --         0.921 au  1             1.00     28 E1:1            1
                        (      25.061 eV)
    29      29       --         0.943 au  1             1.00     29 E1:1            1
                        (      25.660 eV)
    30      30       --         0.964 au  1             1.00     30 E1:1            1
                        (      26.219 eV)
    31      31       --         1.037 au  1             1.00     31 E1:1            1
                        (      28.218 eV)
    32      32       --         1.174 au  1             1.00     32 E1:1            1
                        (      31.937 eV)
    33      33       --         1.293 au  1             1.00     33 E1:1            1
                        (      35.198 eV)
    34      34       --         1.369 au  1             1.00     34 E1:1            1
                        (      37.266 eV)
    35      35       --         1.431 au  1             1.00     35 E1:1            1
                        (      38.927 eV)
    36      36       --         1.509 au  1             1.00     36 E1:1            1
                        (      41.065 eV)
    37      37       --         1.532 au  1             1.00     37 E1:1            1
                        (      41.690 eV)
    38      38       --         1.575 au  1             1.00     38 E1:1            1
                        (      42.845 eV)
    39      39       --         1.632 au  1             1.00     39 E1:1            1
                        (      44.400 eV)
    40      40       --         1.816 au  1             1.00     40 E1:1            1
                        (      49.422 eV)
    41      41       --         1.906 au  1             1.00     41 E1:1            1
                        (      51.875 eV)
    42      42       --         2.199 au  1             1.00     42 E1:1            1
                        (      59.834 eV)
    43      43       --         2.233 au  1             1.00     43 E1:1            1
                        (      60.773 eV)
    44      44       --         2.303 au  1             1.00     44 E1:1            1
                        (      62.681 eV)
    45      45       --         2.365 au  1             1.00     45 E1:1            1
                        (      64.345 eV)
    46      46       --         2.499 au  1             1.00     46 E1:1            1
                        (      67.994 eV)
    47      47       --         2.527 au  1             1.00     47 E1:1            1
                        (      68.772 eV)
    48      48       --         2.612 au  1             1.00     48 E1:1            1
                        (      71.066 eV)
    49      49       --         2.997 au  1             1.00     49 E1:1            1
                        (      81.555 eV)
    50      50       --         3.250 au  1             1.00     50 E1:1            1
                        (      88.449 eV)
    51      51       --         3.255 au  1             1.00     51 E1:1            1
                        (      88.568 eV)
    52      52       --         3.272 au  1             1.00     52 E1:1            1
                        (      89.035 eV)
    53      53       --         3.314 au  1             1.00     53 E1:1            1
                        (      90.166 eV)
    54      54       --         3.335 au  1             1.00     54 E1:1            1
                        (      90.759 eV)
    55      55       --         3.353 au  1             1.00     55 E1:1            1
                        (      91.229 eV)
    56      56       --         3.961 au  1             1.00     56 E1:1            1
                        (     107.772 eV)
    57      57       --         3.963 au  1             1.00     57 E1:1            1
                        (     107.844 eV)
    58      58       --         4.001 au  1             1.00     58 E1:1            1
                        (     108.884 eV)
    59      59       --         4.183 au  1             1.00     59 E1:1            1
                        (     113.819 eV)
    60      60       --         4.189 au  1             1.00     60 E1:1            1
                        (     113.994 eV)
    61      61       --         4.259 au  1             1.00     61 E1:1            1
                        (     115.896 eV)
    62      62       --         4.300 au  1             1.00     62 E1:1            1
                        (     116.998 eV)
    63      63       --         4.433 au  1             1.00     63 E1:1            1
                        (     120.621 eV)
    64      64       --         4.456 au  1             1.00     64 E1:1            1
                        (     121.266 eV)
    65      65       --         5.145 au  1             1.00     65 E1:1            1
                        (     139.992 eV)
    66      66       --         5.189 au  1             1.00     66 E1:1            1
                        (     141.206 eV)
    67      67       --         5.211 au  1             1.00     67 E1:1            1
                        (     141.794 eV)
    68      68       --         5.365 au  1             1.00     68 E1:1            1
                        (     145.996 eV)
    69      69       --         5.588 au  1             1.00     69 E1:1            1
                        (     152.058 eV)
    70      70       --         6.179 au  1             1.00     70 E1:1            1
                        (     168.129 eV)
    71      71       --         6.426 au  1             1.00     71 E1:1            1
                        (     174.864 eV)
    72      72       --         7.033 au  1             1.00     72 E1:1            1
                        (     191.372 eV)
    73      73       --         7.072 au  1             1.00     73 E1:1            1
                        (     192.443 eV)
    74      74       --         7.140 au  1             1.00     74 E1:1            1
                        (     194.303 eV)
    75      75       --         9.467 au  1             1.00     75 E1:1            1
                        (     257.606 eV)
    76      76       --        10.453 au  1             1.00     76 E1:1            1
                        (     284.432 eV)
    77      77       --        15.498 au  1             1.00     77 E1:1            1
                        (     421.712 eV)
    78      78       --        55.411 au  1             1.00     78 E1:1            1
                        (    1507.823 eV)
    79      79       --        69.241 au  1             1.00     79 E1:1            1
                        (    1884.153 eV)
    80      80       --       128.994 au  1             1.00     80 E1:1            1
                        (    3510.106 eV)
    81      81      2.000      -0.423 au  2             1.00      1 E1:1            2
                        (     -11.497 eV)
    82      82       --        -0.078 au  2             1.00      2 E1:1            2
                        (      -2.127 eV)
    83      83       --         0.157 au  2             1.00      3 E1:1            2
                        (       4.276 eV)
    84      84       --         0.463 au  2             1.00      4 E1:1            2
                        (      12.597 eV)
    85      85       --         0.906 au  2             1.00      5 E1:1            2
                        (      24.655 eV)
    86      86       --         1.123 au  2             1.00      6 E1:1            2
                        (      30.568 eV)
    87      87       --         1.500 au  2             1.00      7 E1:1            2
                        (      40.828 eV)
    88      88       --         1.890 au  2             1.00      8 E1:1            2
                        (      51.441 eV)
    89      89       --         2.443 au  2             1.00      9 E1:1            2
                        (      66.468 eV)
    90      90       --         3.279 au  2             1.00     10 E1:1            2
                        (      89.218 eV)
    91      91       --         3.884 au  2             1.00     11 E1:1            2
                        (     105.685 eV)
    92      92       --         3.999 au  2             1.00     12 E1:1            2
                        (     108.823 eV)
    93      93       --         5.180 au  2             1.00     13 E1:1            2
                        (     140.956 eV)
    94      94       --         6.903 au  2             1.00     14 E1:1            2
                        (     187.831 eV)



                                       === E1:2 ===
 Nr. of SFOs :   94
 Cartesian basis functions that participate in this irrep (total number =   190) :
      6     9    14    17    20    44    26    32    38    23
     29    35    54    50    47    52    56    86    57    87
     58    88    59    89    60    90    63    93    66    96
     69    99    61    62    91    92   152    64    65    94
     95   155    67    68    97    98   158    75   105    72
     74   102   104   164    70    71    73   100   101   103
    161    85   115    81    84   111   114   174    78    80
     83   108   110   113   170    76    77    79    82   106
    107   109   112   167   172   122   125   128   134   131
    144   140   137   142   176   206   177   207   178   208
    179   209   180   210   183   213   186   216   189   219
    181   182   211   212   272   184   185   214   215   275
    187   188   217   218   278   195   225   192   194   222
    224   284   190   191   193   220   221   223   281   205
    235   201   204   231   234   294   198   200   203   228
    230   233   290   196   197   199   202   226   227   229
    232   287   292   242   245   248   254   251   264   260
    257   262   302   305   308   314   311   324   320   317
    322   332   335   338   344   341   354   350   347   352

    SFO  (index         Fragment          Generating    Expansion in Fragment Orbitals
  indx  incl.CFs)   Occup   Orb.Energy   FragmentType  Coeff.   Orbital     on Fragment
 --------------------------------------------------------------------------------------
     1       1      2.000     -25.520 au  1             1.00      1 E1:2            1
                        (    -694.434 eV)
     2       2      2.000     -18.867 au  1             1.00      2 E1:2            1
                        (    -513.409 eV)
     3       3      2.000     -10.034 au  1             1.00      3 E1:2            1
                        (    -273.043 eV)
     4       4      2.000      -2.112 au  1             1.00      4 E1:2            1
                        (     -57.472 eV)
     5       5      2.000      -1.045 au  1             1.00      5 E1:2            1
                        (     -28.446 eV)
     6       6      2.000      -0.512 au  1             1.00      6 E1:2            1
                        (     -13.932 eV)
     7       7      2.000      -0.440 au  1             1.00      7 E1:2            1
                        (     -11.984 eV)
     8       8      2.000      -0.417 au  1             1.00      8 E1:2            1
                        (     -11.336 eV)
     9       9      2.000      -0.415 au  1             1.00      9 E1:2            1
                        (     -11.298 eV)
    10      10      2.000      -0.399 au  1             1.00     10 E1:2            1
                        (     -10.846 eV)
    11      11      2.000      -0.261 au  1             1.00     11 E1:2            1
                        (      -7.100 eV)
    12      12      2.000      -0.214 au  1             1.00     12 E1:2            1
                        (      -5.825 eV)
    13      13       --        -0.084 au  1             1.00     13 E1:2            1
                        (      -2.274 eV)
    14      14       --        -0.054 au  1             1.00     14 E1:2            1
                        (      -1.466 eV)
    15      15       --        -0.047 au  1             1.00     15 E1:2            1
                        (      -1.286 eV)
    16      16       --         0.074 au  1             1.00     16 E1:2            1
                        (       2.021 eV)
    17      17       --         0.141 au  1             1.00     17 E1:2            1
                        (       3.838 eV)
    18      18       --         0.170 au  1             1.00     18 E1:2            1
                        (       4.631 eV)
    19      19       --         0.267 au  1             1.00     19 E1:2            1
                        (       7.279 eV)
    20      20       --         0.339 au  1             1.00     20 E1:2            1
                        (       9.237 eV)
    21      21       --         0.393 au  1             1.00     21 E1:2            1
                        (      10.699 eV)
    22      22       --         0.488 au  1             1.00     22 E1:2            1
                        (      13.286 eV)
    23      23       --         0.535 au  1             1.00     23 E1:2            1
                        (      14.569 eV)
    24      24       --         0.565 au  1             1.00     24 E1:2            1
                        (      15.375 eV)
    25      25       --         0.598 au  1             1.00     25 E1:2            1
                        (      16.285 eV)
    26      26       --         0.690 au  1             1.00     26 E1:2            1
                        (      18.783 eV)
    27      27       --         0.820 au  1             1.00     27 E1:2            1
                        (      22.321 eV)
    28      28       --         0.921 au  1             1.00     28 E1:2            1
                        (      25.061 eV)
    29      29       --         0.943 au  1             1.00     29 E1:2            1
                        (      25.660 eV)
    30      30       --         0.964 au  1             1.00     30 E1:2            1
                        (      26.219 eV)
    31      31       --         1.037 au  1             1.00     31 E1:2            1
                        (      28.218 eV)
    32      32       --         1.174 au  1             1.00     32 E1:2            1
                        (      31.937 eV)
    33      33       --         1.293 au  1             1.00     33 E1:2            1
                        (      35.198 eV)
    34      34       --         1.369 au  1             1.00     34 E1:2            1
                        (      37.266 eV)
    35      35       --         1.431 au  1             1.00     35 E1:2            1
                        (      38.927 eV)
    36      36       --         1.509 au  1             1.00     36 E1:2            1
                        (      41.065 eV)
    37      37       --         1.532 au  1             1.00     37 E1:2            1
                        (      41.690 eV)
    38      38       --         1.575 au  1             1.00     38 E1:2            1
                        (      42.845 eV)
    39      39       --         1.632 au  1             1.00     39 E1:2            1
                        (      44.400 eV)
    40      40       --         1.816 au  1             1.00     40 E1:2            1
                        (      49.422 eV)
    41      41       --         1.906 au  1             1.00     41 E1:2            1
                        (      51.875 eV)
    42      42       --         2.199 au  1             1.00     42 E1:2            1
                        (      59.834 eV)
    43      43       --         2.233 au  1             1.00     43 E1:2            1
                        (      60.773 eV)
    44      44       --         2.303 au  1             1.00     44 E1:2            1
                        (      62.681 eV)
    45      45       --         2.365 au  1             1.00     45 E1:2            1
                        (      64.345 eV)
    46      46       --         2.499 au  1             1.00     46 E1:2            1
                        (      67.994 eV)
    47      47       --         2.527 au  1             1.00     47 E1:2            1
                        (      68.772 eV)
    48      48       --         2.612 au  1             1.00     48 E1:2            1
                        (      71.066 eV)
    49      49       --         2.997 au  1             1.00     49 E1:2            1
                        (      81.555 eV)
    50      50       --         3.250 au  1             1.00     50 E1:2            1
                        (      88.449 eV)
    51      51       --         3.255 au  1             1.00     51 E1:2            1
                        (      88.568 eV)
    52      52       --         3.272 au  1             1.00     52 E1:2            1
                        (      89.035 eV)
    53      53       --         3.314 au  1             1.00     53 E1:2            1
                        (      90.166 eV)
    54      54       --         3.335 au  1             1.00     54 E1:2            1
                        (      90.759 eV)
    55      55       --         3.353 au  1             1.00     55 E1:2            1
                        (      91.229 eV)
    56      56       --         3.961 au  1             1.00     56 E1:2            1
                        (     107.772 eV)
    57      57       --         3.963 au  1             1.00     57 E1:2            1
                        (     107.844 eV)
    58      58       --         4.001 au  1             1.00     58 E1:2            1
                        (     108.884 eV)
    59      59       --         4.183 au  1             1.00     59 E1:2            1
                        (     113.819 eV)
    60      60       --         4.189 au  1             1.00     60 E1:2            1
                        (     113.994 eV)
    61      61       --         4.259 au  1             1.00     61 E1:2            1
                        (     115.896 eV)
    62      62       --         4.300 au  1             1.00     62 E1:2            1
                        (     116.998 eV)
    63      63       --         4.433 au  1             1.00     63 E1:2            1
                        (     120.621 eV)
    64      64       --         4.456 au  1             1.00     64 E1:2            1
                        (     121.266 eV)
    65      65       --         5.145 au  1             1.00     65 E1:2            1
                        (     139.992 eV)
    66      66       --         5.189 au  1             1.00     66 E1:2            1
                        (     141.206 eV)
    67      67       --         5.211 au  1             1.00     67 E1:2            1
                        (     141.794 eV)
    68      68       --         5.365 au  1             1.00     68 E1:2            1
                        (     145.996 eV)
    69      69       --         5.588 au  1             1.00     69 E1:2            1
                        (     152.058 eV)
    70      70       --         6.179 au  1             1.00     70 E1:2            1
                        (     168.129 eV)
    71      71       --         6.426 au  1             1.00     71 E1:2            1
                        (     174.864 eV)
    72      72       --         7.033 au  1             1.00     72 E1:2            1
                        (     191.372 eV)
    73      73       --         7.072 au  1             1.00     73 E1:2            1
                        (     192.443 eV)
    74      74       --         7.140 au  1             1.00     74 E1:2            1
                        (     194.303 eV)
    75      75       --         9.467 au  1             1.00     75 E1:2            1
                        (     257.606 eV)
    76      76       --        10.453 au  1             1.00     76 E1:2            1
                        (     284.432 eV)
    77      77       --        15.498 au  1             1.00     77 E1:2            1
                        (     421.712 eV)
    78      78       --        55.411 au  1             1.00     78 E1:2            1
                        (    1507.823 eV)
    79      79       --        69.241 au  1             1.00     79 E1:2            1
                        (    1884.153 eV)
    80      80       --       128.994 au  1             1.00     80 E1:2            1
                        (    3510.106 eV)
    81      81      2.000      -0.423 au  2             1.00      1 E1:2            2
                        (     -11.497 eV)
    82      82       --        -0.078 au  2             1.00      2 E1:2            2
                        (      -2.127 eV)
    83      83       --         0.157 au  2             1.00      3 E1:2            2
                        (       4.276 eV)
    84      84       --         0.463 au  2             1.00      4 E1:2            2
                        (      12.597 eV)
    85      85       --         0.906 au  2             1.00      5 E1:2            2
                        (      24.655 eV)
    86      86       --         1.123 au  2             1.00      6 E1:2            2
                        (      30.568 eV)
    87      87       --         1.500 au  2             1.00      7 E1:2            2
                        (      40.828 eV)
    88      88       --         1.890 au  2             1.00      8 E1:2            2
                        (      51.441 eV)
    89      89       --         2.443 au  2             1.00      9 E1:2            2
                        (      66.468 eV)
    90      90       --         3.279 au  2             1.00     10 E1:2            2
                        (      89.218 eV)
    91      91       --         3.884 au  2             1.00     11 E1:2            2
                        (     105.685 eV)
    92      92       --         3.999 au  2             1.00     12 E1:2            2
                        (     108.823 eV)
    93      93       --         5.180 au  2             1.00     13 E1:2            2
                        (     140.956 eV)
    94      94       --         6.903 au  2             1.00     14 E1:2            2
                        (     187.831 eV)



 ================================
 (Slater-type)  F U N C T I O N S  ***  (Basis and Fit)  ***
 ================================
  

 Atom Type    1  (Fe)
 ==============

 Valence Basis Sets:  19
 -----------------------
   1 S   30.450000
   1 S   23.900000
   2 S   10.050000
   2 S    6.350000
   2 P   14.600000
   2 P    9.200000
   3 S    6.100000
   3 S    3.700000
   3 P    6.250000
   3 P    4.150000
   3 P    2.800000
   3 D    6.400000
   3 D    3.050000
   3 D    1.400000
   4 S    2.300000
   4 S    1.400000
   4 S    0.900000
   4 P    1.390000
   4 F    2.500000

 Atom Type    2  (C)
 ==============

 Valence Basis Sets:  10
 -----------------------
   1 S    7.680000
   1 S    5.000000
   2 S    1.280000
   2 S    2.100000
   2 S    4.600000
   2 P    0.820000
   2 P    1.480000
   2 P    2.940000
   3 D    2.200000
   4 F    3.300000

 Atom Type    3  (O)
 ==============

 Valence Basis Sets:  10
 -----------------------
   1 S    9.800000
   1 S    6.800000
   2 S    7.580000
   2 S    2.880000
   2 S    1.720000
   2 P    4.080000
   2 P    2.080000
   2 P    1.120000
   3 D    2.000000
   4 F    3.000000

 Atom Type    4  (C)
 ==============

 Valence Basis Sets:  10
 -----------------------
   1 S    7.680000
   1 S    5.000000
   2 S    1.280000
   2 S    2.100000
   2 S    4.600000
   2 P    0.820000
   2 P    1.480000
   2 P    2.940000
   3 D    2.200000
   4 F    3.300000

 Atom Type    5  (O)
 ==============

 Valence Basis Sets:  10
 -----------------------
   1 S    9.800000
   1 S    6.800000
   2 S    7.580000
   2 S    2.880000
   2 S    1.720000
   2 P    4.080000
   2 P    2.080000
   2 P    1.120000
   3 D    2.000000
   4 F    3.000000


 BAS: List of all Elementary Cartesian Basis Functions
 =====================================================

 The numbering in the list below (to the right of the function characteristics) is referred
 to in print-outs of MO eigenvectors and Mulliken populations in the BAS representation
 (as contrasted to the SFO representation).

 Notes:
 1. The functions are characterized by a polynomial prefactor (powers of x,y,z and r) and
    an exponential decay factor alpha.
 2. Since the basis sets are specific for an atom TYPE, the individual functions occur on
    all atoms of that type.
 3. The word 'Core' in the left margin signals that it is a Core Function (CF) : not a
    degree of freedom in the valence set, but only used to ensure orthogonalization of
    the other valence basis functions on the frozen Core Orbitals.


 (power of) X  Y  Z  R     Alpha  on Atom
            ==========     =====     ==========

 Fe                                   1
                                  ---------------------------------------------------------------------------
            0  0  0  0    30.450      1
            0  0  0  0    23.900      2
            0  0  0  1    10.050      3
            0  0  0  1     6.350      4
            1  0  0  0    14.600      5
            0  1  0  0    14.600      6
            0  0  1  0    14.600      7
            1  0  0  0     9.200      8
            0  1  0  0     9.200      9
            0  0  1  0     9.200     10
            0  0  0  2     6.100     11
            0  0  0  2     3.700     12
            1  0  0  1     6.250     13
            0  1  0  1     6.250     14
            0  0  1  1     6.250     15
            1  0  0  1     4.150     16
            0  1  0  1     4.150     17
            0  0  1  1     4.150     18
            1  0  0  1     2.800     19
            0  1  0  1     2.800     20
            0  0  1  1     2.800     21
            2  0  0  0     6.400     22
            1  1  0  0     6.400     23
            1  0  1  0     6.400     24
            0  2  0  0     6.400     25
            0  1  1  0     6.400     26
            0  0  2  0     6.400     27
            2  0  0  0     3.050     28
            1  1  0  0     3.050     29
            1  0  1  0     3.050     30
            0  2  0  0     3.050     31
            0  1  1  0     3.050     32
            0  0  2  0     3.050     33
            2  0  0  0     1.400     34
            1  1  0  0     1.400     35
            1  0  1  0     1.400     36
            0  2  0  0     1.400     37
            0  1  1  0     1.400     38
            0  0  2  0     1.400     39
            0  0  0  3     2.300     40
            0  0  0  3     1.400     41
            0  0  0  3     0.900     42
            1  0  0  2     1.390     43
            0  1  0  2     1.390     44
            0  0  1  2     1.390     45
            3  0  0  0     2.500     46
            2  1  0  0     2.500     47
            2  0  1  0     2.500     48
            1  2  0  0     2.500     49
            1  1  1  0     2.500     50
            1  0  2  0     2.500     51
            0  3  0  0     2.500     52
            0  2  1  0     2.500     53
            0  1  2  0     2.500     54
            0  0  3  0     2.500     55

 C                                    2    3    4    5
                                  ---------------------------------------------------------------------------
            0  0  0  0     7.680     56   86  116  146
            0  0  0  0     5.000     57   87  117  147
            0  0  0  1     1.280     58   88  118  148
            0  0  0  1     2.100     59   89  119  149
            0  0  0  1     4.600     60   90  120  150
            1  0  0  0     0.820     61   91  121  151
            0  1  0  0     0.820     62   92  122  152
            0  0  1  0     0.820     63   93  123  153
            1  0  0  0     1.480     64   94  124  154
            0  1  0  0     1.480     65   95  125  155
            0  0  1  0     1.480     66   96  126  156
            1  0  0  0     2.940     67   97  127  157
            0  1  0  0     2.940     68   98  128  158
            0  0  1  0     2.940     69   99  129  159
            2  0  0  0     2.200     70  100  130  160
            1  1  0  0     2.200     71  101  131  161
            1  0  1  0     2.200     72  102  132  162
            0  2  0  0     2.200     73  103  133  163
            0  1  1  0     2.200     74  104  134  164
            0  0  2  0     2.200     75  105  135  165
            3  0  0  0     3.300     76  106  136  166
            2  1  0  0     3.300     77  107  137  167
            2  0  1  0     3.300     78  108  138  168
            1  2  0  0     3.300     79  109  139  169
            1  1  1  0     3.300     80  110  140  170
            1  0  2  0     3.300     81  111  141  171
            0  3  0  0     3.300     82  112  142  172
            0  2  1  0     3.300     83  113  143  173
            0  1  2  0     3.300     84  114  144  174
            0  0  3  0     3.300     85  115  145  175

 O                                    6    7    8    9
                                  ---------------------------------------------------------------------------
            0  0  0  0     9.800    176  206  236  266
            0  0  0  0     6.800    177  207  237  267
            0  0  0  1     7.580    178  208  238  268
            0  0  0  1     2.880    179  209  239  269
            0  0  0  1     1.720    180  210  240  270
            1  0  0  0     4.080    181  211  241  271
            0  1  0  0     4.080    182  212  242  272
            0  0  1  0     4.080    183  213  243  273
            1  0  0  0     2.080    184  214  244  274
            0  1  0  0     2.080    185  215  245  275
            0  0  1  0     2.080    186  216  246  276
            1  0  0  0     1.120    187  217  247  277
            0  1  0  0     1.120    188  218  248  278
            0  0  1  0     1.120    189  219  249  279
            2  0  0  0     2.000    190  220  250  280
            1  1  0  0     2.000    191  221  251  281
            1  0  1  0     2.000    192  222  252  282
            0  2  0  0     2.000    193  223  253  283
            0  1  1  0     2.000    194  224  254  284
            0  0  2  0     2.000    195  225  255  285
            3  0  0  0     3.000    196  226  256  286
            2  1  0  0     3.000    197  227  257  287
            2  0  1  0     3.000    198  228  258  288
            1  2  0  0     3.000    199  229  259  289
            1  1  1  0     3.000    200  230  260  290
            1  0  2  0     3.000    201  231  261  291
            0  3  0  0     3.000    202  232  262  292
            0  2  1  0     3.000    203  233  263  293
            0  1  2  0     3.000    204  234  264  294
            0  0  3  0     3.000    205  235  265  295

 C                                   10
                                  ---------------------------------------------------------------------------
            0  0  0  0     7.680    296
            0  0  0  0     5.000    297
            0  0  0  1     1.280    298
            0  0  0  1     2.100    299
            0  0  0  1     4.600    300
            1  0  0  0     0.820    301
            0  1  0  0     0.820    302
            0  0  1  0     0.820    303
            1  0  0  0     1.480    304
            0  1  0  0     1.480    305
            0  0  1  0     1.480    306
            1  0  0  0     2.940    307
            0  1  0  0     2.940    308
            0  0  1  0     2.940    309
            2  0  0  0     2.200    310
            1  1  0  0     2.200    311
            1  0  1  0     2.200    312
            0  2  0  0     2.200    313
            0  1  1  0     2.200    314
            0  0  2  0     2.200    315
            3  0  0  0     3.300    316
            2  1  0  0     3.300    317
            2  0  1  0     3.300    318
            1  2  0  0     3.300    319
            1  1  1  0     3.300    320
            1  0  2  0     3.300    321
            0  3  0  0     3.300    322
            0  2  1  0     3.300    323
            0  1  2  0     3.300    324
            0  0  3  0     3.300    325

 O                                   11
                                  ---------------------------------------------------------------------------
            0  0  0  0     9.800    326
            0  0  0  0     6.800    327
            0  0  0  1     7.580    328
            0  0  0  1     2.880    329
            0  0  0  1     1.720    330
            1  0  0  0     4.080    331
            0  1  0  0     4.080    332
            0  0  1  0     4.080    333
            1  0  0  0     2.080    334
            0  1  0  0     2.080    335
            0  0  1  0     2.080    336
            1  0  0  0     1.120    337
            0  1  0  0     1.120    338
            0  0  1  0     1.120    339
            2  0  0  0     2.000    340
            1  1  0  0     2.000    341
            1  0  1  0     2.000    342
            0  2  0  0     2.000    343
            0  1  1  0     2.000    344
            0  0  2  0     2.000    345
            3  0  0  0     3.000    346
            2  1  0  0     3.000    347
            2  0  1  0     3.000    348
            1  2  0  0     3.000    349
            1  1  1  0     3.000    350
            1  0  2  0     3.000    351
            0  3  0  0     3.000    352
            0  2  1  0     3.000    353
            0  1  2  0     3.000    354
            0  0  3  0     3.000    355

 Total number of charge fitting functions (nprimf)      1010
 Total number of Cartesian basis functions (naos)        355
 Total number of Cartesian core functions  (ncos)          0

1
 ***************************************************************************************************



                                              ***********************
                                              *  T E C H N I C A L  *
                                              ***********************
  



 =============================================================
 P A R A L L E L I Z A T I O N  and  V E C T O R I Z A T I O N
 =============================================================
  
 Nr of parallel processes:                               12
 Maximum vector length in NumInt loops:                 128

 IO buffersize (Mb):                                     64.000000



 =====================
 S C F   U P D A T E S
 =====================
  
 Max. nr. of cycles:                               250
 Convergence criterion:                              0.0000010000
   secondary criterion:                              0.0010000000

 Mix parameter (when DIIS does not apply):           0.2000000000
 Mixed ADIIS+DIIS will be used
    Max number of expansion vectors:                10
    Pure ADIIS when Max([F,P]) is above              0.1000000000
    Pure DIIS when Max([F,P]) is below               0.0010000000
 Automatic ElectronSmearing (in case of problematic SCF convergence) disabled



 =================
 P R E C I S I O N  ***  (General: NumInt, NeglectFunctionTails, ...)  ***
 =================
  

 NumInt:           Target precision:                 6.0000000000
 -------           Initial precision:                6.0000000000
                   Min. precision (optimization):    6.0000000000

 Neglect Functions:          Basis functions:        0.1000000000E-07
 ------------------          Fit functions:          0.1000000000E-07



 ===========================
 L I N E A R   S C A L I N G
 ===========================
  

 Cut-off radii density fit:                        0.1000000000E-09
 Overlap cut-off criterion AO matrix elements:     0.1000000000E-07
 Cut-offs for Coulomb potential and fitted density:0.1000000000E-09
 Cut-off criterion for Coulomb multipole terms:    0.1000000000E-09
 Progressive Convergence parameter:                 0.000000000    
1
 ***************************************************************************************************



                                            ***************************
                                            *  C O M P U T A T I O N  *
                                            ***************************
  

 Number of elements of the density matrix on this node (used, total):      3340     63190



 ===========================================
 Numerical Integration : Fuzzy Cells (Becke)
 ===========================================
  
 Becke grid quality: GOOD           
  
 Lebedev angular grid order:             min:  11 max:  31
 Nr. of radial points:                   min:  58 max:  90

 Total nr. of points:      51757
 Nr. of blocks:              405
 Block length:               128
 Nr. of dummy points:         83


 Test of Precision of the Numerical Integration Grid
 ===================================================

 Integral of the Total Core Density:                   0.00000000000000



 ========================
 Density Fitting (zlmFit)
 ========================
  
 ZlmFit Fit Quality: NORMAL         
  
 Max L-expansion:                        min:   7 max:   7
 Nr. of radial interpolation points:     min:  48 max:  66



 =====
 S C F  ***  ScaSCF  ***
 =====
  
 Initial density matrix is calculated as sum of fragments

 CYCLE    1
 SCF Error: norm([F,P])=      2.433096262113, max([F,P])=      1.638324697240
 orbitals (Q,E):
 ---------------
 A1 :12...31         ( 2.00    -1.1052)  ( 2.00    -1.0631)  ( 2.00    -1.0453)  ( 2.00    -0.5915)
                     ( 2.00    -0.5414)  ( 2.00    -0.5137)  ( 2.00    -0.4835)  ( 2.00    -0.4401)
                     ( 2.00    -0.4151)  ( 2.00    -0.3927)  ( 0.00    -0.0864)  ( 0.00    -0.0733)
                     ( 0.00    -0.0102)  ( 0.00     0.0455)  ( 0.00     0.1224)  ( 0.00     0.1950)
                     ( 0.00     0.2142)  ( 0.00     0.2770)  ( 0.00     0.3874)  ( 0.00     0.3971)
 A2 :1...11          ( 2.00    -0.4096)  ( 0.00    -0.0627)  ( 0.00     0.2628)  ( 0.00     0.6915)
                     ( 0.00     0.9136)  ( 0.00     1.0779)  ( 0.00     1.5002)  ( 0.00     1.8072)
                     ( 0.00     2.4047)  ( 0.00     2.7330)  ( 0.00     3.2038)
 E1 :4...23          ( 4.00    -2.0936)  ( 4.00    -1.0451)  ( 4.00    -0.5127)  ( 4.00    -0.4754)
                     ( 4.00    -0.4378)  ( 4.00    -0.4157)  ( 4.00    -0.4141)  ( 4.00    -0.3941)
                     ( 4.00    -0.2662)  ( 4.00    -0.2113)  ( 0.00    -0.1137)  ( 0.00    -0.0787)
                     ( 0.00    -0.0472)  ( 0.00    -0.0391)  ( 0.00     0.0661)  ( 0.00     0.1389)
                     ( 0.00     0.1554)  ( 0.00     0.2351)  ( 0.00     0.3069)  ( 0.00     0.3570)

 CYCLE    2
   MIX coefficients:  0.8000  0.2000
 SCF Error: norm([F,P])=      1.250833985363, max([F,P])=      0.288230430768
 orbitals (Q,E):
 ---------------
 A1 :12...22         ( 2.00    -1.0687)  ( 2.00    -1.0684)  ( 2.00    -1.0499)  ( 2.00    -0.5842)
                     ( 2.00    -0.5379)  ( 2.00    -0.5215)  ( 2.00    -0.4737)  ( 2.00    -0.4457)
                     ( 2.00    -0.4416)  ( 2.00    -0.3977)  ( 0.00    -0.1396)
 A2 :1...2           ( 2.00    -0.4147)  ( 0.00    -0.0735)
 E1 :4...14          ( 4.00    -2.1921)  ( 4.00    -1.0498)  ( 4.00    -0.5214)  ( 4.00    -0.4529)
                     ( 4.00    -0.4449)  ( 4.00    -0.4262)  ( 4.00    -0.4166)  ( 4.00    -0.4119)
                     ( 4.00    -0.3209)  ( 4.00    -0.2602)  ( 0.00    -0.1112)

 CYCLE    3
  SDIIS (wt  0.000):  0.6199  0.3801
 A-DIIS (wt  1.000):  0.6082  0.3918
  DIIS coefficients:  0.6082  0.3918
 SCF Error: norm([F,P])=      1.993070157860, max([F,P])=      0.487296538134
 orbitals (Q,E):
 ---------------
 A1 :12...22         ( 2.00    -1.0896)  ( 2.00    -1.0699)  ( 2.00    -0.9871)  ( 2.00    -0.5734)
                     ( 2.00    -0.5367)  ( 2.00    -0.4797)  ( 2.00    -0.4620)  ( 2.00    -0.4369)
                     ( 2.00    -0.4208)  ( 2.00    -0.3379)  ( 0.00    -0.0892)
 A2 :1...2           ( 2.00    -0.4322)  ( 0.00    -0.0872)
 E1 :4...14          ( 4.00    -2.0982)  ( 4.00    -1.0697)  ( 4.00    -0.5326)  ( 4.00    -0.4629)
                     ( 4.00    -0.4382)  ( 4.00    -0.4357)  ( 4.00    -0.4191)  ( 4.00    -0.3633)
                     ( 4.00    -0.2583)  ( 4.00    -0.2181)  ( 0.00    -0.0945)

 CYCLE    4
  SDIIS (wt  0.000):  0.3721  0.3479  0.2800
 A-DIIS (wt  1.000):  0.4023  0.3545  0.2432
  DIIS coefficients:  0.4023  0.3545  0.2432
 SCF Error: norm([F,P])=      1.154909059702, max([F,P])=      0.347554433860
 orbitals (Q,E):
 ---------------
 A1 :12...22         ( 2.00    -1.0616)  ( 2.00    -1.0552)  ( 2.00    -1.0514)  ( 2.00    -0.5665)
                     ( 2.00    -0.5225)  ( 2.00    -0.5121)  ( 2.00    -0.4602)  ( 2.00    -0.4374)
                     ( 2.00    -0.4210)  ( 2.00    -0.3836)  ( 0.00    -0.0920)
 A2 :1...2           ( 2.00    -0.4199)  ( 0.00    -0.0771)
 E1 :4...14          ( 4.00    -2.1236)  ( 4.00    -1.0550)  ( 4.00    -0.5226)  ( 4.00    -0.4429)
                     ( 4.00    -0.4346)  ( 4.00    -0.4268)  ( 4.00    -0.4147)  ( 4.00    -0.4035)
                     ( 4.00    -0.2733)  ( 4.00    -0.2282)  ( 0.00    -0.0884)

 CYCLE    5
[...]
                                    0.69%     1 E1:2          -11.497  2.00     2 2
     -14.047  2.00    17 A1        76.49%    13 A1            -14.018  2.00     1 1
                                   20.33%     4 A1            -13.980  2.00     2 2
                                    1.36%    12 A1            -14.957  2.00     1 1
     -12.619  2.00    18 A1        65.05%    14 A1            -12.267  2.00     1 1
                                   17.40%     5 A1             -9.014  2.00     2 2
                                   10.95%     4 A1            -13.980  2.00     2 2
                                    2.34%    15 A1            -11.550  2.00     1 1
                                    1.71%    17 A1             -5.154  0.00     1 1
                                    1.37%    16 A1            -10.967  2.00     1 1
                                    1.05%    12 A1            -14.957  2.00     1 1
     -12.132  2.00     7 E1:1      54.17%     7 E1:1          -11.984  2.00     1 1
                                   33.40%     1 E1:1          -11.497  2.00     2 2
                                    7.50%     9 E1:1          -11.298  2.00     1 1
                                    1.80%    10 E1:1          -10.846  2.00     1 1
                                    1.36%     8 E1:1          -11.336  2.00     1 1
     -12.132  2.00     7 E1:2      54.17%     7 E1:2          -11.984  2.00     1 1
                                   33.40%     1 E1:2          -11.497  2.00     2 2
                                    7.50%     9 E1:2          -11.298  2.00     1 1
                                    1.80%    10 E1:2          -10.846  2.00     1 1
                                    1.36%     8 E1:2          -11.336  2.00     1 1
     -11.979  2.00     8 E1:1      45.51%     7 E1:1          -11.984  2.00     1 1
                                   37.62%     1 E1:1          -11.497  2.00     2 2
                                    8.40%     9 E1:1          -11.298  2.00     1 1
                                    5.02%    10 E1:1          -10.846  2.00     1 1
                                    1.93%     8 E1:1          -11.336  2.00     1 1
     -11.979  2.00     8 E1:2      45.51%     7 E1:2          -11.984  2.00     1 1
                                   37.62%     1 E1:2          -11.497  2.00     2 2
                                    8.40%     9 E1:2          -11.298  2.00     1 1
                                    5.02%    10 E1:2          -10.846  2.00     1 1
                                    1.93%     8 E1:2          -11.336  2.00     1 1
     -11.927  2.00    19 A1        46.74%    15 A1            -11.550  2.00     1 1
                                   23.53%    14 A1            -12.267  2.00     1 1
                                   14.56%     5 A1             -9.014  2.00     2 2
                                    7.78%    16 A1            -10.967  2.00     1 1
                                    3.62%     4 A1            -13.980  2.00     2 2
                                    2.63%    17 A1             -5.154  0.00     1 1
     -11.511  2.00     9 E1:1      88.80%     8 E1:1          -11.336  2.00     1 1
                                   10.79%     9 E1:1          -11.298  2.00     1 1
     -11.511  2.00     9 E1:2      88.80%     8 E1:2          -11.336  2.00     1 1
                                   10.79%     9 E1:2          -11.298  2.00     1 1
     -11.463  2.00    20 A1        42.35%    16 A1            -10.967  2.00     1 1
                                   40.72%    15 A1            -11.550  2.00     1 1
                                    6.71%     5 A1             -9.014  2.00     2 2
                                    3.72%    17 A1             -5.154  0.00     1 1
                                    3.67%    14 A1            -12.267  2.00     1 1
     -11.327  2.00     1 A2       100.00%     1 A2            -11.156  2.00     1 1
     -11.322  2.00    10 E1:1      72.22%     9 E1:1          -11.298  2.00     1 1
                                   14.54%     1 E1:1          -11.497  2.00     2 2
                                    7.31%     8 E1:1          -11.336  2.00     1 1
                                    5.36%    10 E1:1          -10.846  2.00     1 1
     -11.322  2.00    10 E1:2      72.22%     9 E1:2          -11.298  2.00     1 1
                                   14.54%     1 E1:2          -11.497  2.00     2 2
                                    7.31%     8 E1:2          -11.336  2.00     1 1
                                    5.36%    10 E1:2          -10.846  2.00     1 1
     -10.978  2.00    11 E1:1      87.03%    10 E1:1          -10.846  2.00     1 1
                                   11.13%     1 E1:1          -11.497  2.00     2 2
     -10.978  2.00    11 E1:2      87.03%    10 E1:2          -10.846  2.00     1 1
                                   11.13%     1 E1:2          -11.497  2.00     2 2
     -10.581  2.00    21 A1        47.25%    16 A1            -10.967  2.00     1 1
                                   25.16%     5 A1             -9.014  2.00     2 2
                                   11.68%    17 A1             -5.154  0.00     1 1
                                    7.98%    15 A1            -11.550  2.00     1 1
                                    4.68%    14 A1            -12.267  2.00     1 1
                                    1.07%    12 A1            -14.957  2.00     1 1
      -7.473  2.00    12 E1:1      91.59%    11 E1:1           -7.100  2.00     1 1
                                    5.66%     2 E1:1           -2.127  0.00     2 2
                                    1.88%     1 E1:1          -11.497  2.00     2 2
      -7.473  2.00    12 E1:2      91.59%    11 E1:2           -7.100  2.00     1 1
                                    5.66%     2 E1:2           -2.127  0.00     2 2
                                    1.88%     1 E1:2          -11.497  2.00     2 2
      -6.155  2.00    13 E1:1      94.56%    12 E1:1           -5.825  2.00     1 1
                                    3.82%     2 E1:1           -2.127  0.00     2 2
                                    1.57%    11 E1:1           -7.100  2.00     1 1
      -6.155  2.00    13 E1:2      94.56%    12 E1:2           -5.825  2.00     1 1
                                    3.82%     2 E1:2           -2.127  0.00     2 2
                                    1.57%    11 E1:2           -7.100  2.00     1 1
      -2.581  0.00    22 A1        44.97%    17 A1             -5.154  0.00     1 1
                                   28.34%    18 A1             -2.027  0.00     1 1
                                   11.48%     5 A1             -9.014  2.00     2 2
                                    6.63%    21 A1              2.910  0.00     1 1
                                    1.99%     6 A1              2.790  0.00     2 2
                                    1.63%    20 A1              1.858  0.00     1 1
                                    1.40%    19 A1             -0.120  0.00     1 1
                                    1.17%    22 A1              5.465  0.00     1 1
      -2.442  0.00    14 E1:1      69.11%    13 E1:1           -2.274  0.00     1 1
                                   19.98%     2 E1:1           -2.127  0.00     2 2
                                    7.08%    15 E1:1           -1.286  0.00     1 1
                                    1.21%    14 E1:1           -1.466  0.00     1 1
                                    1.20%    12 E1:1           -5.825  2.00     1 1
      -2.442  0.00    14 E1:2      69.11%    13 E1:2           -2.274  0.00     1 1
                                   19.98%     2 E1:2           -2.127  0.00     2 2
                                    7.08%    15 E1:2           -1.286  0.00     1 1
                                    1.21%    14 E1:2           -1.466  0.00     1 1
                                    1.20%    12 E1:2           -5.825  2.00     1 1
      -2.282  0.00    15 E1:1      42.48%     2 E1:1           -2.127  0.00     2 2
                                   30.49%    13 E1:1           -2.274  0.00     1 1
                                   13.73%    15 E1:1           -1.286  0.00     1 1
                                    5.57%    14 E1:1           -1.466  0.00     1 1
                                    3.05%    11 E1:1           -7.100  2.00     1 1
                                    2.37%    12 E1:1           -5.825  2.00     1 1
      -2.282  0.00    15 E1:2      42.48%     2 E1:2           -2.127  0.00     2 2
                                   30.49%    13 E1:2           -2.274  0.00     1 1
                                   13.73%    15 E1:2           -1.286  0.00     1 1
                                    5.57%    14 E1:2           -1.466  0.00     1 1
                                    3.05%    11 E1:2           -7.100  2.00     1 1
                                    2.37%    12 E1:2           -5.825  2.00     1 1
      -2.122  0.00    23 A1        70.98%    18 A1             -2.027  0.00     1 1
                                   20.09%    17 A1             -5.154  0.00     1 1
                                    3.84%    21 A1              2.910  0.00     1 1
                                    2.76%     5 A1             -9.014  2.00     2 2
      -1.966  0.00     2 A2       100.00%     2 A2             -1.755  0.00     1 1
      -1.682  0.00    16 E1:1      87.10%    14 E1:1           -1.466  0.00     1 1
                                   11.87%    15 E1:1           -1.286  0.00     1 1
      -1.682  0.00    16 E1:2      87.10%    14 E1:2           -1.466  0.00     1 1
                                   11.87%    15 E1:2           -1.286  0.00     1 1
      -1.045  0.00    17 E1:1      67.11%    15 E1:1           -1.286  0.00     1 1
                                   22.54%     2 E1:1           -2.127  0.00     2 2
                                    6.35%    14 E1:1           -1.466  0.00     1 1
                                    1.22%    12 E1:1           -5.825  2.00     1 1
                                    1.19%    11 E1:1           -7.100  2.00     1 1
      -1.045  0.00    17 E1:2      67.11%    15 E1:2           -1.286  0.00     1 1
                                   22.54%     2 E1:2           -2.127  0.00     2 2
                                    6.35%    14 E1:2           -1.466  0.00     1 1
                                    1.22%    12 E1:2           -5.825  2.00     1 1
                                    1.19%    11 E1:2           -7.100  2.00     1 1
      -0.252  0.00    24 A1        98.28%    19 A1             -0.120  0.00     1 1
                                    2.24%     6 A1              2.790  0.00     2 2
                                    1.90%    17 A1             -5.154  0.00     1 1
                                   -1.57%     7 A1              7.819  0.00     2 2
       1.349  0.00    25 A1        76.41%    20 A1              1.858  0.00     1 1
                                   38.10%     6 A1              2.790  0.00     2 2
                                   -6.84%     7 A1              7.819  0.00     2 2
                                    3.11%    17 A1             -5.154  0.00     1 1
                                   -2.31%     8 A1             10.452  0.00     2 2
                                   -2.20%     5 A1             -9.014  2.00     2 2
                                   -2.07%    21 A1              2.910  0.00     1 1
                                   -2.04%    22 A1              5.465  0.00     1 1
       1.778  0.00    18 E1:1      85.19%    16 E1:1            2.021  0.00     1 1
                                   14.60%     3 E1:1            4.276  0.00     2 2
       1.778  0.00    18 E1:2      85.19%    16 E1:2            2.021  0.00     1 1
                                   14.60%     3 E1:2            4.276  0.00     2 2



 =======================================================================
 Electrostatic potential at the Nuclei due to electrons and other nuclei
 =======================================================================
  
         Atom                  Potential
         ----                  ---------
     1)   Fe                115.67843479
     2)   C                  14.66746316
     3)   O                  22.27789963
     4)   C                  14.66746316
     5)   O                  22.27789963
     6)   C                  14.65284163
     7)   O                  22.26374057
     8)   C                  14.65284161
     9)   O                  22.26374057
    10)   C                  14.66774198
    11)   O                  22.27726992
 
 
 ========================
 No memory problems found
 ========================
 
 Maximum number of active allocate calls:        1146
 
 *******************************************************************************

                             A D F   E X I T
 NORMAL TERMINATION



 =================
 Timing Statistics
 =================
  
 Total Used :                     CPU=       21.07      System=        0.44     Elapsed=       21.83

 Calls  Section                     ( Mean, Percentage )
 ---------------------------------------------------------------------------------------------------
     3  ><      ................      0.00    0.01             0.00    0.00             0.00    0.01
     1  INIT    ................      0.46    2.20             0.03    6.19             0.49    2.26
     1  GEOMET  ................      0.05    0.26             0.01    2.06             0.26    1.18
     1  FRAGM   ................      0.02    0.09             0.02    3.90             0.05    0.23
     1  INPUTA  ................      0.00    0.00             0.00    0.00             0.00    0.00
     1  ATDEN   ................      0.01    0.03             0.00    0.46             0.01    0.04
     1  MAINSY  ................      0.01    0.06             0.01    2.29             0.03    0.14
     1  SYMFIT  ................      0.00    0.01             0.00    0.00             0.00    0.01
     1  CORORT  ................      0.00    0.00             0.00    0.00             0.00    0.00
     1  SYMORB  ................      0.00    0.01             0.00    0.46             0.00    0.02
     1  CLSMAT  ................      0.01    0.06             0.00    0.00             0.01    0.06
     1  ORTHON  ................      0.02    0.09             0.00    0.46             0.02    0.10
     1  GENPT   ................      0.20    0.94             0.00    0.46             0.20    0.93
     1  PTBAS   ................      0.23    1.09             0.00    0.69             0.23    1.06
    18  FOCKY   ................      0.41   34.72             0.00    8.72             0.41   33.74
    18  FOCKTR  ................      0.01    0.57             0.00    0.23             0.01    0.60
    18  SDIIS   ................      0.01    0.58             0.00    1.15             0.01    0.56
     1  COREPS  ................      0.29    1.37             0.00    1.15             0.30    1.38
     1  TOTEN   ................      1.18    5.59             0.01    2.52             1.19    5.46
     1  POPAN   ................      0.01    0.03             0.00    0.46             0.01    0.07
     1  DEBYE   ................      0.01    0.07             0.00    0.00             0.01    0.07
     1  INPUTE  ................      0.00    0.00             0.00    0.00             0.00    0.01
     1  SYMORE  ................      0.00    0.00             0.00    0.23             0.00    0.01
     1  METS    ................      0.00    0.00             0.00    0.00             0.00    0.00
     1  CETS    ................      0.03    0.13             0.00    0.46             0.05    0.25
     1  POPUL   ................     10.93   51.89             0.29   66.97            11.27   51.63
     1  EXIT PROCEDURE .........      0.04    0.17             0.00    1.15             0.04    0.19


 Currently Open Files (EXIT00)
 ====================

 Unit    Access Format  Status   Type       Ident (file)
 -------------------------------------------------------
   3      SEQ    FORM   TRANSP  NORMAL      LOGFILE
                                          ( logfile )


 Buffered I/O statistics
 =======================
 Memory available:                     67108864
 Number of records fitting in memory:     16131
 Input :   0.8% of                       146939  *4k bytes
 Output:  10.9% of                        14776  *4k bytes
 Records from serial files evicted:           0
                    others evicted:           0
 Hash table lookups:     443282 with          0 conflicts (  0.00%)

 ***************************************************************************************************
 (LOGFILE)
 <May15-2019> <14:01:14>  ADF 2017  RunTime: May15-2019 14:01:14  Nodes: 1  Procs: 12
 <May15-2019> <14:01:14>  *** (NO TITLE) ***
 <May15-2019> <14:01:14>  RunType   : SINGLE POINT
 <May15-2019> <14:01:14>  Net Charge: 0 (Nuclei minus Electrons)
 <May15-2019> <14:01:14>  Symmetry  : C(3V)
 <May15-2019> <14:01:14>  >>>> FRAGM
  Coordinates
    Atom         X           Y           Z   (Angstrom)
    1.Fe        0.000000    0.000000    0.000000
    2.C         0.917396    1.588977    0.000000
    3.O         1.495217    2.589792    0.000000
    4.C         0.917396   -1.588977    0.000000
    5.O         1.495217   -2.589792    0.000000
    6.C         0.000000    0.000000    1.835389
    7.O         0.000000    0.000000    2.987899
    8.C         0.000000    0.000000   -1.835389
    9.O         0.000000    0.000000   -2.987899
   10.C        -1.834793    0.000000    0.000000
   11.O        -2.990434    0.000000    0.000000
 <May15-2019> <14:01:14>  >>>> CORORT
 <May15-2019> <14:01:14>  >>>> CLSMAT
 <May15-2019> <14:01:14>  >>>> ORTHON
 <May15-2019> <14:01:14>  >>>> GENPT
 <May15-2019> <14:01:15>  Block Length= 128
 <May15-2019> <14:01:15>  >>>> PTBAS
 <May15-2019> <14:01:15>  >>>> CYCLE
 <May15-2019> <14:01:16>              |Error|         MaxErr       Wt(A-DIIS)
 <May15-2019> <14:01:16>      1      2.43309626      1.63832470
 <May15-2019> <14:01:16>      2      1.25083399      0.28823043    100.0
 <May15-2019> <14:01:16>      3      1.99307016      0.48729654    100.0
 <May15-2019> <14:01:17>      4      1.15490906      0.34755443    100.0
 <May15-2019> <14:01:17>      5      0.10354536      0.02968108     29.0
 <May15-2019> <14:01:18>      6      0.17650733      0.03820542    100.0
 <May15-2019> <14:01:18>      7      0.57263622      0.15208787    100.0
 <May15-2019> <14:01:18>      8      0.10697677      0.02608340     25.3
 <May15-2019> <14:01:19>      9      0.07701332      0.02115520     20.4
 <May15-2019> <14:01:19>     10      0.04469672      0.01164125     10.7
 <May15-2019> <14:01:20>     11      0.00650879      0.00110592      0.1
 <May15-2019> <14:01:20>     12      0.00081104      0.00022501      0.0
 <May15-2019> <14:01:21>     13      0.00032007      0.00008886      0.0
 <May15-2019> <14:01:21>     14      0.00005507      0.00001325      0.0
 <May15-2019> <14:01:21>     15      0.00002597      0.00000635      0.0
 <May15-2019> <14:01:22>     16      0.00000445      0.00000130      0.0
 <May15-2019> <14:01:22>     17      0.00000182      0.00000046      0.0
 <May15-2019> <14:01:22>  SCF converged
 <May15-2019> <14:01:22>     18      0.00000006      0.00000001      0.0
 <May15-2019> <14:01:23>  >>>> TOTEN
 <May15-2019> <14:01:24>  >>>> POPAN
 <May15-2019> <14:01:24>  >>>> DEBYE
 <May15-2019> <14:01:24>  >>>> AMETS
 <May15-2019> <14:01:35>   Bond Energy          -0.07539978 a.u.
 <May15-2019> <14:01:35>   Bond Energy          -2.05173241 eV
 <May15-2019> <14:01:35>   Bond Energy         -47.31       kcal/mol
 <May15-2019> <14:01:35>  >>>> POPUL
 <May15-2019> <14:01:35>  NORMAL TERMINATION
 <May15-2019> <14:01:35>  END
