WARNING: ZORA/TZ2P basis will be used for In instead of the requested TZ2P basis
WARNING: ZORA/TZ2P basis will be used for In instead of the requested TZ2P basis

Create O   file=TZ2P-O
XC
  GGA blyp
End
End Input

 *******************************************************************************
 *                                                                             *
 *  -------------------------------------                                      *
 *   Amsterdam Density Functional  (ADF)         2017                          *
 *  -------------------------------------                                      *
 *                                               r58813 2017-04-12             *
 *                                                                             *
 *                                                                             *
 *                              =================                              *
 *                              |               |                              *
 *                              |     A D F     |                              *
 *                              |               |                              *
 *                              =================                              *
 *                                                                             *
 *                                                                             *
 *   Online information and documentation:  https://www.scm.com/support/       *
 *   E-mail:  support@scm.com   info@scm.com                                   *
 *                                                                             *
 *   Scientific publications using ADF results must be properly referenced     *
 *   See the User Manuals (or the web site) for recommended citations          *
 *   The terms and conditions of the End User License Agreement apply to       *
 *   the use of ADF, https://www.scm.com/license-terms/                        *
 *                                                                             *
 **********************  x86_64_linux_intel / intelmpi  ************************
 
 Licensed to: VU/FEW (+ SARA) / ALGEMEEN / Amsterdam / THE NETHERLANDS
 SCM User ID: u7668
  
 ADF 2017  RunTime: May19-2019 11:24:39  Nodes: 1  Procs: 1

 Temporary files are created in /local/datastore0/tcst25/190762/kid_0.tihQSF

 Oxygen (TZ2P)



 ===========================
 A T T A C H E D   F I L E S
 ===========================
  
 CREATE - Data File:    TZ2P-O
                        Oxygen (TZ2P)



 ===============================
 M O D E L   P A R A M E T E R S
 ===============================
  
 DENSITY FUNCTIONAL POTENTIAL (scf)
    LDA:                               Exchange only                           == Not Default ==
    Gradient Corrections:              Becke88 LYP                             == Not Default ==

 SPIN  (restricted / unrestr.)
    Molecule:                          Restricted                               

 OTHER ASPECTS
    Relativistic Corrections:          ---                                      

    Nuclear Charge Density Model:      Point Charge Nuclei                      
    Core Treatment:                    Frozen Orbital(s)                        

    Hyperfine or Zeeman Interaction:   ---                                      



 =====================================
 S Y M M E T R Y ,   E L E C T R O N S
 =====================================
  
 Symmetry: ATOM

 Irreducible Representations, including subspecies
 -------------------------------------------------
 S
 P:x  P:y  P:z
 D:z2  D:x2-y2  D:xy  D:xz  D:yz
 F:z3  F:z  F:xyz  F:z2x  F:z2y  F:x  F:y


 Configuration of Valence Electrons
 ==================================

          Occupation Numbers
          -------------------------------------------------
 S        2*2
 P        4
 D        0
 F        0
          -------------------------------------------------

 Total:   8

 Net Charge: 0 (Nuclei minus Electrons)

 Preset values for MO occupations will be applied through SCF cycle no. 1000000
 Thereafter, the program will assign electrons to MOs that are spatially
 similar to the occupied MOs in a "reference" cycle ("KeepOrbitals").
 The reference cycle is always the PREVIOUS cycle: it will evolve with
 the SCF procedure.



 ================================
 (Slater-type)  F U N C T I O N S  ***  (Basis and Fit)  ***
 ================================
  

 Atom Type    1  (O)
 ==============

 Valence Basis Sets:  10
 -----------------------
   1 S    9.800000
   1 S    6.800000
   2 S    7.580000
   2 S    2.880000
   2 S    1.720000
   2 P    4.080000
   2 P    2.080000
   2 P    1.120000
   3 D    2.000000
   4 F    3.000000


 BAS: List of all Elementary Cartesian Basis Functions
 =====================================================

 The numbering in the list below (to the right of the function characteristics) is referred
 to in print-outs of MO eigenvectors and Mulliken populations in the BAS representation
 (as contrasted to the SFO representation).

 Notes:
 1. The functions are characterized by a polynomial prefactor (powers of x,y,z and r) and
    an exponential decay factor alpha.
 2. Since the basis sets are specific for an atom TYPE, the individual functions occur on
    all atoms of that type.
 3. The word 'Core' in the left margin signals that it is a Core Function (CF) : not a
    degree of freedom in the valence set, but only used to ensure orthogonalization of
    the other valence basis functions on the frozen Core Orbitals.


 (power of) X  Y  Z  R     Alpha  on Atom
            ==========     =====     ==========

 O                                    1
                                  ---------------------------------------------------------------------------
            0  0  0  0     9.800      1
            0  0  0  0     6.800      2
            0  0  0  1     7.580      3
            0  0  0  1     2.880      4
            0  0  0  1     1.720      5
            1  0  0  0     4.080      6
            0  1  0  0     4.080      7
            0  0  1  0     4.080      8
            1  0  0  0     2.080      9
            0  1  0  0     2.080     10
            0  0  1  0     2.080     11
            1  0  0  0     1.120     12
            0  1  0  0     1.120     13
            0  0  1  0     1.120     14
            2  0  0  0     2.000     15
            1  1  0  0     2.000     16
            1  0  1  0     2.000     17
            0  2  0  0     2.000     18
            0  1  1  0     2.000     19
            0  0  2  0     2.000     20
            3  0  0  0     3.000     21
            2  1  0  0     3.000     22
            2  0  1  0     3.000     23
            1  2  0  0     3.000     24
            1  1  1  0     3.000     25
            1  0  2  0     3.000     26
            0  3  0  0     3.000     27
            0  2  1  0     3.000     28
            0  1  2  0     3.000     29
            0  0  3  0     3.000     30

 Total number of charge fitting functions (nprimf)        84
 Total number of Cartesian basis functions (naos)         30
 Total number of Cartesian core functions  (ncos)          0



 BAS: List of all Elementary Cartesian Basis Functions
 =====================================================

 The numbering in the list below (to the right of the function characteristics) is referred
 to in print-outs of MO eigenvectors and Mulliken populations in the BAS representation
 (as contrasted to the SFO representation).

 Notes:
 1. The functions are characterized by a polynomial prefactor (powers of x,y,z and r) and
    an exponential decay factor alpha.
 2. Since the basis sets are specific for an atom TYPE, the individual functions occur on
    all atoms of that type.
 3. The word 'Core' in the left margin signals that it is a Core Function (CF) : not a
    degree of freedom in the valence set, but only used to ensure orthogonalization of
    the other valence basis functions on the frozen Core Orbitals.


 (power of) X  Y  Z  R     Alpha  on Atom
            ==========     =====     ==========

 O                                    1
                                  ---------------------------------------------------------------------------
            0  0  0  0     9.800      1
            0  0  0  0     6.800      2
            0  0  0  1     7.580      3
            0  0  0  1     2.880      4
            0  0  0  1     1.720      5
            1  0  0  0     4.080      6
            0  1  0  0     4.080      7
            0  0  1  0     4.080      8
            1  0  0  0     2.080      9
            0  1  0  0     2.080     10
            0  0  1  0     2.080     11
            1  0  0  0     1.120     12
            0  1  0  0     1.120     13
            0  0  1  0     1.120     14
            2  0  0  0     2.000     15
            1  1  0  0     2.000     16
            1  0  1  0     2.000     17
            0  2  0  0     2.000     18
            0  1  1  0     2.000     19
            0  0  2  0     2.000     20
            3  0  0  0     3.000     21
            2  1  0  0     3.000     22
            2  0  1  0     3.000     23
            1  2  0  0     3.000     24
            1  1  1  0     3.000     25
            1  0  2  0     3.000     26
            0  3  0  0     3.000     27
            0  2  1  0     3.000     28
            0  1  2  0     3.000     29
            0  0  3  0     3.000     30
1
 ***************************************************************************************************



                                              ***********************
                                              *  T E C H N I C A L  *
                                              ***********************
  



 =============================================================
 P A R A L L E L I Z A T I O N  and  V E C T O R I Z A T I O N
 =============================================================
  
 Nr of parallel processes:                                1
 Maximum vector length in NumInt loops:                 128

 IO buffersize (Mb):                                     64.000000



 =====================
 S C F   U P D A T E S
 =====================
  
 Max. nr. of cycles:                               300
 Convergence criterion:                              0.0000000100
   secondary criterion:                              0.0000000100

 Mix parameter (when DIIS does not apply):           0.2000000000
 Special mix parameter for the first cycle:          1.0000000000
 Mixed ADIIS+DIIS will be used
    Max number of expansion vectors:                10
    Pure ADIIS when Max([F,P]) is above              0.1000000000
    Pure DIIS when Max([F,P]) is below               0.0010000000
 Automatic ElectronSmearing (in case of problematic SCF convergence) disabled



 =================
 P R E C I S I O N  ***  (General: NumInt, NeglectFunctionTails, ...)  ***
 =================
  

 NumInt:           Target precision:                12.0000000000
 -------           Initial precision:               10.0000000000
                   Min. precision (optimization):   10.0000000000

 Neglect Functions:          Basis functions:        0.1000000000E-13
 ------------------          Fit functions:          0.1000000000E-13



 ===========================
 L I N E A R   S C A L I N G
 ===========================
  

 Cut-off radii density fit:                        0.1000000000E-97
 Overlap cut-off criterion AO matrix elements:     0.1000000000E-97
 Cut-offs for Coulomb potential and fitted density:0.1000000000E-97
 Cut-off criterion for Coulomb multipole terms:    0.1000000000E-97
 Progressive Convergence parameter:                 0.000000000    
1
 ***************************************************************************************************



                                            ***************************
                                            *  C O M P U T A T I O N  *
                                            ***************************
  

 Number of elements of the density matrix on this node (used, total):       465       465



 ===========================================
 Numerical Integration : Fuzzy Cells (Becke)
 ===========================================
  
 Becke grid quality: VERYGOOD       
  
 Lebedev angular grid order:             min:  13 max:  41
 Nr. of radial points:                   min:  68 max:  68

 Total nr. of points:         68
 Nr. of blocks:                1
 Block length:                68
 Nr. of dummy points:          0


 Test of Precision of the Numerical Integration Grid
 ===================================================

 Integral of the Total Core Density:                   0.00000000000000



 ========================
 Density Fitting (zlmFit)
 ========================
  
 ZlmFit Fit Quality: VERYGOOD       
  
 Max L-expansion:                        min:   0 max:   0
 Nr. of radial interpolation points:     min: 180 max: 180



 =====
 S C F  ***  ScaSCF  ***
 =====
  

 CYCLE    1
 SCF Error: norm([F,P])=      0.000000000000, max([F,P])=      0.000000000000
 orbitals (Q,E):
 ---------------
 S :1...5            ( 2.00   -31.9999)  ( 2.00    -7.9363)  ( 0.00    -3.4636)  ( 0.00     4.3191)
                     ( 0.00   110.5486)
 P :1...3            ( 4.00    -7.9991)  ( 0.00    -3.4855)  ( 0.00    -1.8903)
 D :1...1            ( 0.00    -3.3333)
 F :1...1            ( 0.00    -1.5000)

 CYCLE    2
  SDIIS (wt  0.000):  1.0000 -0.0000
 A-DIIS (wt  1.000):  0.0000  1.0000
  DIIS coefficients:  0.0000  1.0000
 SCF Error: norm([F,P])=      8.765745414074, max([F,P])=      5.518031311555
 orbitals (Q,E):
 ---------------
 S :1...3            ( 2.00   -14.5579)  ( 2.00    -0.0124)  ( 0.00     1.8192)
 P :1...2            ( 4.00     0.2183)  ( 0.00     1.2385)
 D :1...1            ( 0.00     1.5388)
 F :1...1            ( 0.00     3.9464)

 CYCLE    3
  SDIIS (wt  0.000):  0.2278  0.7722
 A-DIIS (wt  1.000):  0.3148  0.6852
  DIIS coefficients:  0.3148  0.6852
 SCF Error: norm([F,P])=      3.585499450444, max([F,P])=      2.499410108106
 orbitals (Q,E):
 ---------------
 S :1...3            ( 2.00   -19.8063)  ( 2.00    -1.5198)  ( 0.00     0.3996)
 P :1...2            ( 4.00    -0.9763)  ( 0.00     0.1325)
 D :1...1            ( 0.00     0.6540)
 F :1...1            ( 0.00     2.8642)

 CYCLE    4
  SDIIS (wt  0.000): -0.0456  0.1707  0.8749
 A-DIIS (wt  1.000):  0.0000  0.0000  1.0000
  DIIS coefficients:  0.0000  0.0000  1.0000
 SCF Error: norm([F,P])=      1.147919112368, max([F,P])=      0.583019620058
 orbitals (Q,E):
 ---------------
 S :1...3            ( 2.00   -18.0523)  ( 2.00    -0.5465)  ( 0.00     1.0349)
 P :1...2            ( 4.00    -0.0477)  ( 0.00     0.5307)
 D :1...1            ( 0.00     1.2443)
 F :1...1            ( 0.00     3.5731)

 CYCLE    5
  SDIIS (wt  0.000): -0.0195 -0.0760  0.5845  0.5110
 A-DIIS (wt  1.000):  0.0000  0.0000  0.6414  0.3586
  DIIS coefficients:  0.0000  0.0000  0.6414  0.3586
 SCF Error: norm([F,P])=      1.519585468023, max([F,P])=      0.840542006159
 orbitals (Q,E):
 ---------------
 S :1...3            ( 2.00   -18.8182)  ( 2.00    -0.8502)  ( 0.00     0.8091)
 P :1...2            ( 4.00    -0.3077)  ( 0.00     0.3582)
 D :1...1            ( 0.00     1.0753)
 F :1...1            ( 0.00     3.3669)

 CYCLE    6
  SDIIS (wt  0.000):  0.0038 -0.0006  0.0668 -0.0496  0.9795
 A-DIIS (wt  1.000):  0.0000  0.0000  0.0000  0.0000  1.0000
  DIIS coefficients:  0.0000  0.0000  0.0000  0.0000  1.0000
 SCF Error: norm([F,P])=      0.178828926625, max([F,P])=      0.104242033505
 orbitals (Q,E):
 ---------------
 S :1...3            ( 2.00   -19.0541)  ( 2.00    -0.9245)  ( 0.00     0.7610)
 P :1...2            ( 4.00    -0.3806)  ( 0.00     0.3267)
 D :1...1            ( 0.00     1.0451)
 F :1...1            ( 0.00     3.3284)

 CYCLE    7
  SDIIS (wt  0.000): -0.0003  0.0004 -0.0182  0.0130  0.4190  0.5861
 A-DIIS (wt  1.000):  0.0000  0.0000  0.0000  0.0000  0.5807  0.4193
  DIIS coefficients:  0.0000  0.0000  0.0000  0.0000  0.5807  0.4193
 SCF Error: norm([F,P])=      0.200125290981, max([F,P])=      0.113649127569
 orbitals (Q,E):
 ---------------
 S :1...3            ( 2.00   -18.9379)  ( 2.00    -0.8781)  ( 0.00     0.7909)
 P :1...2            ( 4.00    -0.3354)  ( 0.00     0.3452)
 D :1...1            ( 0.00     1.0687)
 F :1...1            ( 0.00     3.3572)

 CYCLE    8
  SDIIS (wt  0.910): -0.0000  0.0002  0.0044 -0.0011 -0.0192 -0.1454  1.1612
 A-DIIS (wt  0.090):  0.0000  0.0000  0.0000  0.0000  0.0000  0.0000  1.0000
  DIIS coefficients: -0.0000  0.0002  0.0040 -0.0010 -0.0175 -0.1323  1.1466
 SCF Error: norm([F,P])=      0.016951777154, max([F,P])=      0.009947196225
 orbitals (Q,E):
 ---------------
 S :1...3            ( 2.00   -18.9255)  ( 2.00    -0.8739)  ( 0.00     0.7936)
 P :1...2            ( 4.00    -0.3314)  ( 0.00     0.3469)
 D :1...1            ( 0.00     1.0707)
 F :1...1            ( 0.00     3.3597)

 CYCLE    9
  SDIIS (wt  1.000): -0.0000  0.0000  0.0000 -0.0001  0.0003  0.0067  0.0145  0.9786
  DIIS coefficients: -0.0000  0.0000  0.0000 -0.0001  0.0003  0.0067  0.0145  0.9786
 SCF Error: norm([F,P])=      0.001748429775, max([F,P])=      0.000984374869
 orbitals (Q,E):
 ---------------
 S :1...3            ( 2.00   -18.9266)  ( 2.00    -0.8743)  ( 0.00     0.7933)
 P :1...2            ( 4.00    -0.3318)  ( 0.00     0.3467)
 D :1...1            ( 0.00     1.0705)
 F :1...1            ( 0.00     3.3595)

 CYCLE   10
  SDIIS (wt  1.000): -0.0000 -0.0000 -0.0000 -0.0000  0.0000  0.0001 -0.0011 -0.0034  1.0043
  DIIS coefficients: -0.0000 -0.0000 -0.0000 -0.0000  0.0000  0.0001 -0.0011 -0.0034  1.0043
 SCF Error: norm([F,P])=      0.000001425696, max([F,P])=      0.000000713883
 orbitals (Q,E):
 ---------------
 S :1...3            ( 2.00   -18.9266)  ( 2.00    -0.8743)  ( 0.00     0.7933)
 P :1...2            ( 4.00    -0.3318)  ( 0.00     0.3467)
 D :1...1            ( 0.00     1.0705)
 F :1...1            ( 0.00     3.3595)

 CYCLE   11
  SDIIS (wt  1.000):  0.0000 -0.0000 -0.0000 -0.0001 -0.0046  1.0047
  DIIS coefficients:  0.0000 -0.0000 -0.0000 -0.0001 -0.0046  1.0047
 SCF Error: norm([F,P])=      0.000000048706, max([F,P])=      0.000000022971
 orbitals (Q,E):
 ---------------
 S :1...3            ( 2.00   -18.9266)  ( 2.00    -0.8743)  ( 0.00     0.7933)
 P :1...2            ( 4.00    -0.3318)  ( 0.00     0.3467)
 D :1...1            ( 0.00     1.0705)
 F :1...1            ( 0.00     3.3595)

 CYCLE   12
  SDIIS (wt  1.000):  0.0000  0.0003  0.0049  0.9947
  DIIS coefficients:  0.0000  0.0003  0.0049  0.9947
 SCF Error: norm([F,P])=      0.000000002392, max([F,P])=      0.000000001168
 orbitals (Q,E):
 ---------------
 S :1...3            ( 2.00   -18.9266)  ( 2.00    -0.8743)  ( 0.00     0.7933)
 P :1...2            ( 4.00    -0.3318)  ( 0.00     0.3467)
 D :1...1            ( 0.00     1.0705)
 F :1...1            ( 0.00     3.3595)

 SCF CONVERGED

 CYCLE   13
1
 ***************************************************************************************************



                                                *******************
                                                *  R E S U L T S  *
                                                *******************
  
 *** Setting up for NEW gradients in Focky
 *** Using FIT density in Focky

 Orbital Energies, per Irrep and Spin:
 ======================================
                        Occup              E (au)              E (eV)       Diff (eV) with prev. cycle
                        -----      --------------------        ------       --------------------------
 S
               1        2.000     -0.18926622910087E+02      -515.020               5.76E-10
               2        2.000     -0.87432318445324E+00       -23.792               3.90E-10
               3        0.000      0.79334608634537E+00        21.588
               4        0.000      0.13459763470969E+02       366.259
               5        0.000      0.12310776301329E+03      3349.933
 P
               1        4.000     -0.33177161342558E+00        -9.028               3.71E-10
               2        0.000      0.34673871865826E+00         9.435
               3        0.000      0.38246989192600E+01       104.075
 D
               1        0.000      0.10704889823391E+01        29.129
 F
               1        0.000      0.33594552407685E+01        91.415


 Partially Occupied:
               1 P                -0.33177161342558E+00
  
 HOMO :        2 S                -0.87432318445324E+00
 LUMO :        2 P                 0.34673871865826E+00
  


 Orbital Energies, all Irreps
 ========================================

 Irrep        no.  (spin)   Occup              E (au)                E (eV)
 ---------------------------------------------------------------------------
 S             1             2.00       -0.18926622910087E+02      -515.0196
 S             2             2.00       -0.87432318445324E+00       -23.7915
 P             1             4.00       -0.33177161342558E+00        -9.0280
 P             2             0.00        0.34673871865826E+00         9.4352
 S             3             0.00        0.79334608634537E+00        21.5880
 D             1             0.00        0.10704889823391E+01        29.1295
 F             1             0.00        0.33594552407685E+01        91.4154
 P             3             0.00        0.38246989192600E+01       104.0754
 S             4             0.00        0.13459763470969E+02       366.2588
 S             5             0.00        0.12310776301329E+03      3349.9327


 All Electron Calculation, thus no Orbital Energies of the Core Orbitals are calculated



 =======================================
 M U L L I K E N   P O P U L A T I O N S
 =======================================
  
 The survey below gives for each atom:
 a) the total charge (Z minus electrons)
 b) the net spin polarization (nr of electrons spin-A minus spin-B)
 c) for each spin the atomic electron valence density (integrated) per L-value.

 Atom              Charge    Spin density          S         P         D         F
 ----              ------    ------------       ------    ------    ------    ------
 1 O              -0.0000                       4.0000    4.0000    0.0000    0.0000

 Populations of individual BAS functions
 ----------------------------------------
 1 O            0.6447  1.3214  0.0008  1.1425  0.8905  0.2537  0.2537  0.2537  0.7364  0.7364
                0.7364  0.3432  0.3432  0.3432  0.0000  0.0000  0.0000  0.0000  0.0000  0.0000
                0.0000  0.0000  0.0000  0.0000  0.0000  0.0000  0.0000  0.0000  0.0000  0.0000

 Gross Charges per Atom (Z minus electrons)
 ==========================================
            -0.0000
 Net Total: -0.00000000



 =======================================================================
 Electrostatic potential at the Nuclei due to electrons and other nuclei
 =======================================================================
  
         Atom                  Potential
         ----                  ---------
     1)   O                  22.23872615
 
 
 ========================
 No memory problems found
 ========================
 
 Maximum number of active allocate calls:         447
 
 *******************************************************************************

                             A D F   E X I T
 NORMAL TERMINATION



 =================
 Timing Statistics
 =================
  
 Total Used :                     CPU=        0.79      System=        0.04     Elapsed=        0.83

 Calls  Section                     ( Mean, Percentage )
 ---------------------------------------------------------------------------------------------------
     3  ><      ................      0.00    0.00             0.00    2.63             0.00    0.10
     1  INIT    ................      0.01    1.40             0.02   55.26             0.03    4.21
     1  GEOMET  ................      0.01    1.27             0.00    7.89             0.01    1.57
     1  INPUTA  ................      0.00    0.38             0.00    0.00             0.00    0.37
     1  MAINSY  ................      0.01    0.76             0.00    5.26             0.01    0.95
     1  SYMFIT  ................      0.00    0.13             0.00    0.00             0.00    0.15
     1  CORORT  ................      0.00    0.00             0.00    0.00             0.00    0.05
     1  SYMORB  ................      0.00    0.25             0.00    0.00             0.00    0.19
     1  CLSMAT  ................      0.01    1.14             0.00    0.00             0.01    1.10
     1  ORTHON  ................      0.00    0.38             0.00    0.00             0.00    0.35
     1  GENPT   ................      0.02    2.66             0.00    0.00             0.02    2.54
     1  PTBAS   ................      0.01    0.76             0.00    0.00             0.01    0.75
    13  FOCKY   ................      0.05   75.00             0.00   18.42             0.05   72.16
    13  FOCKTR  ................      0.00    2.28             0.00    0.00             0.00    2.19
    13  SDIIS   ................      0.00    4.19             0.00    5.26             0.00    4.26
     1  COREPS  ................      0.04    4.57             0.00    2.63             0.04    4.38
     1  POPAN   ................      0.01    1.14             0.00    0.00             0.01    1.10
     1  DEBYE   ................      0.00    0.13             0.00    0.00             0.00    0.11
     1  EXIT PROCEDURE .........      0.03    3.55             0.00    2.63             0.03    3.48


 Currently Open Files (EXIT00)
 ====================

 Unit    Access Format  Status   Type       Ident (file)
 -------------------------------------------------------
   3      SEQ    FORM   TRANSP  NORMAL      LOGFILE
                                          ( logfile )


 Buffered I/O statistics
 =======================
 Memory available:                     67108864
 Number of records fitting in memory:     16131
 Input :   0.1% of                        27833  *4k bytes
 Output:  13.5% of                         1390  *4k bytes
 Records from serial files evicted:           0
                    others evicted:           0
 Hash table lookups:      71898 with          0 conflicts (  0.00%)

 ***************************************************************************************************
 (LOGFILE)
 <May19-2019> <11:24:39>  ADF 2017  RunTime: May19-2019 11:24:39  Nodes: 1  Procs: 1
 <May19-2019> <11:24:39>  Oxygen (TZ2P)
 <May19-2019> <11:24:39>  RunType   : CREATE
 <May19-2019> <11:24:39>  Net Charge: 0 (Nuclei minus Electrons)
 <May19-2019> <11:24:39>  Symmetry  : ATOM
  Coordinates
    Atom         X           Y           Z   (Angstrom)
    1.O         0.000000    0.000000    0.000000
 <May19-2019> <11:24:39>  >>>> CORORT
 <May19-2019> <11:24:39>  >>>> CLSMAT
 <May19-2019> <11:24:39>  >>>> ORTHON
 <May19-2019> <11:24:39>  >>>> GENPT
 <May19-2019> <11:24:39>  Block Length=  68
 <May19-2019> <11:24:39>  >>>> PTBAS
 <May19-2019> <11:24:39>  >>>> CYCLE
 <May19-2019> <11:24:39>              |Error|         MaxErr       Wt(A-DIIS)
 <May19-2019> <11:24:39>      1      0.00000000      0.00000000
 <May19-2019> <11:24:39>      2      8.76574541      5.51803131    100.0
 <May19-2019> <11:24:39>      3      3.58549945      2.49941011    100.0
 <May19-2019> <11:24:39>      4      1.14791911      0.58301962    100.0
 <May19-2019> <11:24:39>      5      1.51958547      0.84054201    100.0
 <May19-2019> <11:24:39>      6      0.17882893      0.10424203    100.0
 <May19-2019> <11:24:39>      7      0.20012529      0.11364913    100.0
 <May19-2019> <11:24:39>      8      0.01695178      0.00994720      9.0
 <May19-2019> <11:24:39>      9      0.00174843      0.00098437      0.0
 <May19-2019> <11:24:39>     10      0.00000143      0.00000071      0.0
 <May19-2019> <11:24:39>     11      0.00000005      0.00000002      0.0
 <May19-2019> <11:24:39>     12      0.00000000      0.00000000      0.0
 <May19-2019> <11:24:39>  SCF converged
 <May19-2019> <11:24:39>     13      0.00000000      0.00000000      0.0
 <May19-2019> <11:24:39>  >>>> POPAN
 <May19-2019> <11:24:39>  >>>> DEBYE
 <May19-2019> <11:24:39>  NORMAL TERMINATION
 <May19-2019> <11:24:39>  END

Create C   file=TZ2P-C
XC
  GGA blyp
End
End Input

 *******************************************************************************
 *                                                                             *
 *  -------------------------------------                                      *
 *   Amsterdam Density Functional  (ADF)         2017                          *
 *  -------------------------------------                                      *
 *                                               r58813 2017-04-12             *
 *                                                                             *
 *                                                                             *
 *                              =================                              *
 *                              |               |                              *
 *                              |     A D F     |                              *
 *                              |               |                              *
 *                              =================                              *
 *                                                                             *
 *                                                                             *
 *   Online information and documentation:  https://www.scm.com/support/       *
 *   E-mail:  support@scm.com   info@scm.com                                   *
 *                                                                             *
 *   Scientific publications using ADF results must be properly referenced     *
 *   See the User Manuals (or the web site) for recommended citations          *
 *   The terms and conditions of the End User License Agreement apply to       *
 *   the use of ADF, https://www.scm.com/license-terms/                        *
 *                                                                             *
 **********************  x86_64_linux_intel / intelmpi  ************************
 
 Licensed to: VU/FEW (+ SARA) / ALGEMEEN / Amsterdam / THE NETHERLANDS
 SCM User ID: u7668
  
 ADF 2017  RunTime: May19-2019 11:24:40  Nodes: 1  Procs: 1

 Temporary files are created in /local/datastore0/tcst25/190762/kid_0.yN9d4C

 Carbon (TZ2P)



 ===========================
 A T T A C H E D   F I L E S
 ===========================
  
 CREATE - Data File:    TZ2P-C
                        Carbon (TZ2P)



 ===============================
 M O D E L   P A R A M E T E R S
 ===============================
  
 DENSITY FUNCTIONAL POTENTIAL (scf)
    LDA:                               Exchange only                           == Not Default ==
    Gradient Corrections:              Becke88 LYP                             == Not Default ==

 SPIN  (restricted / unrestr.)
    Molecule:                          Restricted                               

 OTHER ASPECTS
    Relativistic Corrections:          ---                                      

    Nuclear Charge Density Model:      Point Charge Nuclei                      
    Core Treatment:                    Frozen Orbital(s)                        

    Hyperfine or Zeeman Interaction:   ---                                      



 =====================================
 S Y M M E T R Y ,   E L E C T R O N S
 =====================================
  
 Symmetry: ATOM

 Irreducible Representations, including subspecies
 -------------------------------------------------
 S
 P:x  P:y  P:z
 D:z2  D:x2-y2  D:xy  D:xz  D:yz
 F:z3  F:z  F:xyz  F:z2x  F:z2y  F:x  F:y


 Configuration of Valence Electrons
 ==================================

          Occupation Numbers
          -------------------------------------------------
 S        2*2
 P        2
 D        0
 F        0
          -------------------------------------------------

 Total:   6

 Net Charge: 0 (Nuclei minus Electrons)

 Preset values for MO occupations will be applied through SCF cycle no. 1000000
 Thereafter, the program will assign electrons to MOs that are spatially
 similar to the occupied MOs in a "reference" cycle ("KeepOrbitals").
 The reference cycle is always the PREVIOUS cycle: it will evolve with
 the SCF procedure.



 ================================
 (Slater-type)  F U N C T I O N S  ***  (Basis and Fit)  ***
 ================================
  

 Atom Type    1  (C)
 ==============

 Valence Basis Sets:  10
 -----------------------
   1 S    7.680000
   1 S    5.000000
   2 S    1.280000
   2 S    2.100000
   2 S    4.600000
   2 P    0.820000
   2 P    1.480000
   2 P    2.940000
   3 D    2.200000
   4 F    3.300000


 BAS: List of all Elementary Cartesian Basis Functions
 =====================================================

 The numbering in the list below (to the right of the function characteristics) is referred
 to in print-outs of MO eigenvectors and Mulliken populations in the BAS representation
 (as contrasted to the SFO representation).

 Notes:
 1. The functions are characterized by a polynomial prefactor (powers of x,y,z and r) and
    an exponential decay factor alpha.
 2. Since the basis sets are specific for an atom TYPE, the individual functions occur on
    all atoms of that type.
 3. The word 'Core' in the left margin signals that it is a Core Function (CF) : not a
    degree of freedom in the valence set, but only used to ensure orthogonalization of
    the other valence basis functions on the frozen Core Orbitals.


 (power of) X  Y  Z  R     Alpha  on Atom
            ==========     =====     ==========

 C                                    1
                                  ---------------------------------------------------------------------------
            0  0  0  0     7.680      1
            0  0  0  0     5.000      2
            0  0  0  1     1.280      3
            0  0  0  1     2.100      4
            0  0  0  1     4.600      5
            1  0  0  0     0.820      6
            0  1  0  0     0.820      7
            0  0  1  0     0.820      8
            1  0  0  0     1.480      9
            0  1  0  0     1.480     10
            0  0  1  0     1.480     11
            1  0  0  0     2.940     12
            0  1  0  0     2.940     13
            0  0  1  0     2.940     14
            2  0  0  0     2.200     15
            1  1  0  0     2.200     16
            1  0  1  0     2.200     17
            0  2  0  0     2.200     18
            0  1  1  0     2.200     19
            0  0  2  0     2.200     20
            3  0  0  0     3.300     21
            2  1  0  0     3.300     22
            2  0  1  0     3.300     23
            1  2  0  0     3.300     24
            1  1  1  0     3.300     25
            1  0  2  0     3.300     26
            0  3  0  0     3.300     27
            0  2  1  0     3.300     28
            0  1  2  0     3.300     29
            0  0  3  0     3.300     30

 Total number of charge fitting functions (nprimf)        84
 Total number of Cartesian basis functions (naos)         30
 Total number of Cartesian core functions  (ncos)          0



 BAS: List of all Elementary Cartesian Basis Functions
 =====================================================

 The numbering in the list below (to the right of the function characteristics) is referred
 to in print-outs of MO eigenvectors and Mulliken populations in the BAS representation
 (as contrasted to the SFO representation).

 Notes:
 1. The functions are characterized by a polynomial prefactor (powers of x,y,z and r) and
    an exponential decay factor alpha.
 2. Since the basis sets are specific for an atom TYPE, the individual functions occur on
    all atoms of that type.
 3. The word 'Core' in the left margin signals that it is a Core Function (CF) : not a
    degree of freedom in the valence set, but only used to ensure orthogonalization of
    the other valence basis functions on the frozen Core Orbitals.


 (power of) X  Y  Z  R     Alpha  on Atom
            ==========     =====     ==========

 C                                    1
                                  ---------------------------------------------------------------------------
            0  0  0  0     7.680      1
            0  0  0  0     5.000      2
            0  0  0  1     1.280      3
            0  0  0  1     2.100      4
            0  0  0  1     4.600      5
            1  0  0  0     0.820      6
            0  1  0  0     0.820      7
            0  0  1  0     0.820      8
            1  0  0  0     1.480      9
            0  1  0  0     1.480     10
            0  0  1  0     1.480     11
            1  0  0  0     2.940     12
            0  1  0  0     2.940     13
            0  0  1  0     2.940     14
            2  0  0  0     2.200     15
            1  1  0  0     2.200     16
            1  0  1  0     2.200     17
            0  2  0  0     2.200     18
            0  1  1  0     2.200     19
            0  0  2  0     2.200     20
            3  0  0  0     3.300     21
            2  1  0  0     3.300     22
            2  0  1  0     3.300     23
            1  2  0  0     3.300     24
            1  1  1  0     3.300     25
            1  0  2  0     3.300     26
            0  3  0  0     3.300     27
            0  2  1  0     3.300     28
            0  1  2  0     3.300     29
            0  0  3  0     3.300     30
1
 ***************************************************************************************************



                                              ***********************
                                              *  T E C H N I C A L  *
                                              ***********************
  



 =============================================================
 P A R A L L E L I Z A T I O N  and  V E C T O R I Z A T I O N
 =============================================================
  
 Nr of parallel processes:                                1
 Maximum vector length in NumInt loops:                 128

 IO buffersize (Mb):                                     64.000000



 =====================
 S C F   U P D A T E S
 =====================
  
 Max. nr. of cycles:                               300
 Convergence criterion:                              0.0000000100
   secondary criterion:                              0.0000000100

 Mix parameter (when DIIS does not apply):           0.2000000000
 Special mix parameter for the first cycle:          1.0000000000
 Mixed ADIIS+DIIS will be used
    Max number of expansion vectors:                10
    Pure ADIIS when Max([F,P]) is above              0.1000000000
    Pure DIIS when Max([F,P]) is below               0.0010000000
 Automatic ElectronSmearing (in case of problematic SCF convergence) disabled



 =================
 P R E C I S I O N  ***  (General: NumInt, NeglectFunctionTails, ...)  ***
 =================
  

 NumInt:           Target precision:                12.0000000000
 -------           Initial precision:               10.0000000000
                   Min. precision (optimization):   10.0000000000

 Neglect Functions:          Basis functions:        0.1000000000E-13
 ------------------          Fit functions:          0.1000000000E-13



 ===========================
 L I N E A R   S C A L I N G
 ===========================
  

 Cut-off radii density fit:                        0.1000000000E-97
 Overlap cut-off criterion AO matrix elements:     0.1000000000E-97
 Cut-offs for Coulomb potential and fitted density:0.1000000000E-97
 Cut-off criterion for Coulomb multipole terms:    0.1000000000E-97
 Progressive Convergence parameter:                 0.000000000    
1
 ***************************************************************************************************



                                            ***************************
                                            *  C O M P U T A T I O N  *
                                            ***************************
  

 Number of elements of the density matrix on this node (used, total):       465       465



 ===========================================
 Numerical Integration : Fuzzy Cells (Becke)
 ===========================================
  
 Becke grid quality: VERYGOOD       
  
 Lebedev angular grid order:             min:  13 max:  41
 Nr. of radial points:                   min:  72 max:  72

 Total nr. of points:         72
 Nr. of blocks:                1
 Block length:                72
 Nr. of dummy points:          0


 Test of Precision of the Numerical Integration Grid
 ===================================================

 Integral of the Total Core Density:                   0.00000000000000



 ========================
 Density Fitting (zlmFit)
 ========================
  
 ZlmFit Fit Quality: VERYGOOD       
  
 Max L-expansion:                        min:   0 max:   0
 Nr. of radial interpolation points:     min: 160 max: 160



 =====
 S C F  ***  ScaSCF  ***
 =====
  

 CYCLE    1
 SCF Error: norm([F,P])=      0.000000000000, max([F,P])=      0.000000000000
 orbitals (Q,E):
 ---------------
 S :1...5            ( 2.00   -17.9995)  ( 2.00    -4.4761)  ( 0.00    -1.9482)  ( 0.00     0.6812)
                     ( 0.00    42.8100)
 P :1...3            ( 2.00    -4.4994)  ( 0.00    -1.9807)  ( 0.00    -1.0849)
 D :1...1            ( 0.00    -1.9800)
 F :1...1            ( 0.00     0.4950)

 CYCLE    2
  SDIIS (wt  0.000):  1.0000 -0.0000
 A-DIIS (wt  1.000):  0.0000  1.0000
  DIIS coefficients:  0.0000  1.0000
 SCF Error: norm([F,P])=      4.480319744476, max([F,P])=      3.328841325837
 orbitals (Q,E):
 ---------------
 S :1...3            ( 2.00    -7.7917)  ( 2.00    -0.0500)  ( 0.00     0.8490)
 P :1...2            ( 2.00     0.1033)  ( 0.00     0.5895)
 D :1...1            ( 0.00     1.7552)
 F :1...1            ( 0.00     4.6366)

 CYCLE    3
  SDIIS (wt  0.000):  0.2185  0.7815
 A-DIIS (wt  1.000):  0.1233  0.8767
  DIIS coefficients:  0.1233  0.8767
 SCF Error: norm([F,P])=      1.636788894664, max([F,P])=      1.315295345514
 orbitals (Q,E):
 ---------------
 S :1...3            ( 2.00   -10.9862)  ( 2.00    -0.9428)  ( 0.00     0.1231)
 P :1...2            ( 2.00    -0.6386)  ( 0.00     0.0246)
 D :1...1            ( 0.00     0.8395)
 F :1...1            ( 0.00     3.5625)

 CYCLE    4
  SDIIS (wt  0.000): -0.0629  0.2184  0.8445
 A-DIIS (wt  1.000):  0.0000  0.0872  0.9128
  DIIS coefficients:  0.0000  0.0872  0.9128
 SCF Error: norm([F,P])=      0.722267649759, max([F,P])=      0.580815510644
 orbitals (Q,E):
 ---------------
 S :1...3            ( 2.00    -9.6419)  ( 2.00    -0.3647)  ( 0.00     0.4682)
 P :1...2            ( 2.00    -0.0765)  ( 0.00     0.2450)
 D :1...1            ( 0.00     1.3742)
 F :1...1            ( 0.00     4.1720)

 CYCLE    5
  SDIIS (wt  0.000): -0.0214 -0.0561  0.3847  0.6927
 A-DIIS (wt  1.000):  0.0000  0.0000  0.2646  0.7354
  DIIS coefficients:  0.0000  0.0000  0.2646  0.7354
 SCF Error: norm([F,P])=      0.412794757847, max([F,P])=      0.328642040749
 orbitals (Q,E):
 ---------------
 S :1...3            ( 2.00   -10.1968)  ( 2.00    -0.5643)  ( 0.00     0.3336)
 P :1...2            ( 2.00    -0.2533)  ( 0.00     0.1428)
 D :1...1            ( 0.00     1.1818)
 F :1...1            ( 0.00     3.9467)

 CYCLE    6
  SDIIS (wt  0.032):  0.0025 -0.0116 -0.0698  0.2077  0.8712
 A-DIIS (wt  0.968):  0.0000  0.0000  0.0000  0.0000  1.0000
  DIIS coefficients:  0.0001 -0.0004 -0.0022  0.0066  0.9959
 SCF Error: norm([F,P])=      0.126643163176, max([F,P])=      0.096847488733
 orbitals (Q,E):
 ---------------
 S :1...3            ( 2.00    -9.9458)  ( 2.00    -0.4545)  ( 0.00     0.4037)
 P :1...2            ( 2.00    -0.1511)  ( 0.00     0.1903)
 D :1...1            ( 0.00     1.2866)
 F :1...1            ( 0.00     4.0669)

 CYCLE    7
  SDIIS (wt  0.100): -0.0001  0.0030  0.0073 -0.1526  0.2846  0.8578
 A-DIIS (wt  0.900):  0.0000  0.0000  0.0000  0.0000  0.4446  0.5554
  DIIS coefficients: -0.0000  0.0003  0.0007 -0.0152  0.4286  0.5856
 SCF Error: norm([F,P])=      0.115568228223, max([F,P])=      0.090123764632
 orbitals (Q,E):
 ---------------
 S :1...3            ( 2.00   -10.0697)  ( 2.00    -0.5032)  ( 0.00     0.3719)
 P :1...2            ( 2.00    -0.1955)  ( 0.00     0.1673)
 D :1...1            ( 0.00     1.2400)
 F :1...1            ( 0.00     4.0128)

 CYCLE    8
  SDIIS (wt  0.958): -0.0001  0.0006  0.0026 -0.0162 -0.0129  0.1023  0.9238
 A-DIIS (wt  0.042):  0.0000  0.0000  0.0000  0.0000  0.0000  0.0000  1.0000
  DIIS coefficients: -0.0001  0.0005  0.0025 -0.0155 -0.0124  0.0980  0.9270
 SCF Error: norm([F,P])=      0.006629277794, max([F,P])=      0.005140885246
 orbitals (Q,E):
 ---------------
 S :1...3            ( 2.00   -10.0626)  ( 2.00    -0.5000)  ( 0.00     0.3739)
 P :1...2            ( 2.00    -0.1926)  ( 0.00     0.1686)
 D :1...1            ( 0.00     1.2431)
 F :1...1            ( 0.00     4.0163)

 CYCLE    9
  SDIIS (wt  1.000): -0.0000 -0.0000 -0.0000 -0.0000  0.0023 -0.0004 -0.0164  1.0145
  DIIS coefficients: -0.0000 -0.0000 -0.0000 -0.0000  0.0023 -0.0004 -0.0164  1.0145
 SCF Error: norm([F,P])=      0.000215737590, max([F,P])=      0.000163422091
 orbitals (Q,E):
 ---------------
 S :1...3            ( 2.00   -10.0628)  ( 2.00    -0.5001)  ( 0.00     0.3739)
 P :1...2            ( 2.00    -0.1927)  ( 0.00     0.1686)
 D :1...1            ( 0.00     1.2430)
 F :1...1            ( 0.00     4.0162)

 CYCLE   10
  SDIIS (wt  1.000):  0.0000 -0.0000 -0.0000  0.0001  0.0000 -0.0011  0.0167  0.9843
  DIIS coefficients:  0.0000 -0.0000 -0.0000  0.0001  0.0000 -0.0011  0.0167  0.9843
 SCF Error: norm([F,P])=      0.000001946474, max([F,P])=      0.000001322854
 orbitals (Q,E):
 ---------------
 S :1...3            ( 2.00   -10.0628)  ( 2.00    -0.5001)  ( 0.00     0.3739)
 P :1...2            ( 2.00    -0.1927)  ( 0.00     0.1686)
 D :1...1            ( 0.00     1.2430)
 F :1...1            ( 0.00     4.0162)

 CYCLE   11
  SDIIS (wt  1.000):  0.0000 -0.0000 -0.0002 -0.0078  1.0079
  DIIS coefficients:  0.0000 -0.0000 -0.0002 -0.0078  1.0079
 SCF Error: norm([F,P])=      0.000000018017, max([F,P])=      0.000000015021
 orbitals (Q,E):
 ---------------
 S :1...3            ( 2.00   -10.0628)  ( 2.00    -0.5001)  ( 0.00     0.3739)
 P :1...2            ( 2.00    -0.1927)  ( 0.00     0.1686)
 D :1...1            ( 0.00     1.2430)
 F :1...1            ( 0.00     4.0162)

 CYCLE   12
  SDIIS (wt  1.000):  0.0000 -0.0001  0.0057  0.9944
  DIIS coefficients:  0.0000 -0.0001  0.0057  0.9944
 SCF Error: norm([F,P])=      0.000000000214, max([F,P])=      0.000000000163
 orbitals (Q,E):
 ---------------
 S :1...3            ( 2.00   -10.0628)  ( 2.00    -0.5001)  ( 0.00     0.3739)
 P :1...2            ( 2.00    -0.1927)  ( 0.00     0.1686)
 D :1...1            ( 0.00     1.2430)
 F :1...1            ( 0.00     4.0162)

 SCF CONVERGED

 CYCLE   13
1
 ***************************************************************************************************



                                                *******************
                                                *  R E S U L T S  *
                                                *******************
  
 *** Setting up for NEW gradients in Focky
 *** Using FIT density in Focky

 Orbital Energies, per Irrep and Spin:
 ======================================
                        Occup              E (au)              E (eV)       Diff (eV) with prev. cycle
                        -----      --------------------        ------       --------------------------
 S
               1        2.000     -0.10062819482682E+02      -273.823              -1.46E-09
               2        2.000     -0.50012405867783E+00       -13.609              -9.06E-10
               3        0.000      0.37386666571790E+00        10.173
               4        0.000      0.54114616881923E+01       147.253
               5        0.000      0.50154618712632E+02      1364.777
 P
               1        2.000     -0.19265861396330E+00        -5.243              -8.46E-10
               2        0.000      0.16859720175392E+00         4.588
               3        0.000      0.20146797119588E+01        54.822
 D
               1        0.000      0.12429821924707E+01        33.823
 F
               1        0.000      0.40162441326384E+01       109.288


 Partially Occupied:
               1 P                -0.19265861396330E+00
  
 HOMO :        2 S                -0.50012405867783E+00
 LUMO :        2 P                 0.16859720175392E+00
  


 Orbital Energies, all Irreps
 ========================================

 Irrep        no.  (spin)   Occup              E (au)                E (eV)
 ---------------------------------------------------------------------------
 S             1             2.00       -0.10062819482682E+02      -273.8233
 S             2             2.00       -0.50012405867783E+00       -13.6091
 P             1             2.00       -0.19265861396330E+00        -5.2425
 P             2             0.00        0.16859720175392E+00         4.5878
 S             3             0.00        0.37386666571790E+00        10.1734
 D             1             0.00        0.12429821924707E+01        33.8233
 P             3             0.00        0.20146797119588E+01        54.8222
 F             1             0.00        0.40162441326384E+01       109.2876
 S             4             0.00        0.54114616881923E+01       147.2534
 S             5             0.00        0.50154618712632E+02      1364.7766


 All Electron Calculation, thus no Orbital Energies of the Core Orbitals are calculated



 =======================================
 M U L L I K E N   P O P U L A T I O N S
 =======================================
  
 The survey below gives for each atom:
 a) the total charge (Z minus electrons)
 b) the net spin polarization (nr of electrons spin-A minus spin-B)
 c) for each spin the atomic electron valence density (integrated) per L-value.

 Atom              Charge    Spin density          S         P         D         F
 ----              ------    ------------       ------    ------    ------    ------
 1 C               0.0000                       4.0000    2.0000    0.0000    0.0000

 Populations of individual BAS functions
 ----------------------------------------
 1 C            0.4900  1.5029  0.9348  1.1161 -0.0439  0.1802  0.1802  0.1802  0.3776  0.3776
                0.3776  0.1089  0.1089  0.1089  0.0000  0.0000  0.0000  0.0000  0.0000  0.0000
                0.0000  0.0000  0.0000  0.0000  0.0000  0.0000  0.0000  0.0000  0.0000  0.0000

 Gross Charges per Atom (Z minus electrons)
 ==========================================
             0.0000
 Net Total:  0.00000000



 =======================================================================
 Electrostatic potential at the Nuclei due to electrons and other nuclei
 =======================================================================
  
         Atom                  Potential
         ----                  ---------
     1)   C                  14.67487189
 
 
 ========================
 No memory problems found
 ========================
 
 Maximum number of active allocate calls:         447
 
 *******************************************************************************

                             A D F   E X I T
 NORMAL TERMINATION



 =================
 Timing Statistics
 =================
  
 Total Used :                     CPU=        0.73      System=        0.04     Elapsed=        0.77

 Calls  Section                     ( Mean, Percentage )
 ---------------------------------------------------------------------------------------------------
     3  ><      ................      0.00    0.14             0.00    0.00             0.00    0.10
     1  INIT    ................      0.01    1.78             0.02   48.72             0.03    4.52
     1  GEOMET  ................      0.01    1.23             0.00   10.26             0.01    1.69
     1  INPUTA  ................      0.00    0.27             0.00    2.56             0.00    0.40
     1  MAINSY  ................      0.01    0.82             0.00    5.13             0.01    1.03
     1  SYMFIT  ................      0.00    0.00             0.00    2.56             0.00    0.16
     1  CORORT  ................      0.00    0.14             0.00    0.00             0.00    0.06
     1  SYMORB  ................      0.00    0.14             0.00    0.00             0.00    0.20
     1  CLSMAT  ................      0.01    1.23             0.00    0.00             0.01    1.18
     1  ORTHON  ................      0.00    0.27             0.00    2.56             0.00    0.38
     1  GENPT   ................      0.02    2.74             0.00    2.56             0.02    2.73
     1  PTBAS   ................      0.01    0.69             0.00    2.56             0.01    0.80
    13  FOCKY   ................      0.04   73.97             0.00    7.69             0.04   70.50
    13  FOCKTR  ................      0.00    2.33             0.00    2.56             0.00    2.34
    13  SDIIS   ................      0.00    4.79             0.00    5.13             0.00    4.60
     1  COREPS  ................      0.03    4.38             0.00    2.56             0.03    4.28
     1  POPAN   ................      0.01    1.23             0.00    0.00             0.01    1.18
     1  DEBYE   ................      0.00    0.14             0.00    0.00             0.00    0.12
     1  EXIT PROCEDURE .........      0.03    3.70             0.00    5.13             0.03    3.74


 Currently Open Files (EXIT00)
 ====================

 Unit    Access Format  Status   Type       Ident (file)
 -------------------------------------------------------
   3      SEQ    FORM   TRANSP  NORMAL      LOGFILE
                                          ( logfile )


 Buffered I/O statistics
 =======================
 Memory available:                     67108864
 Number of records fitting in memory:     16131
 Input :   0.1% of                        27790  *4k bytes
 Output:  13.6% of                         1373  *4k bytes
 Records from serial files evicted:           0
                    others evicted:           0
 Hash table lookups:      71837 with          0 conflicts (  0.00%)

 ***************************************************************************************************
 (LOGFILE)
 <May19-2019> <11:24:39>  ADF 2017  RunTime: May19-2019 11:24:39  Nodes: 1  Procs: 1
 <May19-2019> <11:24:39>  Oxygen (TZ2P)
 <May19-2019> <11:24:39>  RunType   : CREATE
 <May19-2019> <11:24:39>  Net Charge: 0 (Nuclei minus Electrons)
 <May19-2019> <11:24:39>  Symmetry  : ATOM
  Coordinates
    Atom         X           Y           Z   (Angstrom)
    1.O         0.000000    0.000000    0.000000
 <May19-2019> <11:24:39>  >>>> CORORT
 <May19-2019> <11:24:39>  >>>> CLSMAT
 <May19-2019> <11:24:39>  >>>> ORTHON
 <May19-2019> <11:24:39>  >>>> GENPT
 <May19-2019> <11:24:39>  Block Length=  68
 <May19-2019> <11:24:39>  >>>> PTBAS
 <May19-2019> <11:24:39>  >>>> CYCLE
 <May19-2019> <11:24:39>              |Error|         MaxErr       Wt(A-DIIS)
 <May19-2019> <11:24:39>      1      0.00000000      0.00000000
 <May19-2019> <11:24:39>      2      8.76574541      5.51803131    100.0
 <May19-2019> <11:24:39>      3      3.58549945      2.49941011    100.0
 <May19-2019> <11:24:39>      4      1.14791911      0.58301962    100.0
 <May19-2019> <11:24:39>      5      1.51958547      0.84054201    100.0
 <May19-2019> <11:24:39>      6      0.17882893      0.10424203    100.0
 <May19-2019> <11:24:39>      7      0.20012529      0.11364913    100.0
 <May19-2019> <11:24:39>      8      0.01695178      0.00994720      9.0
 <May19-2019> <11:24:39>      9      0.00174843      0.00098437      0.0
 <May19-2019> <11:24:39>     10      0.00000143      0.00000071      0.0
 <May19-2019> <11:24:39>     11      0.00000005      0.00000002      0.0
 <May19-2019> <11:24:39>     12      0.00000000      0.00000000      0.0
 <May19-2019> <11:24:39>  SCF converged
 <May19-2019> <11:24:39>     13      0.00000000      0.00000000      0.0
 <May19-2019> <11:24:39>  >>>> POPAN
 <May19-2019> <11:24:39>  >>>> DEBYE
 <May19-2019> <11:24:39>  NORMAL TERMINATION
 <May19-2019> <11:24:39>  END
 <May19-2019> <11:24:40>  ADF 2017  RunTime: May19-2019 11:24:40  Nodes: 1  Procs: 1
 <May19-2019> <11:24:40>  Carbon (TZ2P)
 <May19-2019> <11:24:40>  RunType   : CREATE
 <May19-2019> <11:24:40>  Net Charge: 0 (Nuclei minus Electrons)
 <May19-2019> <11:24:40>  Symmetry  : ATOM
  Coordinates
    Atom         X           Y           Z   (Angstrom)
    1.C         0.000000    0.000000    0.000000
 <May19-2019> <11:24:40>  >>>> CORORT
 <May19-2019> <11:24:40>  >>>> CLSMAT
 <May19-2019> <11:24:40>  >>>> ORTHON
 <May19-2019> <11:24:40>  >>>> GENPT
 <May19-2019> <11:24:40>  Block Length=  72
 <May19-2019> <11:24:40>  >>>> PTBAS
 <May19-2019> <11:24:40>  >>>> CYCLE
 <May19-2019> <11:24:40>              |Error|         MaxErr       Wt(A-DIIS)
 <May19-2019> <11:24:40>      1      0.00000000      0.00000000
 <May19-2019> <11:24:40>      2      4.48031974      3.32884133    100.0
 <May19-2019> <11:24:40>      3      1.63678889      1.31529535    100.0
 <May19-2019> <11:24:40>      4      0.72226765      0.58081551    100.0
 <May19-2019> <11:24:40>      5      0.41279476      0.32864204    100.0
 <May19-2019> <11:24:40>      6      0.12664316      0.09684749     96.8
 <May19-2019> <11:24:40>      7      0.11556823      0.09012376     90.0
 <May19-2019> <11:24:40>      8      0.00662928      0.00514089      4.2
 <May19-2019> <11:24:40>      9      0.00021574      0.00016342      0.0
 <May19-2019> <11:24:40>     10      0.00000195      0.00000132      0.0
 <May19-2019> <11:24:40>     11      0.00000002      0.00000002      0.0
 <May19-2019> <11:24:40>     12      0.00000000      0.00000000      0.0
 <May19-2019> <11:24:40>  SCF converged
 <May19-2019> <11:24:40>     13      0.00000000      0.00000000      0.0
 <May19-2019> <11:24:40>  >>>> POPAN
 <May19-2019> <11:24:40>  >>>> DEBYE
 <May19-2019> <11:24:40>  NORMAL TERMINATION
 <May19-2019> <11:24:40>  END

Create In   file=TZ2P-In
XC
  GGA blyp
End
End Input

 *******************************************************************************
 *                                                                             *
 *  -------------------------------------                                      *
 *   Amsterdam Density Functional  (ADF)         2017                          *
 *  -------------------------------------                                      *
 *                                               r58813 2017-04-12             *
 *                                                                             *
 *                                                                             *
 *                              =================                              *
 *                              |               |                              *
 *                              |     A D F     |                              *
 *                              |               |                              *
 *                              =================                              *
 *                                                                             *
 *                                                                             *
 *   Online information and documentation:  https://www.scm.com/support/       *
 *   E-mail:  support@scm.com   info@scm.com                                   *
 *                                                                             *
 *   Scientific publications using ADF results must be properly referenced     *
 *   See the User Manuals (or the web site) for recommended citations          *
 *   The terms and conditions of the End User License Agreement apply to       *
 *   the use of ADF, https://www.scm.com/license-terms/                        *
 *                                                                             *
 **********************  x86_64_linux_intel / intelmpi  ************************
 
 Licensed to: VU/FEW (+ SARA) / ALGEMEEN / Amsterdam / THE NETHERLANDS
 SCM User ID: u7668
  
 ADF 2017  RunTime: May19-2019 11:24:40  Nodes: 1  Procs: 1

 Temporary files are created in /local/datastore0/tcst25/190762/kid_0.RJPHrE

 Indium (TZ2P, all electron)



 ===========================
 A T T A C H E D   F I L E S
 ===========================
  
 CREATE - Data File:    TZ2P-In
                        Indium (TZ2P, all electron)



 ===============================
 M O D E L   P A R A M E T E R S
 ===============================
  
 DENSITY FUNCTIONAL POTENTIAL (scf)
    LDA:                               Exchange only                           == Not Default ==
    Gradient Corrections:              Becke88 LYP                             == Not Default ==

 SPIN  (restricted / unrestr.)
    Molecule:                          Restricted                               

 OTHER ASPECTS
    Relativistic Corrections:          ---                                      

    Nuclear Charge Density Model:      Point Charge Nuclei                      
    Core Treatment:                    Frozen Orbital(s)                        

    Hyperfine or Zeeman Interaction:   ---                                      



 =====================================
 S Y M M E T R Y ,   E L E C T R O N S
 =====================================
  
 Symmetry: ATOM

 Irreducible Representations, including subspecies
 -------------------------------------------------
 S
 P:x  P:y  P:z
 D:z2  D:x2-y2  D:xy  D:xz  D:yz
 F:z3  F:z  F:xyz  F:z2x  F:z2y  F:x  F:y


 Configuration of Valence Electrons
 ==================================

          Occupation Numbers
          -------------------------------------------------
 S        5*2
 P        3*6 1
 D        2*10
 F        0
          -------------------------------------------------

 Total:   49

 Net Charge: 0 (Nuclei minus Electrons)

 Preset values for MO occupations will be applied through SCF cycle no. 1000000
 Thereafter, the program will assign electrons to MOs that are spatially
 similar to the occupied MOs in a "reference" cycle ("KeepOrbitals").
 The reference cycle is always the PREVIOUS cycle: it will evolve with
 the SCF procedure.



 ================================
 (Slater-type)  F U N C T I O N S  ***  (Basis and Fit)  ***
 ================================
  

 Atom Type    1  (In)
 ==============

 Valence Basis Sets:  30
 -----------------------
   1 S  339.000000
   1 S   84.700000
   1 S   49.300000
   2 S   57.600000
   2 S   21.100000
   3 S   10.900000
   3 S    6.450000
   4 S    7.000000
   4 S    4.500000
   5 S    3.000000
   5 S    1.900000
   5 S    1.240000
   2 P   84.700000
   2 P   31.500000
   2 P   20.250000
   3 P   12.100000
   3 P    8.900000
   4 P    6.000000
   4 P    3.750000
   5 P    2.300000
   5 P    1.300000
   5 P    0.750000
   3 D   19.250000
   3 D   11.600000
   3 D    7.800000
   4 D    5.550000
   4 D    3.250000
   4 D    1.900000
   5 D    1.300000
   4 F    2.000000


 BAS: List of all Elementary Cartesian Basis Functions
 =====================================================

 The numbering in the list below (to the right of the function characteristics) is referred
 to in print-outs of MO eigenvectors and Mulliken populations in the BAS representation
 (as contrasted to the SFO representation).

 Notes:
 1. The functions are characterized by a polynomial prefactor (powers of x,y,z and r) and
    an exponential decay factor alpha.
 2. Since the basis sets are specific for an atom TYPE, the individual functions occur on
    all atoms of that type.
 3. The word 'Core' in the left margin signals that it is a Core Function (CF) : not a
    degree of freedom in the valence set, but only used to ensure orthogonalization of
    the other valence basis functions on the frozen Core Orbitals.


 (power of) X  Y  Z  R     Alpha  on Atom
            ==========     =====     ==========

 In                                   1
                                  ---------------------------------------------------------------------------
            0  0  0  0   339.000      1
            0  0  0  0    84.700      2
            0  0  0  0    49.300      3
            0  0  0  1    57.600      4
            0  0  0  1    21.100      5
            0  0  0  2    10.900      6
            0  0  0  2     6.450      7
            0  0  0  3     7.000      8
            0  0  0  3     4.500      9
            0  0  0  4     3.000     10
            0  0  0  4     1.900     11
            0  0  0  4     1.240     12
            1  0  0  0    84.700     13
            0  1  0  0    84.700     14
            0  0  1  0    84.700     15
            1  0  0  0    31.500     16
            0  1  0  0    31.500     17
            0  0  1  0    31.500     18
            1  0  0  0    20.250     19
            0  1  0  0    20.250     20
            0  0  1  0    20.250     21
            1  0  0  1    12.100     22
            0  1  0  1    12.100     23
            0  0  1  1    12.100     24
            1  0  0  1     8.900     25
            0  1  0  1     8.900     26
            0  0  1  1     8.900     27
            1  0  0  2     6.000     28
            0  1  0  2     6.000     29
            0  0  1  2     6.000     30
            1  0  0  2     3.750     31
            0  1  0  2     3.750     32
            0  0  1  2     3.750     33
            1  0  0  3     2.300     34
            0  1  0  3     2.300     35
            0  0  1  3     2.300     36
            1  0  0  3     1.300     37
            0  1  0  3     1.300     38
            0  0  1  3     1.300     39
            1  0  0  3     0.750     40
            0  1  0  3     0.750     41
            0  0  1  3     0.750     42
            2  0  0  0    19.250     43
            1  1  0  0    19.250     44
            1  0  1  0    19.250     45
            0  2  0  0    19.250     46
            0  1  1  0    19.250     47
            0  0  2  0    19.250     48
            2  0  0  0    11.600     49
            1  1  0  0    11.600     50
            1  0  1  0    11.600     51
            0  2  0  0    11.600     52
            0  1  1  0    11.600     53
            0  0  2  0    11.600     54
            2  0  0  0     7.800     55
            1  1  0  0     7.800     56
            1  0  1  0     7.800     57
            0  2  0  0     7.800     58
            0  1  1  0     7.800     59
            0  0  2  0     7.800     60
            2  0  0  1     5.550     61
            1  1  0  1     5.550     62
            1  0  1  1     5.550     63
            0  2  0  1     5.550     64
            0  1  1  1     5.550     65
            0  0  2  1     5.550     66
            2  0  0  1     3.250     67
            1  1  0  1     3.250     68
            1  0  1  1     3.250     69
            0  2  0  1     3.250     70
            0  1  1  1     3.250     71
            0  0  2  1     3.250     72
            2  0  0  1     1.900     73
            1  1  0  1     1.900     74
            1  0  1  1     1.900     75
            0  2  0  1     1.900     76
            0  1  1  1     1.900     77
            0  0  2  1     1.900     78
            2  0  0  2     1.300     79
            1  1  0  2     1.300     80
            1  0  1  2     1.300     81
            0  2  0  2     1.300     82
            0  1  1  2     1.300     83
            0  0  2  2     1.300     84
            3  0  0  0     2.000     85
            2  1  0  0     2.000     86
            2  0  1  0     2.000     87
            1  2  0  0     2.000     88
            1  1  1  0     2.000     89
            1  0  2  0     2.000     90
            0  3  0  0     2.000     91
            0  2  1  0     2.000     92
            0  1  2  0     2.000     93
            0  0  3  0     2.000     94

 Total number of charge fitting functions (nprimf)       277
 Total number of Cartesian basis functions (naos)         94
 Total number of Cartesian core functions  (ncos)          0



 BAS: List of all Elementary Cartesian Basis Functions
 =====================================================

 The numbering in the list below (to the right of the function characteristics) is referred
 to in print-outs of MO eigenvectors and Mulliken populations in the BAS representation
 (as contrasted to the SFO representation).

 Notes:
 1. The functions are characterized by a polynomial prefactor (powers of x,y,z and r) and
    an exponential decay factor alpha.
 2. Since the basis sets are specific for an atom TYPE, the individual functions occur on
    all atoms of that type.
 3. The word 'Core' in the left margin signals that it is a Core Function (CF) : not a
    degree of freedom in the valence set, but only used to ensure orthogonalization of
    the other valence basis functions on the frozen Core Orbitals.


 (power of) X  Y  Z  R     Alpha  on Atom
            ==========     =====     ==========

 In                                   1
                                  ---------------------------------------------------------------------------
            0  0  0  0   339.000      1
            0  0  0  0    84.700      2
            0  0  0  0    49.300      3
            0  0  0  1    57.600      4
            0  0  0  1    21.100      5
            0  0  0  2    10.900      6
            0  0  0  2     6.450      7
            0  0  0  3     7.000      8
            0  0  0  3     4.500      9
            0  0  0  4     3.000     10
            0  0  0  4     1.900     11
            0  0  0  4     1.240     12
            1  0  0  0    84.700     13
            0  1  0  0    84.700     14
            0  0  1  0    84.700     15
            1  0  0  0    31.500     16
            0  1  0  0    31.500     17
            0  0  1  0    31.500     18
            1  0  0  0    20.250     19
            0  1  0  0    20.250     20
            0  0  1  0    20.250     21
            1  0  0  1    12.100     22
            0  1  0  1    12.100     23
            0  0  1  1    12.100     24
            1  0  0  1     8.900     25
            0  1  0  1     8.900     26
            0  0  1  1     8.900     27
            1  0  0  2     6.000     28
            0  1  0  2     6.000     29
            0  0  1  2     6.000     30
            1  0  0  2     3.750     31
            0  1  0  2     3.750     32
            0  0  1  2     3.750     33
            1  0  0  3     2.300     34
            0  1  0  3     2.300     35
            0  0  1  3     2.300     36
            1  0  0  3     1.300     37
            0  1  0  3     1.300     38
            0  0  1  3     1.300     39
            1  0  0  3     0.750     40
            0  1  0  3     0.750     41
            0  0  1  3     0.750     42
            2  0  0  0    19.250     43
            1  1  0  0    19.250     44
            1  0  1  0    19.250     45
            0  2  0  0    19.250     46
            0  1  1  0    19.250     47
            0  0  2  0    19.250     48
            2  0  0  0    11.600     49
            1  1  0  0    11.600     50
            1  0  1  0    11.600     51
            0  2  0  0    11.600     52
            0  1  1  0    11.600     53
            0  0  2  0    11.600     54
            2  0  0  0     7.800     55
            1  1  0  0     7.800     56
            1  0  1  0     7.800     57
            0  2  0  0     7.800     58
            0  1  1  0     7.800     59
            0  0  2  0     7.800     60
            2  0  0  1     5.550     61
            1  1  0  1     5.550     62
            1  0  1  1     5.550     63
            0  2  0  1     5.550     64
            0  1  1  1     5.550     65
            0  0  2  1     5.550     66
            2  0  0  1     3.250     67
            1  1  0  1     3.250     68
            1  0  1  1     3.250     69
            0  2  0  1     3.250     70
            0  1  1  1     3.250     71
            0  0  2  1     3.250     72
            2  0  0  1     1.900     73
            1  1  0  1     1.900     74
            1  0  1  1     1.900     75
            0  2  0  1     1.900     76
            0  1  1  1     1.900     77
            0  0  2  1     1.900     78
            2  0  0  2     1.300     79
            1  1  0  2     1.300     80
            1  0  1  2     1.300     81
            0  2  0  2     1.300     82
            0  1  1  2     1.300     83
            0  0  2  2     1.300     84
            3  0  0  0     2.000     85
            2  1  0  0     2.000     86
            2  0  1  0     2.000     87
            1  2  0  0     2.000     88
            1  1  1  0     2.000     89
            1  0  2  0     2.000     90
            0  3  0  0     2.000     91
            0  2  1  0     2.000     92
            0  1  2  0     2.000     93
            0  0  3  0     2.000     94
1
 ***************************************************************************************************



                                              ***********************
                                              *  T E C H N I C A L  *
                                              ***********************
  



 =============================================================
 P A R A L L E L I Z A T I O N  and  V E C T O R I Z A T I O N
 =============================================================
  
 Nr of parallel processes:                                1
 Maximum vector length in NumInt loops:                 128

 IO buffersize (Mb):                                     64.000000



 =====================
 S C F   U P D A T E S
 =====================
  
 Max. nr. of cycles:                               300
 Convergence criterion:                              0.0000000100
   secondary criterion:                              0.0000000100

 Mix parameter (when DIIS does not apply):           0.2000000000
 Special mix parameter for the first cycle:          1.0000000000
 Mixed ADIIS+DIIS will be used
    Max number of expansion vectors:                10
    Pure ADIIS when Max([F,P]) is above              0.1000000000
    Pure DIIS when Max([F,P]) is below               0.0010000000
 Automatic ElectronSmearing (in case of problematic SCF convergence) disabled



 =================
 P R E C I S I O N  ***  (General: NumInt, NeglectFunctionTails, ...)  ***
 =================
  

 NumInt:           Target precision:                12.0000000000
 -------           Initial precision:               10.0000000000
                   Min. precision (optimization):   10.0000000000

 Neglect Functions:          Basis functions:        0.1000000000E-13
 ------------------          Fit functions:          0.1000000000E-13



 ===========================
 L I N E A R   S C A L I N G
 ===========================
  

 Cut-off radii density fit:                        0.1000000000E-97
 Overlap cut-off criterion AO matrix elements:     0.1000000000E-97
 Cut-offs for Coulomb potential and fitted density:0.1000000000E-97
 Cut-off criterion for Coulomb multipole terms:    0.1000000000E-97
 Progressive Convergence parameter:                 0.000000000    
1
 ***************************************************************************************************



                                            ***************************
                                            *  C O M P U T A T I O N  *
                                            ***************************
  

 Number of elements of the density matrix on this node (used, total):      4465      4465



 ===========================================
 Numerical Integration : Fuzzy Cells (Becke)
 ===========================================
  
 Becke grid quality: VERYGOOD       
  
 Lebedev angular grid order:             min:  13 max:  41
 Nr. of radial points:                   min: 187 max: 187

 Total nr. of points:        187
 Nr. of blocks:                2
 Block length:                94
 Nr. of dummy points:          1


 Test of Precision of the Numerical Integration Grid
 ===================================================

 Integral of the Total Core Density:                   0.00000000000000



 ========================
 Density Fitting (zlmFit)
 ========================
  
 ZlmFit Fit Quality: VERYGOOD       
  
 Max L-expansion:                        min:   0 max:   0
 Nr. of radial interpolation points:     min: 410 max: 410



 =====
 S C F  ***  ScaSCF  ***
 =====
  

 CYCLE    1
 SCF Error: norm([F,P])=      0.000000000000, max([F,P])=      0.000000000000
 orbitals (Q,E):
 ---------------
 S :1...12           ( 2.00 -1200.4998)  ( 2.00  -300.0532)  ( 2.00  -133.0479)  ( 2.00   -74.6470)
                     ( 2.00   -47.5615)  ( 0.00   -32.3563)  ( 0.00   -21.8848)  ( 0.00   -14.1696)
                     ( 0.00    -8.7251)  ( 0.00   635.8496)  ( 0.00  6620.7366)  ( 0.00 80087.9967)
 P :1...10           ( 6.00  -300.0225)  ( 6.00  -132.9502)  ( 6.00   -74.6121)  ( 1.00   -46.9679)
                     ( 0.00   -30.3586)  ( 0.00   -18.5052)  ( 0.00   -10.7059)  ( 0.00    -5.9208)
                     ( 0.00   100.9724)  ( 0.00  2945.1412)
 D :1...7            (10.00  -133.2408)  (10.00   -74.3842)  ( 0.00   -46.1195)  ( 0.00   -29.1534)
                     ( 0.00   -17.9440)  ( 0.00   -10.9447)  ( 0.00    -8.3204)
 F :1...1            ( 0.00   -22.5000)

 CYCLE    2
  SDIIS (wt  0.000):  1.0000 -0.0000
 A-DIIS (wt  1.000):  0.0000  1.0000
  DIIS coefficients:  0.0000  1.0000
 SCF Error: norm([F,P])=    264.586210717079, max([F,P])=     38.164391960028
 orbitals (Q,E):
 ---------------
 S :1...6            ( 2.00  -916.8188)  ( 2.00   -94.0741)  ( 2.00    -3.8137)  ( 2.00    -0.0046)
                     ( 2.00     0.2395)  ( 0.00     0.9913)
 P :1...5            ( 6.00   -81.4621)  ( 6.00    -0.5021)  ( 6.00     0.0265)  ( 1.00     0.1868)
                     ( 0.00     0.7816)
 D :1...3            (10.00     0.2218)  (10.00     0.9027)  ( 0.00     2.6478)
 F :1...1            ( 0.00     1.7207)

 CYCLE    3
  SDIIS (wt  0.000):  0.1535  0.8465
 A-DIIS (wt  1.000):  0.5379  0.4621
  DIIS coefficients:  0.5379  0.4621
 SCF Error: norm([F,P])=    107.911337975020, max([F,P])=     28.348189497147
 orbitals (Q,E):
 ---------------
 S :1...6            ( 2.00  -980.6416)  ( 2.00  -145.5923)  ( 2.00   -33.2441)  ( 2.00   -10.0312)
                     ( 2.00    -3.5814)  ( 0.00    -1.0552)
 P :1...5            ( 6.00  -135.1809)  ( 6.00   -29.3597)  ( 6.00    -8.6683)  ( 1.00    -3.0003)
                     ( 0.00    -0.8255)
 D :1...3            (10.00   -22.0328)  (10.00    -6.2990)  ( 0.00    -2.0540)
 F :1...1            ( 0.00    -1.7636)

 CYCLE    4
  SDIIS (wt  0.000):  0.0211 -0.0064  0.9853
 A-DIIS (wt  1.000):  0.0000  0.0000  1.0000
  DIIS coefficients:  0.0000  0.0000  1.0000
 SCF Error: norm([F,P])=     16.780372690928, max([F,P])=      2.646117150539
 orbitals (Q,E):
 ---------------
 S :1...6            ( 2.00  -982.2874)  ( 2.00  -140.9575)  ( 2.00   -23.7305)  ( 2.00    -1.8377)
                     ( 2.00    -0.0012)  ( 0.00     0.2940)
 P :1...5            ( 6.00  -131.6382)  ( 6.00   -19.9492)  ( 6.00    -0.7703)  ( 1.00     0.0220)
                     ( 0.00     0.1709)
[...]
    9.O         -0.000   0.155   0.000        -0.297  -0.000  -0.000        -0.419  -0.000  -0.000
   10.C          0.000   0.475   0.000        -0.402  -0.000   0.001         0.570  -0.000  -0.000
   11.O          0.000  -0.155  -0.000         0.297   0.000  -0.000        -0.419  -0.000   0.000


                      2230.044                      2230.584                      2232.778
              ------------------------      ------------------------      ------------------------
    1.In         0.000  -0.002   0.000         0.000  -0.000  -0.001        -0.000  -0.000  -0.001
    2.C          0.000   0.570   0.000         0.000   0.329  -0.000        -0.000  -0.233  -0.000
    3.O          0.000  -0.419  -0.000         0.000  -0.242   0.000        -0.000   0.170  -0.000
    4.C          0.000   0.570  -0.000         0.000  -0.329  -0.000        -0.000   0.233  -0.000
    5.O          0.000  -0.419   0.000         0.000   0.242   0.000        -0.000  -0.170  -0.000
    6.C          0.000  -0.000  -0.000         0.000  -0.000   0.464        -0.000  -0.000   0.659
    7.O          0.000  -0.000   0.000         0.000  -0.000  -0.342        -0.000   0.000  -0.483
    8.C         -0.012  -0.001  -0.000         0.329  -0.000  -0.000        -0.233  -0.000  -0.000
    9.O          0.009  -0.000   0.000        -0.242  -0.000   0.000         0.170  -0.000  -0.000
   10.C         -0.012  -0.001   0.000        -0.329  -0.000  -0.000         0.233  -0.000  -0.000
   11.O          0.009  -0.000  -0.000         0.242   0.000   0.000        -0.170   0.000  -0.000




 List of All Frequencies:


 Intensities
 ===========

               Frequency       Dipole Strength        Absorption Intensity (degeneracy not counted)
                 cm-1           1e-40 esu2 cm2          km/mole
              ----------          ----------          ----------
               31.952487            0.000000            0.000000
               62.640268            0.413898            0.006499
               62.640268            0.413898            0.006499
               72.133125           62.779172            1.135085
               72.243024          135.680034            2.456914
               72.243024          135.680034            2.456914
               73.498671            0.000000            0.000000
              163.007759            0.000000            0.000000
              194.854737           68.371945            3.339389
              213.238733           68.252378            3.648060
              214.994293          220.350884           11.874622
              214.994293          220.350884           11.874622
              242.547534            0.000000            0.000000
              245.603383           22.390904            1.378428
              245.603383           22.390904            1.378428
              253.309116            0.000000            0.000000
              283.103997            4.466196            0.316929
              288.420539            4.372577            0.316113
              288.420539            4.372577            0.316113
              294.861105           11.257787            0.832048
              294.861105           11.257787            0.832048
              319.933900            0.000000            0.000000
             2228.417134            0.000000            0.000000
             2230.043532            1.155810            0.646067
             2230.043532            1.155810            0.646067
             2230.584102            0.238682            0.133449
             2232.778294            0.929552            0.520232



 ============================
 Statistical Thermal Analysis  ***  ideal gas assumed  ***
 ============================
  
 Pressure:                  1.000000 atm.
 Temperature:             298.150000 K



 Moments of Inertia (and direction vectors)
 ==========================================

        2926.2854       2926.2854       4045.3005
 ------------------------------------------------
           1.0000          0.0000          0.0000
           0.0000          1.0000          0.0000
           0.0000          0.0000          1.0000


 The rotational contribution to the molecular entropy includes
 a term, dependent on the symmetry number sigma. The results 
 reported below were computed using sigma = 4, determined from
 the point group symmetry of the input geometry (C(4V)). 
 If this is not the correct symmetry, please contact SCM to report a bug.
 Contributions from frequencies below 20 1/cm are not included in
 the vibrational sums. Their contributions, if any, are reported separately.


     Temp                                                       Transl     Rotat    Vibrat     Total
     ----                                                       ------     -----    ------     -----

     298.15   Entropy (cal/mole-K):                             42.507    29.161    57.198   128.866
              Internal Energy (Kcal/mole):                       0.889     0.889    30.096    31.874
              Constant Volume Heat Capacity (cal/mole-K):        2.981     2.981    40.182    46.144

              Summary of energy terms
                                                   hartree              eV         kcal/mol           kJ/mol
                                      --------------------     -----------       ----------      -----------
              Bond Energy:              -1.408215483715682        -38.3195          -883.67         -3697.27
              Internal Energy:           0.050794265686710          1.3822            31.87           133.36
              pV/n = RT:                 0.000944186013486          0.0257             0.59             2.48
              Enthalpy H:               -1.356477032015487        -36.9116          -851.20         -3561.43
              -T*S:                     -0.061228332127236         -1.6661           -38.42          -160.75
              Gibbs free energy:        -1.417705364142723        -38.5777          -889.62         -3722.18
 

 ***************************************************************************************************
 


====================================================================
*** DONE CALCULATING ANALYTICAL SECOND DERIVATIVES OF THE ENERGY ***
====================================================================

 
 
 ========================
 No memory problems found
 ========================
 
 Maximum number of active allocate calls:        2620
 
 *******************************************************************************

                             A D F   E X I T
 NORMAL TERMINATION



 =================
 Timing Statistics
 =================
  
 Total Used :                     CPU=      180.71      System=        0.76     Elapsed=      181.72

 Calls  Section                     ( Mean, Percentage )
 ---------------------------------------------------------------------------------------------------
     3  ><      ................      0.00    0.00             0.00    0.00             0.00    0.00
     1  INIT    ................      0.42    0.23             0.02    3.27             0.45    0.25
     1  GEOMET  ................      0.05    0.03             0.01    0.92             0.06    0.04
     1  FRAGM   ................      0.03    0.02             0.02    2.61             0.06    0.03
     1  INPUTA  ................      0.00    0.00             0.00    0.00             0.00    0.00
     1  ATDEN   ................      0.02    0.01             0.00    0.13             0.02    0.01
     1  MAINSY  ................      0.02    0.01             0.03    3.53             0.06    0.03
     1  SYMFIT  ................      0.01    0.00             0.00    0.13             0.01    0.00
     1  CORORT  ................      0.00    0.00             0.00    0.00             0.00    0.00
     1  SYMORB  ................      0.01    0.01             0.00    0.00             0.01    0.01
     1  CLSMAT  ................      0.02    0.01             0.00    0.13             0.02    0.01
     1  ORTHON  ................      0.02    0.01             0.00    0.26             0.02    0.01
     1  GENPT   ................      0.24    0.13             0.01    1.70             0.26    0.14
     1  PTBAS   ................      0.71    0.39             0.01    0.65             0.71    0.39
    15  FOCKY   ................      0.95    7.85             0.00    5.75             0.95    7.84
    15  FOCKTR  ................      0.01    0.05             0.00    0.00             0.01    0.05
    15  SDIIS   ................      0.01    0.06             0.00    0.39             0.01    0.06
     1  COREPS  ................      0.64    0.35             0.00    0.52             0.65    0.36
     1  TOTEN   ................      3.26    1.80             0.01    1.18             3.28    1.80
     1  POPAN   ................      0.01    0.00             0.00    0.13             0.02    0.01
     1  DEBYE   ................      0.02    0.01             0.00    0.26             0.02    0.01
     1  INPUTE  ................      0.00    0.00             0.00    0.00             0.00    0.00
     1  SYMORE  ................      0.00    0.00             0.00    0.00             0.00    0.00
     1  METS    ................      0.00    0.00             0.00    0.00             0.00    0.00
     1  CETS    ................      0.01    0.00             0.00    0.00             0.01    0.00
     2  ELNRGY  ................      1.69    1.87             0.00    0.91             1.69    1.86
     1  POPUL   ................      0.03    0.02             0.00    0.39             0.05    0.03
     1  ENGRAD  ................      0.00    0.00             0.00    0.00             0.00    0.00
     1  ENHESS  ................    157.40   87.10             0.58   76.34           158.11   87.01
     1  EXIT PROCEDURE .........      0.04    0.02             0.01    0.78             0.05    0.03


 Currently Open Files (EXIT00)
 ====================

 Unit    Access Format  Status   Type       Ident (file)
 -------------------------------------------------------
   3      SEQ    FORM   TRANSP  NORMAL      LOGFILE
                                          ( logfile )


 Buffered I/O statistics
 =======================
 Memory available:                     67108864
 Number of records fitting in memory:     16131
 Input :   0.2% of                       787219  *4k bytes
 Output:   5.2% of                        39319  *4k bytes
 Records from serial files evicted:           0
                    others evicted:           0
 Hash table lookups:    2130388 with          0 conflicts (  0.00%)

 ***************************************************************************************************
 (LOGFILE)
 <May19-2019> <11:24:39>  ADF 2017  RunTime: May19-2019 11:24:39  Nodes: 1  Procs: 1
 <May19-2019> <11:24:39>  Oxygen (TZ2P)
 <May19-2019> <11:24:39>  RunType   : CREATE
 <May19-2019> <11:24:39>  Net Charge: 0 (Nuclei minus Electrons)
 <May19-2019> <11:24:39>  Symmetry  : ATOM
  Coordinates
    Atom         X           Y           Z   (Angstrom)
    1.O         0.000000    0.000000    0.000000
 <May19-2019> <11:24:39>  >>>> CORORT
 <May19-2019> <11:24:39>  >>>> CLSMAT
 <May19-2019> <11:24:39>  >>>> ORTHON
 <May19-2019> <11:24:39>  >>>> GENPT
 <May19-2019> <11:24:39>  Block Length=  68
 <May19-2019> <11:24:39>  >>>> PTBAS
 <May19-2019> <11:24:39>  >>>> CYCLE
 <May19-2019> <11:24:39>              |Error|         MaxErr       Wt(A-DIIS)
 <May19-2019> <11:24:39>      1      0.00000000      0.00000000
 <May19-2019> <11:24:39>      2      8.76574541      5.51803131    100.0
 <May19-2019> <11:24:39>      3      3.58549945      2.49941011    100.0
 <May19-2019> <11:24:39>      4      1.14791911      0.58301962    100.0
 <May19-2019> <11:24:39>      5      1.51958547      0.84054201    100.0
 <May19-2019> <11:24:39>      6      0.17882893      0.10424203    100.0
 <May19-2019> <11:24:39>      7      0.20012529      0.11364913    100.0
 <May19-2019> <11:24:39>      8      0.01695178      0.00994720      9.0
 <May19-2019> <11:24:39>      9      0.00174843      0.00098437      0.0
 <May19-2019> <11:24:39>     10      0.00000143      0.00000071      0.0
 <May19-2019> <11:24:39>     11      0.00000005      0.00000002      0.0
 <May19-2019> <11:24:39>     12      0.00000000      0.00000000      0.0
 <May19-2019> <11:24:39>  SCF converged
 <May19-2019> <11:24:39>     13      0.00000000      0.00000000      0.0
 <May19-2019> <11:24:39>  >>>> POPAN
 <May19-2019> <11:24:39>  >>>> DEBYE
 <May19-2019> <11:24:39>  NORMAL TERMINATION
 <May19-2019> <11:24:39>  END
 <May19-2019> <11:24:40>  ADF 2017  RunTime: May19-2019 11:24:40  Nodes: 1  Procs: 1
 <May19-2019> <11:24:40>  Carbon (TZ2P)
 <May19-2019> <11:24:40>  RunType   : CREATE
 <May19-2019> <11:24:40>  Net Charge: 0 (Nuclei minus Electrons)
 <May19-2019> <11:24:40>  Symmetry  : ATOM
  Coordinates
    Atom         X           Y           Z   (Angstrom)
    1.C         0.000000    0.000000    0.000000
 <May19-2019> <11:24:40>  >>>> CORORT
 <May19-2019> <11:24:40>  >>>> CLSMAT
 <May19-2019> <11:24:40>  >>>> ORTHON
 <May19-2019> <11:24:40>  >>>> GENPT
 <May19-2019> <11:24:40>  Block Length=  72
 <May19-2019> <11:24:40>  >>>> PTBAS
 <May19-2019> <11:24:40>  >>>> CYCLE
 <May19-2019> <11:24:40>              |Error|         MaxErr       Wt(A-DIIS)
 <May19-2019> <11:24:40>      1      0.00000000      0.00000000
 <May19-2019> <11:24:40>      2      4.48031974      3.32884133    100.0
 <May19-2019> <11:24:40>      3      1.63678889      1.31529535    100.0
 <May19-2019> <11:24:40>      4      0.72226765      0.58081551    100.0
 <May19-2019> <11:24:40>      5      0.41279476      0.32864204    100.0
 <May19-2019> <11:24:40>      6      0.12664316      0.09684749     96.8
 <May19-2019> <11:24:40>      7      0.11556823      0.09012376     90.0
 <May19-2019> <11:24:40>      8      0.00662928      0.00514089      4.2
 <May19-2019> <11:24:40>      9      0.00021574      0.00016342      0.0
 <May19-2019> <11:24:40>     10      0.00000195      0.00000132      0.0
 <May19-2019> <11:24:40>     11      0.00000002      0.00000002      0.0
 <May19-2019> <11:24:40>     12      0.00000000      0.00000000      0.0
 <May19-2019> <11:24:40>  SCF converged
 <May19-2019> <11:24:40>     13      0.00000000      0.00000000      0.0
 <May19-2019> <11:24:40>  >>>> POPAN
 <May19-2019> <11:24:40>  >>>> DEBYE
 <May19-2019> <11:24:40>  NORMAL TERMINATION
 <May19-2019> <11:24:40>  END
 <May19-2019> <11:24:40>  ADF 2017  RunTime: May19-2019 11:24:40  Nodes: 1  Procs: 1
 <May19-2019> <11:24:40>  Indium (TZ2P, all electron)
 <May19-2019> <11:24:40>  RunType   : CREATE
 <May19-2019> <11:24:40>  Net Charge: 0 (Nuclei minus Electrons)
 <May19-2019> <11:24:40>  Symmetry  : ATOM
  Coordinates
    Atom         X           Y           Z   (Angstrom)
    1.In        0.000000    0.000000    0.000000
 <May19-2019> <11:24:41>  >>>> CORORT
 <May19-2019> <11:24:41>  >>>> CLSMAT
 <May19-2019> <11:24:41>  >>>> ORTHON
 <May19-2019> <11:24:41>  >>>> GENPT
 <May19-2019> <11:24:41>  Block Length=  94
 <May19-2019> <11:24:41>  >>>> PTBAS
 <May19-2019> <11:24:41>  >>>> CYCLE
 <May19-2019> <11:24:41>              |Error|         MaxErr       Wt(A-DIIS)
 <May19-2019> <11:24:41>      1      0.00000000      0.00000000
 <May19-2019> <11:24:41>      2    264.58621072     38.16439196    100.0
 <May19-2019> <11:24:41>      3    107.91133798     28.34818950    100.0
 <May19-2019> <11:24:41>      4     16.78037269      2.64611715    100.0
 <May19-2019> <11:24:42>      5     12.75016269      2.34719495    100.0
 <May19-2019> <11:24:42>      6      3.30974236      0.52712261    100.0
 <May19-2019> <11:24:42>      7      3.89226756      0.79713750    100.0
 <May19-2019> <11:24:42>      8      0.34960753      0.06504464     64.7
 <May19-2019> <11:24:42>      9      0.07104927      0.01373503     12.9
 <May19-2019> <11:24:42>     10      0.00807925      0.00158465      0.6
 <May19-2019> <11:24:42>     11      0.00042267      0.00009695      0.0
 <May19-2019> <11:24:43>     12      0.00001271      0.00000418      0.0
 <May19-2019> <11:24:43>     13      0.00000089      0.00000037      0.0
 <May19-2019> <11:24:43>     14      0.00000005      0.00000002      0.0
 <May19-2019> <11:24:43>     15      0.00000000      0.00000000      0.0
 <May19-2019> <11:24:43>  SCF converged
 <May19-2019> <11:24:43>     16      0.00000000      0.00000000      0.0
 <May19-2019> <11:24:43>  >>>> POPAN
 <May19-2019> <11:24:43>  >>>> DEBYE
 <May19-2019> <11:24:43>  NORMAL TERMINATION
 <May19-2019> <11:24:43>  END
 <May19-2019> <11:24:44>  ADF 2017  RunTime: May19-2019 11:24:44  Nodes: 1  Procs: 12
 <May19-2019> <11:24:44>  *** (NO TITLE) ***
 <May19-2019> <11:24:44>  RunType   : SINGLE POINT
 <May19-2019> <11:24:44>  Net Charge: 3 (Nuclei minus Electrons)
 <May19-2019> <11:24:44>  Symmetry  : C(4V)
 <May19-2019> <11:24:44>  >>>> FRAGM
  Coordinates
    Atom         X           Y           Z   (Angstrom)
    1.In        0.000000    0.000000    0.000000
    2.C         0.000000    2.490161    0.000000
    3.O         0.000000    3.612958    0.000000
    4.C         0.000000   -2.490161    0.000000
    5.O         0.000000   -3.612958    0.000000
    6.C         0.000000    0.000000   -2.490161
    7.O         0.000000    0.000000   -3.612958
    8.C         2.490161    0.000000    0.000000
    9.O         3.612958    0.000000    0.000000
   10.C        -2.490161    0.000000    0.000000
   11.O        -3.612958    0.000000    0.000000
 <May19-2019> <11:24:44>  >>>> CORORT
 <May19-2019> <11:24:44>  >>>> CLSMAT
 <May19-2019> <11:24:44>  >>>> ORTHON
 <May19-2019> <11:24:44>  >>>> GENPT
 <May19-2019> <11:24:44>  Block Length= 128
 <May19-2019> <11:24:45>  >>>> PTBAS
 <May19-2019> <11:24:45>  >>>> CYCLE
 <May19-2019> <11:24:47>              |Error|         MaxErr       Wt(A-DIIS)
 <May19-2019> <11:24:47>      1      7.25891323      1.78345368
 <May19-2019> <11:24:48>      2      1.30962810      0.26795942    100.0
 <May19-2019> <11:24:48>      3      0.36153178      0.07836396    100.0
 <May19-2019> <11:24:49>      4      0.74989186      0.14482959    100.0
 <May19-2019> <11:24:50>      5      0.29575425      0.05782696     57.4
 <May19-2019> <11:24:51>      6      0.43400098      0.09867618    100.0
 <May19-2019> <11:24:52>      7      0.05982992      0.01383268     13.0
 <May19-2019> <11:24:53>      8      0.03652333      0.01394713     13.0
 <May19-2019> <11:24:54>      9      0.01481303      0.00550236      4.5
 <May19-2019> <11:24:55>     10      0.00093587      0.00021491      0.0
 <May19-2019> <11:24:56>     11      0.00009890      0.00001749      0.0
 <May19-2019> <11:24:57>     12      0.00002597      0.00000418      0.0
 <May19-2019> <11:24:58>     13      0.00000598      0.00000168      0.0
 <May19-2019> <11:24:59>     14      0.00000086      0.00000015      0.0
 <May19-2019> <11:24:59>  SCF converged
 <May19-2019> <11:25:00>     15      0.00000027      0.00000005      0.0
 <May19-2019> <11:25:00>  >>>> TOTEN
 <May19-2019> <11:25:04>  >>>> POPAN
 <May19-2019> <11:25:04>  >>>> DEBYE
 <May19-2019> <11:25:04>  >>>> AMETS
 <May19-2019> <11:25:04>   Bond Energy          -1.40821548 a.u.
 <May19-2019> <11:25:04>   Bond Energy         -38.31949302 eV
 <May19-2019> <11:25:04>   Bond Energy        -883.67       kcal/mol
 <May19-2019> <11:25:04>  >>>> POPUL
 <May19-2019> <11:25:04>  >>>> ENGRAD
 <May19-2019> <11:25:07>  >>>> ENHESS
 <May19-2019> <11:25:08>  === NUCLEUS:     1
 <May19-2019> <11:25:39>  === NUCLEUS:     2
 <May19-2019> <11:26:10>  === NUCLEUS:     4
 <May19-2019> <11:26:38>  === NUCLEUS:     7
 <May19-2019> <11:27:09>  === NUCLEUS:     9
 <May19-2019> <11:27:37>  >>>> CALC_HESS_PMAT
 <May19-2019> <11:27:43>  >>>> CALC_HESS_WMAT
 <May19-2019> <11:27:45>  NORMAL TERMINATION
 <May19-2019> <11:27:45>  END
