
Create Al   file=TZ2P-Al
XC
  GGA blyp
End
End Input

 *******************************************************************************
 *                                                                             *
 *  -------------------------------------                                      *
 *   Amsterdam Density Functional  (ADF)         2017                          *
 *  -------------------------------------                                      *
 *                                               r58813 2017-04-12             *
 *                                                                             *
 *                                                                             *
 *                              =================                              *
 *                              |               |                              *
 *                              |     A D F     |                              *
 *                              |               |                              *
 *                              =================                              *
 *                                                                             *
 *                                                                             *
 *   Online information and documentation:  https://www.scm.com/support/       *
 *   E-mail:  support@scm.com   info@scm.com                                   *
 *                                                                             *
 *   Scientific publications using ADF results must be properly referenced     *
 *   See the User Manuals (or the web site) for recommended citations          *
 *   The terms and conditions of the End User License Agreement apply to       *
 *   the use of ADF, https://www.scm.com/license-terms/                        *
 *                                                                             *
 **********************  x86_64_linux_intel / intelmpi  ************************
 
 Licensed to: VU/FEW (+ SARA) / ALGEMEEN / Amsterdam / THE NETHERLANDS
 SCM User ID: u7668
  
 ADF 2017  RunTime: May18-2019 15:59:04  Nodes: 1  Procs: 1

 Temporary files are created in /local/datastore0/tcst25/190688/kid_0.AiexED

 Aluminium (TZ2P)



 ===========================
 A T T A C H E D   F I L E S
 ===========================
  
 CREATE - Data File:    TZ2P-Al
                        Aluminium (TZ2P)



 ===============================
 M O D E L   P A R A M E T E R S
 ===============================
  
 DENSITY FUNCTIONAL POTENTIAL (scf)
    LDA:                               Exchange only                           == Not Default ==
    Gradient Corrections:              Becke88 LYP                             == Not Default ==

 SPIN  (restricted / unrestr.)
    Molecule:                          Restricted                               

 OTHER ASPECTS
    Relativistic Corrections:          ---                                      

    Nuclear Charge Density Model:      Point Charge Nuclei                      
    Core Treatment:                    Frozen Orbital(s)                        

    Hyperfine or Zeeman Interaction:   ---                                      



 =====================================
 S Y M M E T R Y ,   E L E C T R O N S
 =====================================
  
 Symmetry: ATOM

 Irreducible Representations, including subspecies
 -------------------------------------------------
 S
 P:x  P:y  P:z
 D:z2  D:x2-y2  D:xy  D:xz  D:yz
 F:z3  F:z  F:xyz  F:z2x  F:z2y  F:x  F:y


 Configuration of Valence Electrons
 ==================================

          Occupation Numbers
          -------------------------------------------------
 S        3*2
 P        6 1
 D        0
 F        0
          -------------------------------------------------

 Total:   13

 Net Charge: 0 (Nuclei minus Electrons)

 Preset values for MO occupations will be applied through SCF cycle no. 1000000
 Thereafter, the program will assign electrons to MOs that are spatially
 similar to the occupied MOs in a "reference" cycle ("KeepOrbitals").
 The reference cycle is always the PREVIOUS cycle: it will evolve with
 the SCF procedure.



 ================================
 (Slater-type)  F U N C T I O N S  ***  (Basis and Fit)  ***
 ================================
  

 Atom Type    1  (Al)
 ==============

 Valence Basis Sets:  14
 -----------------------
   1 S   15.900000
   1 S   11.500000
   2 S    4.800000
   2 S    3.300000
   2 P    6.300000
   2 P    3.200000
   3 S    2.000000
   3 S    1.350000
   3 S    0.950000
   3 P    1.650000
   3 P    0.950000
   3 P    0.580000
   3 D    1.600000
   4 F    1.750000


 BAS: List of all Elementary Cartesian Basis Functions
 =====================================================

 The numbering in the list below (to the right of the function characteristics) is referred
 to in print-outs of MO eigenvectors and Mulliken populations in the BAS representation
 (as contrasted to the SFO representation).

 Notes:
 1. The functions are characterized by a polynomial prefactor (powers of x,y,z and r) and
    an exponential decay factor alpha.
 2. Since the basis sets are specific for an atom TYPE, the individual functions occur on
    all atoms of that type.
 3. The word 'Core' in the left margin signals that it is a Core Function (CF) : not a
    degree of freedom in the valence set, but only used to ensure orthogonalization of
    the other valence basis functions on the frozen Core Orbitals.


 (power of) X  Y  Z  R     Alpha  on Atom
            ==========     =====     ==========

 Al                                   1
                                  ---------------------------------------------------------------------------
            0  0  0  0    15.900      1
            0  0  0  0    11.500      2
            0  0  0  1     4.800      3
            0  0  0  1     3.300      4
            1  0  0  0     6.300      5
            0  1  0  0     6.300      6
            0  0  1  0     6.300      7
            1  0  0  0     3.200      8
            0  1  0  0     3.200      9
            0  0  1  0     3.200     10
            0  0  0  2     2.000     11
            0  0  0  2     1.350     12
            0  0  0  2     0.950     13
            1  0  0  1     1.650     14
            0  1  0  1     1.650     15
            0  0  1  1     1.650     16
            1  0  0  1     0.950     17
            0  1  0  1     0.950     18
            0  0  1  1     0.950     19
            1  0  0  1     0.580     20
            0  1  0  1     0.580     21
            0  0  1  1     0.580     22
            2  0  0  0     1.600     23
            1  1  0  0     1.600     24
            1  0  1  0     1.600     25
            0  2  0  0     1.600     26
            0  1  1  0     1.600     27
            0  0  2  0     1.600     28
            3  0  0  0     1.750     29
            2  1  0  0     1.750     30
            2  0  1  0     1.750     31
            1  2  0  0     1.750     32
            1  1  1  0     1.750     33
            1  0  2  0     1.750     34
            0  3  0  0     1.750     35
            0  2  1  0     1.750     36
            0  1  2  0     1.750     37
            0  0  3  0     1.750     38

 Total number of charge fitting functions (nprimf)       106
 Total number of Cartesian basis functions (naos)         38
 Total number of Cartesian core functions  (ncos)          0



 BAS: List of all Elementary Cartesian Basis Functions
 =====================================================

 The numbering in the list below (to the right of the function characteristics) is referred
 to in print-outs of MO eigenvectors and Mulliken populations in the BAS representation
 (as contrasted to the SFO representation).

 Notes:
 1. The functions are characterized by a polynomial prefactor (powers of x,y,z and r) and
    an exponential decay factor alpha.
 2. Since the basis sets are specific for an atom TYPE, the individual functions occur on
    all atoms of that type.
 3. The word 'Core' in the left margin signals that it is a Core Function (CF) : not a
    degree of freedom in the valence set, but only used to ensure orthogonalization of
    the other valence basis functions on the frozen Core Orbitals.


 (power of) X  Y  Z  R     Alpha  on Atom
            ==========     =====     ==========

 Al                                   1
                                  ---------------------------------------------------------------------------
            0  0  0  0    15.900      1
            0  0  0  0    11.500      2
            0  0  0  1     4.800      3
            0  0  0  1     3.300      4
            1  0  0  0     6.300      5
            0  1  0  0     6.300      6
            0  0  1  0     6.300      7
            1  0  0  0     3.200      8
            0  1  0  0     3.200      9
            0  0  1  0     3.200     10
            0  0  0  2     2.000     11
            0  0  0  2     1.350     12
            0  0  0  2     0.950     13
            1  0  0  1     1.650     14
            0  1  0  1     1.650     15
            0  0  1  1     1.650     16
            1  0  0  1     0.950     17
            0  1  0  1     0.950     18
            0  0  1  1     0.950     19
            1  0  0  1     0.580     20
            0  1  0  1     0.580     21
            0  0  1  1     0.580     22
            2  0  0  0     1.600     23
            1  1  0  0     1.600     24
            1  0  1  0     1.600     25
            0  2  0  0     1.600     26
            0  1  1  0     1.600     27
            0  0  2  0     1.600     28
            3  0  0  0     1.750     29
            2  1  0  0     1.750     30
            2  0  1  0     1.750     31
            1  2  0  0     1.750     32
            1  1  1  0     1.750     33
            1  0  2  0     1.750     34
            0  3  0  0     1.750     35
            0  2  1  0     1.750     36
            0  1  2  0     1.750     37
            0  0  3  0     1.750     38
1
 ***************************************************************************************************



                                              ***********************
                                              *  T E C H N I C A L  *
                                              ***********************
  



 =============================================================
 P A R A L L E L I Z A T I O N  and  V E C T O R I Z A T I O N
 =============================================================
  
 Nr of parallel processes:                                1
 Maximum vector length in NumInt loops:                 128

 IO buffersize (Mb):                                     64.000000



 =====================
 S C F   U P D A T E S
 =====================
  
 Max. nr. of cycles:                               300
 Convergence criterion:                              0.0000000100
   secondary criterion:                              0.0000000100

 Mix parameter (when DIIS does not apply):           0.2000000000
 Special mix parameter for the first cycle:          1.0000000000
 Mixed ADIIS+DIIS will be used
    Max number of expansion vectors:                10
    Pure ADIIS when Max([F,P]) is above              0.1000000000
    Pure DIIS when Max([F,P]) is below               0.0010000000
 Automatic ElectronSmearing (in case of problematic SCF convergence) disabled



 =================
 P R E C I S I O N  ***  (General: NumInt, NeglectFunctionTails, ...)  ***
 =================
  

 NumInt:           Target precision:                12.0000000000
 -------           Initial precision:               10.0000000000
                   Min. precision (optimization):   10.0000000000

 Neglect Functions:          Basis functions:        0.1000000000E-13
 ------------------          Fit functions:          0.1000000000E-13



 ===========================
 L I N E A R   S C A L I N G
 ===========================
  

 Cut-off radii density fit:                        0.1000000000E-97
 Overlap cut-off criterion AO matrix elements:     0.1000000000E-97
 Cut-offs for Coulomb potential and fitted density:0.1000000000E-97
 Cut-off criterion for Coulomb multipole terms:    0.1000000000E-97
 Progressive Convergence parameter:                 0.000000000    
1
 ***************************************************************************************************



                                            ***************************
                                            *  C O M P U T A T I O N  *
                                            ***************************
  

 Number of elements of the density matrix on this node (used, total):       741       741



 ===========================================
 Numerical Integration : Fuzzy Cells (Becke)
 ===========================================
  
 Becke grid quality: VERYGOOD       
  
 Lebedev angular grid order:             min:  13 max:  41
 Nr. of radial points:                   min:  85 max:  85

 Total nr. of points:         85
 Nr. of blocks:                1
 Block length:                85
 Nr. of dummy points:          0


 Test of Precision of the Numerical Integration Grid
 ===================================================

 Integral of the Total Core Density:                   0.00000000000000



 ========================
 Density Fitting (zlmFit)
 ========================
  
 ZlmFit Fit Quality: VERYGOOD       
  
 Max L-expansion:                        min:   0 max:   0
 Nr. of radial interpolation points:     min: 310 max: 310



 =====
 S C F  ***  ScaSCF  ***
 =====
  

 CYCLE    1
 SCF Error: norm([F,P])=      0.000000000000, max([F,P])=      0.000000000000
 orbitals (Q,E):
 ---------------
 S :1...7            ( 2.00   -84.4870)  ( 2.00   -21.0757)  ( 2.00    -9.3773)  ( 0.00    -5.2415)
                     ( 0.00    -3.2788)  ( 0.00    -2.0926)  ( 0.00    93.5784)
 P :1...5            ( 6.00   -21.1181)  ( 1.00    -9.3136)  ( 0.00    -5.0820)  ( 0.00    -2.8741)
                     ( 0.00    -1.5877)
 D :1...1            ( 0.00    -5.6533)
 F :1...1            ( 0.00    -4.1563)

 CYCLE    2
  SDIIS (wt  0.000):  1.0000  0.0000
 A-DIIS (wt  1.000):  0.0000  1.0000
  DIIS coefficients:  0.0000  1.0000
 SCF Error: norm([F,P])=     19.703187127064, max([F,P])=      6.542786111659
 orbitals (Q,E):
 ---------------
 S :1...4            ( 2.00   -45.9767)  ( 2.00    -0.8124)  ( 2.00     0.0181)  ( 0.00     0.3309)
 P :1...3            ( 6.00     0.0154)  ( 1.00     0.1274)  ( 0.00     0.4234)
 D :1...1            ( 0.00     0.9272)
 F :1...1            ( 0.00     1.3114)

 CYCLE    3
  SDIIS (wt  0.000):  0.2347  0.7653
 A-DIIS (wt  1.000):  0.6341  0.3659
  DIIS coefficients:  0.6341  0.3659
 SCF Error: norm([F,P])=     10.437858006925, max([F,P])=      6.314706340431
 orbitals (Q,E):
 ---------------
 S :1...4            ( 2.00   -54.3244)  ( 2.00    -4.5994)  ( 2.00    -0.7336)  ( 0.00    -0.1063)
 P :1...3            ( 6.00    -3.1313)  ( 1.00    -0.4568)  ( 0.00    -0.0483)
 D :1...1            ( 0.00    -0.1262)
 F :1...1            ( 0.00     0.5307)

 CYCLE    4
  SDIIS (wt  0.000):  0.0876 -0.0347  0.9471
 A-DIIS (wt  1.000):  0.0000  0.0000  1.0000
  DIIS coefficients:  0.0000  0.0000  1.0000
 SCF Error: norm([F,P])=      2.400667946041, max([F,P])=      1.075614954774
 orbitals (Q,E):
 ---------------
 S :1...4            ( 2.00   -55.8459)  ( 2.00    -3.8681)  ( 2.00    -0.1682)  ( 0.00     0.1047)
 P :1...3            ( 6.00    -2.5046)  ( 1.00    -0.0200)  ( 0.00     0.0831)
 D :1...1            ( 0.00     0.5130)
 F :1...1            ( 0.00     1.0508)

 CYCLE    5
  SDIIS (wt  0.000):  0.0011  0.0011  0.2756  0.7221
 A-DIIS (wt  1.000):  0.0000  0.0000  0.0000  1.0000
  DIIS coefficients:  0.0000  0.0000  0.0000  1.0000
 SCF Error: norm([F,P])=      0.913965106166, max([F,P])=      0.366443746555
 orbitals (Q,E):
 ---------------
 S :1...4            ( 2.00   -55.2795)  ( 2.00    -3.9874)  ( 2.00    -0.3461)  ( 0.00     0.0187)
 P :1...3            ( 6.00    -2.5818)  ( 1.00    -0.1461)  ( 0.00     0.0163)
 D :1...1            ( 0.00     0.2936)
 F :1...1            ( 0.00     0.8643)

 CYCLE    6
  SDIIS (wt  0.000):  0.0001  0.0002  0.0195  0.3490  0.6313
 A-DIIS (wt  1.000):  0.0000  0.0000  0.0000  0.0000  1.0000
  DIIS coefficients:  0.0000  0.0000  0.0000  0.0000  1.0000
 SCF Error: norm([F,P])=      0.436690185879, max([F,P])=      0.173063218477
 orbitals (Q,E):
 ---------------
 S :1...4            ( 2.00   -55.5633)  ( 2.00    -3.9562)  ( 2.00    -0.2582)  ( 0.00     0.0602)
 P :1...3            ( 6.00    -2.5698)  ( 1.00    -0.0783)  ( 0.00     0.0460)
 D :1...1            ( 0.00     0.3972)
 F :1...1            ( 0.00     0.9550)

 CYCLE    7
  SDIIS (wt  0.116): -0.0001  0.0002 -0.0030  0.0471  0.3966  0.5592
 A-DIIS (wt  0.884):  0.0000  0.0000  0.0000  0.0000  0.0000  1.0000
  DIIS coefficients: -0.0000  0.0000 -0.0004  0.0055  0.0462  0.9487
 SCF Error: norm([F,P])=      0.225509801030, max([F,P])=      0.088468265548
 orbitals (Q,E):
 ---------------
 S :1...4            ( 2.00   -55.3985)  ( 2.00    -3.9441)  ( 2.00    -0.2865)  ( 0.00     0.0462)
 P :1...3            ( 6.00    -2.5481)  ( 1.00    -0.0998)  ( 0.00     0.0351)
 D :1...1            ( 0.00     0.3628)
 F :1...1            ( 0.00     0.9244)

 CYCLE    8
  SDIIS (wt  0.576): -0.0000 -0.0000 -0.0014 -0.0225  0.0707  0.4551  0.4981
 A-DIIS (wt  0.424):  0.0000  0.0000  0.0000  0.0000  0.0000  0.0000  1.0000
  DIIS coefficients: -0.0000 -0.0000 -0.0008 -0.0130  0.0408  0.2623  0.7108
 SCF Error: norm([F,P])=      0.109470509274, max([F,P])=      0.042946018722
 orbitals (Q,E):
 ---------------
 S :1...4            ( 2.00   -55.4721)  ( 2.00    -3.9572)  ( 2.00    -0.2790)  ( 0.00     0.0500)
 P :1...3            ( 6.00    -2.5650)  ( 1.00    -0.0939)  ( 0.00     0.0380)
 D :1...1            ( 0.00     0.3720)
 F :1...1            ( 0.00     0.9330)

 CYCLE    9
  SDIIS (wt  0.902): -0.0000 -0.0000  0.0002  0.0027 -0.0233 -0.0193  0.2642  0.7755
 A-DIIS (wt  0.098):  0.0000  0.0000  0.0000  0.0000  0.0000  0.0000  0.0000  1.0000
  DIIS coefficients: -0.0000 -0.0000  0.0002  0.0024 -0.0211 -0.0174  0.2384  0.7975
 SCF Error: norm([F,P])=      0.027409913733, max([F,P])=      0.010675338569
 orbitals (Q,E):
 ---------------
 S :1...4            ( 2.00   -55.4551)  ( 2.00    -3.9526)  ( 2.00    -0.2796)  ( 0.00     0.0497)
 P :1...3            ( 6.00    -2.5596)  ( 1.00    -0.0944)  ( 0.00     0.0377)
 D :1...1            ( 0.00     0.3712)
 F :1...1            ( 0.00     0.9321)

 CYCLE   10
  SDIIS (wt  1.000): -0.0000  0.0000 -0.0000 -0.0000  0.0006 -0.0009  0.0028  0.0841  0.9135
  DIIS coefficients: -0.0000  0.0000 -0.0000 -0.0000  0.0006 -0.0009  0.0028  0.0841  0.9135
 SCF Error: norm([F,P])=      0.001679451292, max([F,P])=      0.000648730246
 orbitals (Q,E):
 ---------------
 S :1...4            ( 2.00   -55.4561)  ( 2.00    -3.9530)  ( 2.00    -0.2797)  ( 0.00     0.0497)
 P :1...3            ( 6.00    -2.5600)  ( 1.00    -0.0944)  ( 0.00     0.0377)
 D :1...1            ( 0.00     0.3711)
 F :1...1            ( 0.00     0.9321)

 CYCLE   11
  SDIIS (wt  1.000): -0.0000 -0.0000  0.0000 -0.0000 -0.0000  0.0016  0.0225  0.9760
  DIIS coefficients: -0.0000 -0.0000  0.0000 -0.0000 -0.0000  0.0016  0.0225  0.9760
 SCF Error: norm([F,P])=      0.000002033754, max([F,P])=      0.000000855064
 orbitals (Q,E):
 ---------------
 S :1...4            ( 2.00   -55.4561)  ( 2.00    -3.9530)  ( 2.00    -0.2797)  ( 0.00     0.0497)
 P :1...3            ( 6.00    -2.5600)  ( 1.00    -0.0944)  ( 0.00     0.0377)
 D :1...1            ( 0.00     0.3711)
 F :1...1            ( 0.00     0.9321)

 CYCLE   12
  SDIIS (wt  1.000): -0.0000 -0.0002 -0.0262  1.0264
  DIIS coefficients: -0.0000 -0.0002 -0.0262  1.0264
 SCF Error: norm([F,P])=      0.000000010763, max([F,P])=      0.000000005421
 orbitals (Q,E):
 ---------------
 S :1...4            ( 2.00   -55.4561)  ( 2.00    -3.9530)  ( 2.00    -0.2797)  ( 0.00     0.0497)
 P :1...3            ( 6.00    -2.5600)  ( 1.00    -0.0944)  ( 0.00     0.0377)
 D :1...1            ( 0.00     0.3711)
 F :1...1            ( 0.00     0.9321)

 SCF CONVERGED

 CYCLE   13
1
 ***************************************************************************************************



                                                *******************
                                                *  R E S U L T S  *
                                                *******************
  
 *** Setting up for NEW gradients in Focky
 *** Using FIT density in Focky

 Orbital Energies, per Irrep and Spin:
 ======================================
                        Occup              E (au)              E (eV)       Diff (eV) with prev. cycle
                        -----      --------------------        ------       --------------------------
 S
               1        2.000     -0.55456147426998E+02     -1509.039               2.76E-09
               2        2.000     -0.39529542546537E+01      -107.565               1.30E-09
               3        2.000     -0.27965196745147E+00        -7.610               8.56E-10
               4        0.000      0.49650507617542E-01         1.351
               5        0.000      0.72172213067489E+00        19.639
               6        0.000      0.58319719510007E+01       158.696
               7        0.000      0.11923573963194E+03      3244.570
 P
               1        6.000     -0.25600226844991E+01       -69.662               1.49E-09
               2        1.000     -0.94435460415481E-01        -2.570               8.62E-10
               3        0.000      0.37712802954337E-01         1.026
               4        0.000      0.43331177654454E+00        11.791
               5        0.000      0.62903899972702E+01       171.170
 D
               1        0.000      0.37113560781223E+00        10.099
 F
               1        0.000      0.93206551753248E+00        25.363


 Partially Occupied:
               2 P                -0.94435460415481E-01
  
 HOMO :        3 S                -0.27965196745147E+00
 LUMO :        3 P                 0.37712802954337E-01
  


 Orbital Energies, all Irreps
 ========================================

 Irrep        no.  (spin)   Occup              E (au)                E (eV)
 ---------------------------------------------------------------------------
 S             1             2.00       -0.55456147426998E+02     -1509.0386
 S             2             2.00       -0.39529542546537E+01      -107.5654
 P             1             6.00       -0.25600226844991E+01       -69.6618
 S             3             2.00       -0.27965196745147E+00        -7.6097
 P             2             1.00       -0.94435460415481E-01        -2.5697
 P             3             0.00        0.37712802954337E-01         1.0262
 S             4             0.00        0.49650507617542E-01         1.3511
 D             1             0.00        0.37113560781223E+00        10.0991
 P             4             0.00        0.43331177654454E+00        11.7910
 S             5             0.00        0.72172213067489E+00        19.6391
 F             1             0.00        0.93206551753248E+00        25.3628
 S             6             0.00        0.58319719510007E+01       158.6960
 P             5             0.00        0.62903899972702E+01       171.1702
 S             7             0.00        0.11923573963194E+03      3244.5696


 All Electron Calculation, thus no Orbital Energies of the Core Orbitals are calculated



 =======================================
 M U L L I K E N   P O P U L A T I O N S
 =======================================
  
 The survey below gives for each atom:
 a) the total charge (Z minus electrons)
 b) the net spin polarization (nr of electrons spin-A minus spin-B)
 c) for each spin the atomic electron valence density (integrated) per L-value.

 Atom              Charge    Spin density          S         P         D         F
 ----              ------    ------------       ------    ------    ------    ------
 1 Al             -0.0000                       6.0000    7.0000    0.0000    0.0000

 Populations of individual BAS functions
 ----------------------------------------
 1 Al           0.4821  1.4870  1.2979  0.7197  0.7789  0.7789  0.7789  1.2258  1.2258  1.2258
                0.5938  1.0832  0.3362  0.0807  0.0807  0.0807  0.1997  0.1997  0.1997  0.0483
                0.0483  0.0483  0.0000  0.0000  0.0000  0.0000  0.0000  0.0000  0.0000  0.0000
                0.0000  0.0000  0.0000  0.0000  0.0000  0.0000  0.0000  0.0000

 Gross Charges per Atom (Z minus electrons)
 ==========================================
            -0.0000
 Net Total: -0.00000000



 =======================================================================
 Electrostatic potential at the Nuclei due to electrons and other nuclei
 =======================================================================
  
         Atom                  Potential
         ----                  ---------
     1)   Al                 44.49689816
 
 
 ========================
 No memory problems found
 ========================
 
 Maximum number of active allocate calls:         447
 
 *******************************************************************************

                             A D F   E X I T
 NORMAL TERMINATION



 =================
 Timing Statistics
 =================
  
 Total Used :                     CPU=        1.26      System=        0.05     Elapsed=        1.31

 Calls  Section                     ( Mean, Percentage )
 ---------------------------------------------------------------------------------------------------
     3  ><      ................      0.00    0.08             0.00    0.00             0.00    0.06
     1  INIT    ................      0.01    1.04             0.02   40.82             0.03    2.68
     1  GEOMET  ................      0.01    0.72             0.00    8.16             0.01    1.01
     1  INPUTA  ................      0.00    0.08             0.00    4.08             0.00    0.24
     1  MAINSY  ................      0.01    0.64             0.00    0.00             0.01    0.61
     1  SYMFIT  ................      0.00    0.00             0.00    2.04             0.00    0.09
     1  CORORT  ................      0.00    0.08             0.00    0.00             0.00    0.03
     1  SYMORB  ................      0.00    0.08             0.00    0.00             0.00    0.12
     1  CLSMAT  ................      0.01    0.64             0.00    2.04             0.01    0.70
     1  ORTHON  ................      0.00    0.08             0.00    4.08             0.00    0.23
     1  GENPT   ................      0.03    2.07             0.00    2.04             0.03    2.01
     1  PTBAS   ................      0.01    0.48             0.00    0.00             0.01    0.48
    13  FOCKY   ................      0.08   82.09             0.00   22.45             0.08   79.83
    13  FOCKTR  ................      0.00    1.43             0.00    4.08             0.00    1.45
    13  SDIIS   ................      0.00    2.79             0.00    2.04             0.00    2.71
     1  COREPS  ................      0.06    4.86             0.00    0.00             0.06    4.65
     1  POPAN   ................      0.01    0.64             0.00    2.04             0.01    0.70
     1  DEBYE   ................      0.00    0.08             0.00    0.00             0.00    0.08
     1  EXIT PROCEDURE .........      0.03    2.15             0.00    6.12             0.03    2.32


 Currently Open Files (EXIT00)
 ====================

 Unit    Access Format  Status   Type       Ident (file)
 -------------------------------------------------------
   3      SEQ    FORM   TRANSP  NORMAL      LOGFILE
                                          ( logfile )


 Buffered I/O statistics
 =======================
 Memory available:                     67108864
 Number of records fitting in memory:     16131
 Input :   0.1% of                        28581  *4k bytes
 Output:  12.3% of                         1537  *4k bytes
 Records from serial files evicted:           0
                    others evicted:           0
 Hash table lookups:      73744 with          0 conflicts (  0.00%)

 ***************************************************************************************************
 (LOGFILE)
 <May18-2019> <15:59:04>  ADF 2017  RunTime: May18-2019 15:59:04  Nodes: 1  Procs: 1
 <May18-2019> <15:59:04>  Aluminium (TZ2P)
 <May18-2019> <15:59:04>  RunType   : CREATE
 <May18-2019> <15:59:04>  Net Charge: 0 (Nuclei minus Electrons)
 <May18-2019> <15:59:04>  Symmetry  : ATOM
  Coordinates
    Atom         X           Y           Z   (Angstrom)
    1.Al        0.000000    0.000000    0.000000
 <May18-2019> <15:59:04>  >>>> CORORT
 <May18-2019> <15:59:04>  >>>> CLSMAT
 <May18-2019> <15:59:04>  >>>> ORTHON
 <May18-2019> <15:59:04>  >>>> GENPT
 <May18-2019> <15:59:04>  Block Length=  85
 <May18-2019> <15:59:04>  >>>> PTBAS
 <May18-2019> <15:59:04>  >>>> CYCLE
 <May18-2019> <15:59:04>              |Error|         MaxErr       Wt(A-DIIS)
 <May18-2019> <15:59:04>      1      0.00000000      0.00000000
 <May18-2019> <15:59:04>      2     19.70318713      6.54278611    100.0
 <May18-2019> <15:59:04>      3     10.43785801      6.31470634    100.0
 <May18-2019> <15:59:04>      4      2.40066795      1.07561495    100.0
 <May18-2019> <15:59:04>      5      0.91396511      0.36644375    100.0
 <May18-2019> <15:59:04>      6      0.43669019      0.17306322    100.0
 <May18-2019> <15:59:04>      7      0.22550980      0.08846827     88.4
 <May18-2019> <15:59:04>      8      0.10947051      0.04294602     42.4
 <May18-2019> <15:59:05>      9      0.02740991      0.01067534      9.8
 <May18-2019> <15:59:05>     10      0.00167945      0.00064873      0.0
 <May18-2019> <15:59:05>     11      0.00000203      0.00000086      0.0
 <May18-2019> <15:59:05>     12      0.00000001      0.00000001      0.0
 <May18-2019> <15:59:05>  SCF converged
 <May18-2019> <15:59:05>     13      0.00000000      0.00000000      0.0
 <May18-2019> <15:59:05>  >>>> POPAN
 <May18-2019> <15:59:05>  >>>> DEBYE
 <May18-2019> <15:59:05>  NORMAL TERMINATION
 <May18-2019> <15:59:05>  END

Create O   file=TZ2P-O
XC
  GGA blyp
End
End Input

 *******************************************************************************
 *                                                                             *
 *  -------------------------------------                                      *
 *   Amsterdam Density Functional  (ADF)         2017                          *
 *  -------------------------------------                                      *
 *                                               r58813 2017-04-12             *
 *                                                                             *
 *                                                                             *
 *                              =================                              *
 *                              |               |                              *
 *                              |     A D F     |                              *
 *                              |               |                              *
 *                              =================                              *
 *                                                                             *
 *                                                                             *
 *   Online information and documentation:  https://www.scm.com/support/       *
 *   E-mail:  support@scm.com   info@scm.com                                   *
 *                                                                             *
 *   Scientific publications using ADF results must be properly referenced     *
 *   See the User Manuals (or the web site) for recommended citations          *
 *   The terms and conditions of the End User License Agreement apply to       *
 *   the use of ADF, https://www.scm.com/license-terms/                        *
 *                                                                             *
 **********************  x86_64_linux_intel / intelmpi  ************************
 
 Licensed to: VU/FEW (+ SARA) / ALGEMEEN / Amsterdam / THE NETHERLANDS
 SCM User ID: u7668
  
 ADF 2017  RunTime: May18-2019 15:59:05  Nodes: 1  Procs: 1

 Temporary files are created in /local/datastore0/tcst25/190688/kid_0.7PFtTb

 Oxygen (TZ2P)



 ===========================
 A T T A C H E D   F I L E S
 ===========================
  
 CREATE - Data File:    TZ2P-O
                        Oxygen (TZ2P)



 ===============================
 M O D E L   P A R A M E T E R S
 ===============================
  
 DENSITY FUNCTIONAL POTENTIAL (scf)
    LDA:                               Exchange only                           == Not Default ==
    Gradient Corrections:              Becke88 LYP                             == Not Default ==

 SPIN  (restricted / unrestr.)
    Molecule:                          Restricted                               

 OTHER ASPECTS
    Relativistic Corrections:          ---                                      

    Nuclear Charge Density Model:      Point Charge Nuclei                      
    Core Treatment:                    Frozen Orbital(s)                        

    Hyperfine or Zeeman Interaction:   ---                                      



 =====================================
 S Y M M E T R Y ,   E L E C T R O N S
 =====================================
  
 Symmetry: ATOM

 Irreducible Representations, including subspecies
 -------------------------------------------------
 S
 P:x  P:y  P:z
 D:z2  D:x2-y2  D:xy  D:xz  D:yz
 F:z3  F:z  F:xyz  F:z2x  F:z2y  F:x  F:y


 Configuration of Valence Electrons
 ==================================

          Occupation Numbers
          -------------------------------------------------
 S        2*2
 P        4
 D        0
 F        0
          -------------------------------------------------

 Total:   8

 Net Charge: 0 (Nuclei minus Electrons)

 Preset values for MO occupations will be applied through SCF cycle no. 1000000
 Thereafter, the program will assign electrons to MOs that are spatially
 similar to the occupied MOs in a "reference" cycle ("KeepOrbitals").
 The reference cycle is always the PREVIOUS cycle: it will evolve with
 the SCF procedure.



 ================================
 (Slater-type)  F U N C T I O N S  ***  (Basis and Fit)  ***
 ================================
  

 Atom Type    1  (O)
 ==============

 Valence Basis Sets:  10
 -----------------------
   1 S    9.800000
   1 S    6.800000
   2 S    7.580000
   2 S    2.880000
   2 S    1.720000
   2 P    4.080000
   2 P    2.080000
   2 P    1.120000
   3 D    2.000000
   4 F    3.000000


 BAS: List of all Elementary Cartesian Basis Functions
 =====================================================

 The numbering in the list below (to the right of the function characteristics) is referred
 to in print-outs of MO eigenvectors and Mulliken populations in the BAS representation
 (as contrasted to the SFO representation).

 Notes:
 1. The functions are characterized by a polynomial prefactor (powers of x,y,z and r) and
    an exponential decay factor alpha.
 2. Since the basis sets are specific for an atom TYPE, the individual functions occur on
    all atoms of that type.
 3. The word 'Core' in the left margin signals that it is a Core Function (CF) : not a
    degree of freedom in the valence set, but only used to ensure orthogonalization of
    the other valence basis functions on the frozen Core Orbitals.


 (power of) X  Y  Z  R     Alpha  on Atom
            ==========     =====     ==========

 O                                    1
                                  ---------------------------------------------------------------------------
            0  0  0  0     9.800      1
            0  0  0  0     6.800      2
            0  0  0  1     7.580      3
            0  0  0  1     2.880      4
            0  0  0  1     1.720      5
            1  0  0  0     4.080      6
            0  1  0  0     4.080      7
            0  0  1  0     4.080      8
            1  0  0  0     2.080      9
            0  1  0  0     2.080     10
            0  0  1  0     2.080     11
            1  0  0  0     1.120     12
            0  1  0  0     1.120     13
            0  0  1  0     1.120     14
            2  0  0  0     2.000     15
            1  1  0  0     2.000     16
            1  0  1  0     2.000     17
            0  2  0  0     2.000     18
            0  1  1  0     2.000     19
            0  0  2  0     2.000     20
            3  0  0  0     3.000     21
            2  1  0  0     3.000     22
            2  0  1  0     3.000     23
            1  2  0  0     3.000     24
            1  1  1  0     3.000     25
            1  0  2  0     3.000     26
            0  3  0  0     3.000     27
            0  2  1  0     3.000     28
            0  1  2  0     3.000     29
            0  0  3  0     3.000     30

 Total number of charge fitting functions (nprimf)        84
 Total number of Cartesian basis functions (naos)         30
 Total number of Cartesian core functions  (ncos)          0



 BAS: List of all Elementary Cartesian Basis Functions
 =====================================================

 The numbering in the list below (to the right of the function characteristics) is referred
 to in print-outs of MO eigenvectors and Mulliken populations in the BAS representation
 (as contrasted to the SFO representation).

 Notes:
 1. The functions are characterized by a polynomial prefactor (powers of x,y,z and r) and
    an exponential decay factor alpha.
 2. Since the basis sets are specific for an atom TYPE, the individual functions occur on
    all atoms of that type.
 3. The word 'Core' in the left margin signals that it is a Core Function (CF) : not a
    degree of freedom in the valence set, but only used to ensure orthogonalization of
    the other valence basis functions on the frozen Core Orbitals.


 (power of) X  Y  Z  R     Alpha  on Atom
            ==========     =====     ==========

 O                                    1
                                  ---------------------------------------------------------------------------
            0  0  0  0     9.800      1
            0  0  0  0     6.800      2
            0  0  0  1     7.580      3
            0  0  0  1     2.880      4
            0  0  0  1     1.720      5
            1  0  0  0     4.080      6
            0  1  0  0     4.080      7
            0  0  1  0     4.080      8
            1  0  0  0     2.080      9
            0  1  0  0     2.080     10
            0  0  1  0     2.080     11
            1  0  0  0     1.120     12
            0  1  0  0     1.120     13
            0  0  1  0     1.120     14
            2  0  0  0     2.000     15
            1  1  0  0     2.000     16
            1  0  1  0     2.000     17
            0  2  0  0     2.000     18
            0  1  1  0     2.000     19
            0  0  2  0     2.000     20
            3  0  0  0     3.000     21
            2  1  0  0     3.000     22
            2  0  1  0     3.000     23
            1  2  0  0     3.000     24
            1  1  1  0     3.000     25
            1  0  2  0     3.000     26
            0  3  0  0     3.000     27
            0  2  1  0     3.000     28
            0  1  2  0     3.000     29
            0  0  3  0     3.000     30
1
 ***************************************************************************************************



                                              ***********************
                                              *  T E C H N I C A L  *
                                              ***********************
  



 =============================================================
 P A R A L L E L I Z A T I O N  and  V E C T O R I Z A T I O N
 =============================================================
  
 Nr of parallel processes:                                1
 Maximum vector length in NumInt loops:                 128

 IO buffersize (Mb):                                     64.000000



 =====================
 S C F   U P D A T E S
 =====================
  
 Max. nr. of cycles:                               300
 Convergence criterion:                              0.0000000100
   secondary criterion:                              0.0000000100

 Mix parameter (when DIIS does not apply):           0.2000000000
 Special mix parameter for the first cycle:          1.0000000000
 Mixed ADIIS+DIIS will be used
    Max number of expansion vectors:                10
    Pure ADIIS when Max([F,P]) is above              0.1000000000
    Pure DIIS when Max([F,P]) is below               0.0010000000
 Automatic ElectronSmearing (in case of problematic SCF convergence) disabled



 =================
 P R E C I S I O N  ***  (General: NumInt, NeglectFunctionTails, ...)  ***
 =================
  

 NumInt:           Target precision:                12.0000000000
 -------           Initial precision:               10.0000000000
                   Min. precision (optimization):   10.0000000000

 Neglect Functions:          Basis functions:        0.1000000000E-13
 ------------------          Fit functions:          0.1000000000E-13



 ===========================
 L I N E A R   S C A L I N G
 ===========================
  

 Cut-off radii density fit:                        0.1000000000E-97
 Overlap cut-off criterion AO matrix elements:     0.1000000000E-97
 Cut-offs for Coulomb potential and fitted density:0.1000000000E-97
 Cut-off criterion for Coulomb multipole terms:    0.1000000000E-97
 Progressive Convergence parameter:                 0.000000000    
1
 ***************************************************************************************************



                                            ***************************
                                            *  C O M P U T A T I O N  *
                                            ***************************
  

 Number of elements of the density matrix on this node (used, total):       465       465



 ===========================================
 Numerical Integration : Fuzzy Cells (Becke)
 ===========================================
  
 Becke grid quality: VERYGOOD       
  
 Lebedev angular grid order:             min:  13 max:  41
 Nr. of radial points:                   min:  68 max:  68

 Total nr. of points:         68
 Nr. of blocks:                1
 Block length:                68
 Nr. of dummy points:          0


 Test of Precision of the Numerical Integration Grid
 ===================================================

 Integral of the Total Core Density:                   0.00000000000000



 ========================
 Density Fitting (zlmFit)
 ========================
  
 ZlmFit Fit Quality: VERYGOOD       
  
 Max L-expansion:                        min:   0 max:   0
 Nr. of radial interpolation points:     min: 180 max: 180



 =====
 S C F  ***  ScaSCF  ***
 =====
  

 CYCLE    1
 SCF Error: norm([F,P])=      0.000000000000, max([F,P])=      0.000000000000
 orbitals (Q,E):
 ---------------
 S :1...5            ( 2.00   -31.9999)  ( 2.00    -7.9363)  ( 0.00    -3.4636)  ( 0.00     4.3191)
                     ( 0.00   110.5486)
 P :1...3            ( 4.00    -7.9991)  ( 0.00    -3.4855)  ( 0.00    -1.8903)
 D :1...1            ( 0.00    -3.3333)
 F :1...1            ( 0.00    -1.5000)

 CYCLE    2
  SDIIS (wt  0.000):  1.0000 -0.0000
 A-DIIS (wt  1.000):  0.0000  1.0000
  DIIS coefficients:  0.0000  1.0000
 SCF Error: norm([F,P])=      8.765745414074, max([F,P])=      5.518031311555
 orbitals (Q,E):
 ---------------
 S :1...3            ( 2.00   -14.5579)  ( 2.00    -0.0124)  ( 0.00     1.8192)
 P :1...2            ( 4.00     0.2183)  ( 0.00     1.2385)
 D :1...1            ( 0.00     1.5388)
 F :1...1            ( 0.00     3.9464)

 CYCLE    3
  SDIIS (wt  0.000):  0.2278  0.7722
 A-DIIS (wt  1.000):  0.3148  0.6852
  DIIS coefficients:  0.3148  0.6852
 SCF Error: norm([F,P])=      3.585499450444, max([F,P])=      2.499410108106
 orbitals (Q,E):
 ---------------
 S :1...3            ( 2.00   -19.8063)  ( 2.00    -1.5198)  ( 0.00     0.3996)
 P :1...2            ( 4.00    -0.9763)  ( 0.00     0.1325)
 D :1...1            ( 0.00     0.6540)
 F :1...1            ( 0.00     2.8642)

 CYCLE    4
  SDIIS (wt  0.000): -0.0456  0.1707  0.8749
 A-DIIS (wt  1.000):  0.0000  0.0000  1.0000
  DIIS coefficients:  0.0000  0.0000  1.0000
 SCF Error: norm([F,P])=      1.147919112368, max([F,P])=      0.583019620058
 orbitals (Q,E):
 ---------------
 S :1...3            ( 2.00   -18.0523)  ( 2.00    -0.5465)  ( 0.00     1.0349)
 P :1...2            ( 4.00    -0.0477)  ( 0.00     0.5307)
 D :1...1            ( 0.00     1.2443)
 F :1...1            ( 0.00     3.5731)

 CYCLE    5
  SDIIS (wt  0.000): -0.0195 -0.0760  0.5845  0.5110
 A-DIIS (wt  1.000):  0.0000  0.0000  0.6414  0.3586
  DIIS coefficients:  0.0000  0.0000  0.6414  0.3586
 SCF Error: norm([F,P])=      1.519585468023, max([F,P])=      0.840542006159
 orbitals (Q,E):
 ---------------
 S :1...3            ( 2.00   -18.8182)  ( 2.00    -0.8502)  ( 0.00     0.8091)
 P :1...2            ( 4.00    -0.3077)  ( 0.00     0.3582)
 D :1...1            ( 0.00     1.0753)
 F :1...1            ( 0.00     3.3669)

 CYCLE    6
  SDIIS (wt  0.000):  0.0038 -0.0006  0.0668 -0.0496  0.9795
 A-DIIS (wt  1.000):  0.0000  0.0000  0.0000  0.0000  1.0000
  DIIS coefficients:  0.0000  0.0000  0.0000  0.0000  1.0000
 SCF Error: norm([F,P])=      0.178828926625, max([F,P])=      0.104242033505
 orbitals (Q,E):
 ---------------
 S :1...3            ( 2.00   -19.0541)  ( 2.00    -0.9245)  ( 0.00     0.7610)
 P :1...2            ( 4.00    -0.3806)  ( 0.00     0.3267)
 D :1...1            ( 0.00     1.0451)
 F :1...1            ( 0.00     3.3284)

 CYCLE    7
  SDIIS (wt  0.000): -0.0003  0.0004 -0.0182  0.0130  0.4190  0.5861
 A-DIIS (wt  1.000):  0.0000  0.0000  0.0000  0.0000  0.5807  0.4193
  DIIS coefficients:  0.0000  0.0000  0.0000  0.0000  0.5807  0.4193
 SCF Error: norm([F,P])=      0.200125290981, max([F,P])=      0.113649127569
 orbitals (Q,E):
 ---------------
 S :1...3            ( 2.00   -18.9379)  ( 2.00    -0.8781)  ( 0.00     0.7909)
 P :1...2            ( 4.00    -0.3354)  ( 0.00     0.3452)
 D :1...1            ( 0.00     1.0687)
 F :1...1            ( 0.00     3.3572)

 CYCLE    8
  SDIIS (wt  0.910): -0.0000  0.0002  0.0044 -0.0011 -0.0192 -0.1454  1.1612
 A-DIIS (wt  0.090):  0.0000  0.0000  0.0000  0.0000  0.0000  0.0000  1.0000
  DIIS coefficients: -0.0000  0.0002  0.0040 -0.0010 -0.0175 -0.1323  1.1466
 SCF Error: norm([F,P])=      0.016951777154, max([F,P])=      0.009947196225
 orbitals (Q,E):
 ---------------
 S :1...3            ( 2.00   -18.9255)  ( 2.00    -0.8739)  ( 0.00     0.7936)
 P :1...2            ( 4.00    -0.3314)  ( 0.00     0.3469)
 D :1...1            ( 0.00     1.0707)
 F :1...1            ( 0.00     3.3597)

 CYCLE    9
  SDIIS (wt  1.000): -0.0000  0.0000  0.0000 -0.0001  0.0003  0.0067  0.0145  0.9786
  DIIS coefficients: -0.0000  0.0000  0.0000 -0.0001  0.0003  0.0067  0.0145  0.9786
 SCF Error: norm([F,P])=      0.001748429775, max([F,P])=      0.000984374869
 orbitals (Q,E):
 ---------------
 S :1...3            ( 2.00   -18.9266)  ( 2.00    -0.8743)  ( 0.00     0.7933)
 P :1...2            ( 4.00    -0.3318)  ( 0.00     0.3467)
 D :1...1            ( 0.00     1.0705)
 F :1...1            ( 0.00     3.3595)

 CYCLE   10
  SDIIS (wt  1.000): -0.0000 -0.0000 -0.0000 -0.0000  0.0000  0.0001 -0.0011 -0.0034  1.0043
  DIIS coefficients: -0.0000 -0.0000 -0.0000 -0.0000  0.0000  0.0001 -0.0011 -0.0034  1.0043
 SCF Error: norm([F,P])=      0.000001425696, max([F,P])=      0.000000713883
 orbitals (Q,E):
 ---------------
 S :1...3            ( 2.00   -18.9266)  ( 2.00    -0.8743)  ( 0.00     0.7933)
 P :1...2            ( 4.00    -0.3318)  ( 0.00     0.3467)
 D :1...1            ( 0.00     1.0705)
 F :1...1            ( 0.00     3.3595)

 CYCLE   11
  SDIIS (wt  1.000):  0.0000 -0.0000 -0.0000 -0.0001 -0.0046  1.0047
  DIIS coefficients:  0.0000 -0.0000 -0.0000 -0.0001 -0.0046  1.0047
 SCF Error: norm([F,P])=      0.000000048706, max([F,P])=      0.000000022971
 orbitals (Q,E):
 ---------------
 S :1...3            ( 2.00   -18.9266)  ( 2.00    -0.8743)  ( 0.00     0.7933)
 P :1...2            ( 4.00    -0.3318)  ( 0.00     0.3467)
 D :1...1            ( 0.00     1.0705)
 F :1...1            ( 0.00     3.3595)

 CYCLE   12
  SDIIS (wt  1.000):  0.0000  0.0003  0.0049  0.9947
  DIIS coefficients:  0.0000  0.0003  0.0049  0.9947
 SCF Error: norm([F,P])=      0.000000002392, max([F,P])=      0.000000001168
 orbitals (Q,E):
 ---------------
 S :1...3            ( 2.00   -18.9266)  ( 2.00    -0.8743)  ( 0.00     0.7933)
 P :1...2            ( 4.00    -0.3318)  ( 0.00     0.3467)
 D :1...1            ( 0.00     1.0705)
 F :1...1            ( 0.00     3.3595)

 SCF CONVERGED

 CYCLE   13
1
 ***************************************************************************************************



                                                *******************
                                                *  R E S U L T S  *
                                                *******************
  
 *** Setting up for NEW gradients in Focky
 *** Using FIT density in Focky

 Orbital Energies, per Irrep and Spin:
 ======================================
                        Occup              E (au)              E (eV)       Diff (eV) with prev. cycle
                        -----      --------------------        ------       --------------------------
 S
               1        2.000     -0.18926622910087E+02      -515.020               5.76E-10
               2        2.000     -0.87432318445324E+00       -23.792               3.90E-10
               3        0.000      0.79334608634537E+00        21.588
               4        0.000      0.13459763470969E+02       366.259
               5        0.000      0.12310776301329E+03      3349.933
 P
               1        4.000     -0.33177161342558E+00        -9.028               3.71E-10
               2        0.000      0.34673871865826E+00         9.435
               3        0.000      0.38246989192600E+01       104.075
 D
               1        0.000      0.10704889823391E+01        29.129
 F
               1        0.000      0.33594552407685E+01        91.415


 Partially Occupied:
               1 P                -0.33177161342558E+00
  
 HOMO :        2 S                -0.87432318445324E+00
 LUMO :        2 P                 0.34673871865826E+00
  


 Orbital Energies, all Irreps
 ========================================

 Irrep        no.  (spin)   Occup              E (au)                E (eV)
 ---------------------------------------------------------------------------
 S             1             2.00       -0.18926622910087E+02      -515.0196
 S             2             2.00       -0.87432318445324E+00       -23.7915
 P             1             4.00       -0.33177161342558E+00        -9.0280
 P             2             0.00        0.34673871865826E+00         9.4352
 S             3             0.00        0.79334608634537E+00        21.5880
 D             1             0.00        0.10704889823391E+01        29.1295
 F             1             0.00        0.33594552407685E+01        91.4154
 P             3             0.00        0.38246989192600E+01       104.0754
 S             4             0.00        0.13459763470969E+02       366.2588
 S             5             0.00        0.12310776301329E+03      3349.9327


 All Electron Calculation, thus no Orbital Energies of the Core Orbitals are calculated



 =======================================
 M U L L I K E N   P O P U L A T I O N S
 =======================================
  
 The survey below gives for each atom:
 a) the total charge (Z minus electrons)
 b) the net spin polarization (nr of electrons spin-A minus spin-B)
 c) for each spin the atomic electron valence density (integrated) per L-value.

 Atom              Charge    Spin density          S         P         D         F
 ----              ------    ------------       ------    ------    ------    ------
 1 O              -0.0000                       4.0000    4.0000    0.0000    0.0000

 Populations of individual BAS functions
 ----------------------------------------
 1 O            0.6447  1.3214  0.0008  1.1425  0.8905  0.2537  0.2537  0.2537  0.7364  0.7364
                0.7364  0.3432  0.3432  0.3432  0.0000  0.0000  0.0000  0.0000  0.0000  0.0000
                0.0000  0.0000  0.0000  0.0000  0.0000  0.0000  0.0000  0.0000  0.0000  0.0000

 Gross Charges per Atom (Z minus electrons)
 ==========================================
            -0.0000
 Net Total: -0.00000000



 =======================================================================
 Electrostatic potential at the Nuclei due to electrons and other nuclei
 =======================================================================
  
         Atom                  Potential
         ----                  ---------
     1)   O                  22.23872615
 
 
 ========================
 No memory problems found
 ========================
 
 Maximum number of active allocate calls:         447
 
 *******************************************************************************

                             A D F   E X I T
 NORMAL TERMINATION



 =================
 Timing Statistics
 =================
  
 Total Used :                     CPU=        0.79      System=        0.04     Elapsed=        0.83

 Calls  Section                     ( Mean, Percentage )
 ---------------------------------------------------------------------------------------------------
     3  ><      ................      0.00    0.00             0.00    2.63             0.00    0.10
     1  INIT    ................      0.01    1.52             0.02   55.26             0.04    4.25
     1  GEOMET  ................      0.01    1.27             0.00    7.90             0.01    1.59
     1  INPUTA  ................      0.00    0.38             0.00    0.00             0.00    0.37
     1  MAINSY  ................      0.01    0.89             0.00    2.63             0.01    0.96
     1  SYMFIT  ................      0.00    0.13             0.00    0.00             0.00    0.15
     1  CORORT  ................      0.00    0.00             0.00    0.00             0.00    0.05
     1  SYMORB  ................      0.00    0.25             0.00    0.00             0.00    0.19
     1  CLSMAT  ................      0.01    1.14             0.00    0.00             0.01    1.10
     1  ORTHON  ................      0.00    0.25             0.00    2.63             0.00    0.35
     1  GENPT   ................      0.02    2.66             0.00    0.00             0.02    2.54
     1  PTBAS   ................      0.00    0.63             0.00    2.63             0.01    0.75
    13  FOCKY   ................      0.05   75.41             0.00    7.89             0.05   72.04
    13  FOCKTR  ................      0.00    2.41             0.00    0.00             0.00    2.20
    13  SDIIS   ................      0.00    4.06             0.00    5.26             0.00    4.27
     1  COREPS  ................      0.04    4.56             0.00    2.63             0.04    4.38
     1  POPAN   ................      0.01    1.01             0.00    2.63             0.01    1.10
     1  DEBYE   ................      0.00    0.13             0.00    0.00             0.00    0.11
     1  EXIT PROCEDURE .........      0.03    3.30             0.00    7.90             0.03    3.49


 Currently Open Files (EXIT00)
 ====================

 Unit    Access Format  Status   Type       Ident (file)
 -------------------------------------------------------
   3      SEQ    FORM   TRANSP  NORMAL      LOGFILE
                                          ( logfile )


 Buffered I/O statistics
 =======================
 Memory available:                     67108864
 Number of records fitting in memory:     16131
 Input :   0.1% of                        27833  *4k bytes
 Output:  13.5% of                         1390  *4k bytes
 Records from serial files evicted:           0
                    others evicted:           0
 Hash table lookups:      71898 with          0 conflicts (  0.00%)

 ***************************************************************************************************
 (LOGFILE)
 <May18-2019> <15:59:04>  ADF 2017  RunTime: May18-2019 15:59:04  Nodes: 1  Procs: 1
 <May18-2019> <15:59:04>  Aluminium (TZ2P)
 <May18-2019> <15:59:04>  RunType   : CREATE
 <May18-2019> <15:59:04>  Net Charge: 0 (Nuclei minus Electrons)
 <May18-2019> <15:59:04>  Symmetry  : ATOM
  Coordinates
    Atom         X           Y           Z   (Angstrom)
    1.Al        0.000000    0.000000    0.000000
 <May18-2019> <15:59:04>  >>>> CORORT
 <May18-2019> <15:59:04>  >>>> CLSMAT
 <May18-2019> <15:59:04>  >>>> ORTHON
 <May18-2019> <15:59:04>  >>>> GENPT
 <May18-2019> <15:59:04>  Block Length=  85
 <May18-2019> <15:59:04>  >>>> PTBAS
 <May18-2019> <15:59:04>  >>>> CYCLE
 <May18-2019> <15:59:04>              |Error|         MaxErr       Wt(A-DIIS)
 <May18-2019> <15:59:04>      1      0.00000000      0.00000000
 <May18-2019> <15:59:04>      2     19.70318713      6.54278611    100.0
 <May18-2019> <15:59:04>      3     10.43785801      6.31470634    100.0
 <May18-2019> <15:59:04>      4      2.40066795      1.07561495    100.0
 <May18-2019> <15:59:04>      5      0.91396511      0.36644375    100.0
 <May18-2019> <15:59:04>      6      0.43669019      0.17306322    100.0
 <May18-2019> <15:59:04>      7      0.22550980      0.08846827     88.4
 <May18-2019> <15:59:04>      8      0.10947051      0.04294602     42.4
 <May18-2019> <15:59:05>      9      0.02740991      0.01067534      9.8
 <May18-2019> <15:59:05>     10      0.00167945      0.00064873      0.0
 <May18-2019> <15:59:05>     11      0.00000203      0.00000086      0.0
 <May18-2019> <15:59:05>     12      0.00000001      0.00000001      0.0
 <May18-2019> <15:59:05>  SCF converged
 <May18-2019> <15:59:05>     13      0.00000000      0.00000000      0.0
 <May18-2019> <15:59:05>  >>>> POPAN
 <May18-2019> <15:59:05>  >>>> DEBYE
 <May18-2019> <15:59:05>  NORMAL TERMINATION
 <May18-2019> <15:59:05>  END
 <May18-2019> <15:59:05>  ADF 2017  RunTime: May18-2019 15:59:05  Nodes: 1  Procs: 1
 <May18-2019> <15:59:05>  Oxygen (TZ2P)
 <May18-2019> <15:59:05>  RunType   : CREATE
 <May18-2019> <15:59:05>  Net Charge: 0 (Nuclei minus Electrons)
 <May18-2019> <15:59:05>  Symmetry  : ATOM
  Coordinates
    Atom         X           Y           Z   (Angstrom)
    1.O         0.000000    0.000000    0.000000
 <May18-2019> <15:59:05>  >>>> CORORT
 <May18-2019> <15:59:05>  >>>> CLSMAT
 <May18-2019> <15:59:05>  >>>> ORTHON
 <May18-2019> <15:59:05>  >>>> GENPT
 <May18-2019> <15:59:05>  Block Length=  68
 <May18-2019> <15:59:05>  >>>> PTBAS
 <May18-2019> <15:59:05>  >>>> CYCLE
 <May18-2019> <15:59:05>              |Error|         MaxErr       Wt(A-DIIS)
 <May18-2019> <15:59:05>      1      0.00000000      0.00000000
 <May18-2019> <15:59:05>      2      8.76574541      5.51803131    100.0
 <May18-2019> <15:59:05>      3      3.58549945      2.49941011    100.0
 <May18-2019> <15:59:05>      4      1.14791911      0.58301962    100.0
 <May18-2019> <15:59:05>      5      1.51958547      0.84054201    100.0
 <May18-2019> <15:59:05>      6      0.17882893      0.10424203    100.0
 <May18-2019> <15:59:06>      7      0.20012529      0.11364913    100.0
 <May18-2019> <15:59:06>      8      0.01695178      0.00994720      9.0
 <May18-2019> <15:59:06>      9      0.00174843      0.00098437      0.0
 <May18-2019> <15:59:06>     10      0.00000143      0.00000071      0.0
 <May18-2019> <15:59:06>     11      0.00000005      0.00000002      0.0
 <May18-2019> <15:59:06>     12      0.00000000      0.00000000      0.0
 <May18-2019> <15:59:06>  SCF converged
 <May18-2019> <15:59:06>     13      0.00000000      0.00000000      0.0
 <May18-2019> <15:59:06>  >>>> POPAN
 <May18-2019> <15:59:06>  >>>> DEBYE
 <May18-2019> <15:59:06>  NORMAL TERMINATION
 <May18-2019> <15:59:06>  END

Create C   file=TZ2P-C
XC
  GGA blyp
End
End Input

 *******************************************************************************
 *                                                                             *
 *  -------------------------------------                                      *
 *   Amsterdam Density Functional  (ADF)         2017                          *
 *  -------------------------------------                                      *
 *                                               r58813 2017-04-12             *
 *                                                                             *
 *                                                                             *
 *                              =================                              *
 *                              |               |                              *
 *                              |     A D F     |                              *
 *                              |               |                              *
 *                              =================                              *
 *                                                                             *
 *                                                                             *
 *   Online information and documentation:  https://www.scm.com/support/       *
 *   E-mail:  support@scm.com   info@scm.com                                   *
 *                                                                             *
 *   Scientific publications using ADF results must be properly referenced     *
 *   See the User Manuals (or the web site) for recommended citations          *
 *   The terms and conditions of the End User License Agreement apply to       *
 *   the use of ADF, https://www.scm.com/license-terms/                        *
 *                                                                             *
 **********************  x86_64_linux_intel / intelmpi  ************************
 
 Licensed to: VU/FEW (+ SARA) / ALGEMEEN / Amsterdam / THE NETHERLANDS
 SCM User ID: u7668
  
 ADF 2017  RunTime: May18-2019 15:59:06  Nodes: 1  Procs: 1

 Temporary files are created in /local/datastore0/tcst25/190688/kid_0.vCFpia

 Carbon (TZ2P)



 ===========================
 A T T A C H E D   F I L E S
 ===========================
  
 CREATE - Data File:    TZ2P-C
                        Carbon (TZ2P)



 ===============================
 M O D E L   P A R A M E T E R S
 ===============================
  
 DENSITY FUNCTIONAL POTENTIAL (scf)
    LDA:                               Exchange only                           == Not Default ==
    Gradient Corrections:              Becke88 LYP                             == Not Default ==

 SPIN  (restricted / unrestr.)
    Molecule:                          Restricted                               

 OTHER ASPECTS
    Relativistic Corrections:          ---                                      

    Nuclear Charge Density Model:      Point Charge Nuclei                      
    Core Treatment:                    Frozen Orbital(s)                        

    Hyperfine or Zeeman Interaction:   ---                                      



 =====================================
 S Y M M E T R Y ,   E L E C T R O N S
 =====================================
  
 Symmetry: ATOM

 Irreducible Representations, including subspecies
 -------------------------------------------------
 S
 P:x  P:y  P:z
 D:z2  D:x2-y2  D:xy  D:xz  D:yz
 F:z3  F:z  F:xyz  F:z2x  F:z2y  F:x  F:y


 Configuration of Valence Electrons
 ==================================

          Occupation Numbers
          -------------------------------------------------
 S        2*2
 P        2
 D        0
 F        0
          -------------------------------------------------

 Total:   6

 Net Charge: 0 (Nuclei minus Electrons)

 Preset values for MO occupations will be applied through SCF cycle no. 1000000
 Thereafter, the program will assign electrons to MOs that are spatially
 similar to the occupied MOs in a "reference" cycle ("KeepOrbitals").
 The reference cycle is always the PREVIOUS cycle: it will evolve with
 the SCF procedure.



 ================================
 (Slater-type)  F U N C T I O N S  ***  (Basis and Fit)  ***
 ================================
  

 Atom Type    1  (C)
 ==============

 Valence Basis Sets:  10
 -----------------------
   1 S    7.680000
   1 S    5.000000
   2 S    1.280000
   2 S    2.100000
   2 S    4.600000
   2 P    0.820000
   2 P    1.480000
   2 P    2.940000
   3 D    2.200000
   4 F    3.300000


 BAS: List of all Elementary Cartesian Basis Functions
 =====================================================

 The numbering in the list below (to the right of the function characteristics) is referred
 to in print-outs of MO eigenvectors and Mulliken populations in the BAS representation
 (as contrasted to the SFO representation).

 Notes:
 1. The functions are characterized by a polynomial prefactor (powers of x,y,z and r) and
    an exponential decay factor alpha.
 2. Since the basis sets are specific for an atom TYPE, the individual functions occur on
    all atoms of that type.
 3. The word 'Core' in the left margin signals that it is a Core Function (CF) : not a
    degree of freedom in the valence set, but only used to ensure orthogonalization of
    the other valence basis functions on the frozen Core Orbitals.


 (power of) X  Y  Z  R     Alpha  on Atom
            ==========     =====     ==========

 C                                    1
                                  ---------------------------------------------------------------------------
            0  0  0  0     7.680      1
            0  0  0  0     5.000      2
            0  0  0  1     1.280      3
            0  0  0  1     2.100      4
            0  0  0  1     4.600      5
            1  0  0  0     0.820      6
            0  1  0  0     0.820      7
            0  0  1  0     0.820      8
            1  0  0  0     1.480      9
            0  1  0  0     1.480     10
            0  0  1  0     1.480     11
            1  0  0  0     2.940     12
            0  1  0  0     2.940     13
            0  0  1  0     2.940     14
            2  0  0  0     2.200     15
            1  1  0  0     2.200     16
            1  0  1  0     2.200     17
            0  2  0  0     2.200     18
            0  1  1  0     2.200     19
            0  0  2  0     2.200     20
            3  0  0  0     3.300     21
            2  1  0  0     3.300     22
            2  0  1  0     3.300     23
            1  2  0  0     3.300     24
            1  1  1  0     3.300     25
            1  0  2  0     3.300     26
            0  3  0  0     3.300     27
            0  2  1  0     3.300     28
            0  1  2  0     3.300     29
            0  0  3  0     3.300     30

 Total number of charge fitting functions (nprimf)        84
 Total number of Cartesian basis functions (naos)         30
 Total number of Cartesian core functions  (ncos)          0



 BAS: List of all Elementary Cartesian Basis Functions
 =====================================================

 The numbering in the list below (to the right of the function characteristics) is referred
 to in print-outs of MO eigenvectors and Mulliken populations in the BAS representation
 (as contrasted to the SFO representation).

 Notes:
 1. The functions are characterized by a polynomial prefactor (powers of x,y,z and r) and
    an exponential decay factor alpha.
 2. Since the basis sets are specific for an atom TYPE, the individual functions occur on
    all atoms of that type.
 3. The word 'Core' in the left margin signals that it is a Core Function (CF) : not a
    degree of freedom in the valence set, but only used to ensure orthogonalization of
    the other valence basis functions on the frozen Core Orbitals.


 (power of) X  Y  Z  R     Alpha  on Atom
            ==========     =====     ==========

 C                                    1
                                  ---------------------------------------------------------------------------
            0  0  0  0     7.680      1
            0  0  0  0     5.000      2
            0  0  0  1     1.280      3
            0  0  0  1     2.100      4
            0  0  0  1     4.600      5
            1  0  0  0     0.820      6
            0  1  0  0     0.820      7
            0  0  1  0     0.820      8
            1  0  0  0     1.480      9
            0  1  0  0     1.480     10
            0  0  1  0     1.480     11
            1  0  0  0     2.940     12
            0  1  0  0     2.940     13
            0  0  1  0     2.940     14
            2  0  0  0     2.200     15
            1  1  0  0     2.200     16
            1  0  1  0     2.200     17
            0  2  0  0     2.200     18
            0  1  1  0     2.200     19
            0  0  2  0     2.200     20
            3  0  0  0     3.300     21
            2  1  0  0     3.300     22
            2  0  1  0     3.300     23
            1  2  0  0     3.300     24
            1  1  1  0     3.300     25
            1  0  2  0     3.300     26
            0  3  0  0     3.300     27
            0  2  1  0     3.300     28
            0  1  2  0     3.300     29
            0  0  3  0     3.300     30
1
 ***************************************************************************************************



                                              ***********************
                                              *  T E C H N I C A L  *
                                              ***********************
  



 =============================================================
 P A R A L L E L I Z A T I O N  and  V E C T O R I Z A T I O N
 =============================================================
  
 Nr of parallel processes:                                1
 Maximum vector length in NumInt loops:                 128

 IO buffersize (Mb):                                     64.000000



 =====================
 S C F   U P D A T E S
 =====================
  
 Max. nr. of cycles:                               300
 Convergence criterion:                              0.0000000100
   secondary criterion:                              0.0000000100

 Mix parameter (when DIIS does not apply):           0.2000000000
 Special mix parameter for the first cycle:          1.0000000000
 Mixed ADIIS+DIIS will be used
    Max number of expansion vectors:                10
    Pure ADIIS when Max([F,P]) is above              0.1000000000
    Pure DIIS when Max([F,P]) is below               0.0010000000
 Automatic ElectronSmearing (in case of problematic SCF convergence) disabled



 =================
 P R E C I S I O N  ***  (General: NumInt, NeglectFunctionTails, ...)  ***
 =================
  

 NumInt:           Target precision:                12.0000000000
 -------           Initial precision:               10.0000000000
                   Min. precision (optimization):   10.0000000000

 Neglect Functions:          Basis functions:        0.1000000000E-13
 ------------------          Fit functions:          0.1000000000E-13



 ===========================
 L I N E A R   S C A L I N G
 ===========================
  

 Cut-off radii density fit:                        0.1000000000E-97
 Overlap cut-off criterion AO matrix elements:     0.1000000000E-97
 Cut-offs for Coulomb potential and fitted density:0.1000000000E-97
 Cut-off criterion for Coulomb multipole terms:    0.1000000000E-97
 Progressive Convergence parameter:                 0.000000000    
1
 ***************************************************************************************************



                                            ***************************
                                            *  C O M P U T A T I O N  *
                                            ***************************
  

 Number of elements of the density matrix on this node (used, total):       465       465



 ===========================================
 Numerical Integration : Fuzzy Cells (Becke)
 ===========================================
  
 Becke grid quality: VERYGOOD       
  
 Lebedev angular grid order:             min:  13 max:  41
 Nr. of radial points:                   min:  72 max:  72

 Total nr. of points:         72
 Nr. of blocks:                1
 Block length:                72
 Nr. of dummy points:          0


 Test of Precision of the Numerical Integration Grid
 ===================================================

 Integral of the Total Core Density:                   0.00000000000000



 ========================
 Density Fitting (zlmFit)
 ========================
  
 ZlmFit Fit Quality: VERYGOOD       
  
 Max L-expansion:                        min:   0 max:   0
 Nr. of radial interpolation points:     min: 160 max: 160



 =====
 S C F  ***  ScaSCF  ***
 =====
  

 CYCLE    1
 SCF Error: norm([F,P])=      0.000000000000, max([F,P])=      0.000000000000
 orbitals (Q,E):
 ---------------
 S :1...5            ( 2.00   -17.9995)  ( 2.00    -4.4761)  ( 0.00    -1.9482)  ( 0.00     0.6812)
                     ( 0.00    42.8100)
 P :1...3            ( 2.00    -4.4994)  ( 0.00    -1.9807)  ( 0.00    -1.0849)
 D :1...1            ( 0.00    -1.9800)
 F :1...1            ( 0.00     0.4950)

 CYCLE    2
  SDIIS (wt  0.000):  1.0000 -0.0000
 A-DIIS (wt  1.000):  0.0000  1.0000
  DIIS coefficients:  0.0000  1.0000
 SCF Error: norm([F,P])=      4.480319744476, max([F,P])=      3.328841325837
 orbitals (Q,E):
 ---------------
 S :1...3            ( 2.00    -7.7917)  ( 2.00    -0.0500)  ( 0.00     0.8490)
 P :1...2            ( 2.00     0.1033)  ( 0.00     0.5895)
 D :1...1            ( 0.00     1.7552)
 F :1...1            ( 0.00     4.6366)

 CYCLE    3
  SDIIS (wt  0.000):  0.2185  0.7815
 A-DIIS (wt  1.000):  0.1233  0.8767
  DIIS coefficients:  0.1233  0.8767
 SCF Error: norm([F,P])=      1.636788894664, max([F,P])=      1.315295345514
 orbitals (Q,E):
 ---------------
 S :1...3            ( 2.00   -10.9862)  ( 2.00    -0.9428)  ( 0.00     0.1231)
 P :1...2            ( 2.00    -0.6386)  ( 0.00     0.0246)
 D :1...1            ( 0.00     0.8395)
 F :1...1            ( 0.00     3.5625)

 CYCLE    4
  SDIIS (wt  0.000): -0.0629  0.2184  0.8445
 A-DIIS (wt  1.000):  0.0000  0.0872  0.9128
  DIIS coefficients:  0.0000  0.0872  0.9128
 SCF Error: norm([F,P])=      0.722267649759, max([F,P])=      0.580815510644
 orbitals (Q,E):
 ---------------
 S :1...3            ( 2.00    -9.6419)  ( 2.00    -0.3647)  ( 0.00     0.4682)
 P :1...2            ( 2.00    -0.0765)  ( 0.00     0.2450)
 D :1...1            ( 0.00     1.3742)
 F :1...1            ( 0.00     4.1720)

 CYCLE    5
  SDIIS (wt  0.000): -0.0214 -0.0561  0.3847  0.6927
 A-DIIS (wt  1.000):  0.0000  0.0000  0.2646  0.7354
  DIIS coefficients:  0.0000  0.0000  0.2646  0.7354
 SCF Error: norm([F,P])=      0.412794757847, max([F,P])=      0.328642040749
 orbitals (Q,E):
 ---------------
 S :1...3            ( 2.00   -10.1968)  ( 2.00    -0.5643)  ( 0.00     0.3336)
 P :1...2            ( 2.00    -0.2533)  ( 0.00     0.1428)
 D :1...1            ( 0.00     1.1818)
 F :1...1            ( 0.00     3.9467)

 CYCLE    6
  SDIIS (wt  0.032):  0.0025 -0.0116 -0.0698  0.2077  0.8712
 A-DIIS (wt  0.968):  0.0000  0.0000  0.0000  0.0000  1.0000
  DIIS coefficients:  0.0001 -0.0004 -0.0022  0.0066  0.9959
 SCF Error: norm([F,P])=      0.126643163176, max([F,P])=      0.096847488733
 orbitals (Q,E):
 ---------------
 S :1...3            ( 2.00    -9.9458)  ( 2.00    -0.4545)  ( 0.00     0.4037)
 P :1...2            ( 2.00    -0.1511)  ( 0.00     0.1903)
 D :1...1            ( 0.00     1.2866)
 F :1...1            ( 0.00     4.0669)

 CYCLE    7
  SDIIS (wt  0.100): -0.0001  0.0030  0.0073 -0.1526  0.2846  0.8578
 A-DIIS (wt  0.900):  0.0000  0.0000  0.0000  0.0000  0.4446  0.5554
  DIIS coefficients: -0.0000  0.0003  0.0007 -0.0152  0.4286  0.5856
 SCF Error: norm([F,P])=      0.115568228223, max([F,P])=      0.090123764632
 orbitals (Q,E):
 ---------------
 S :1...3            ( 2.00   -10.0697)  ( 2.00    -0.5032)  ( 0.00     0.3719)
 P :1...2            ( 2.00    -0.1955)  ( 0.00     0.1673)
 D :1...1            ( 0.00     1.2400)
 F :1...1            ( 0.00     4.0128)

 CYCLE    8
  SDIIS (wt  0.958): -0.0001  0.0006  0.0026 -0.0162 -0.0129  0.1023  0.9238
 A-DIIS (wt  0.042):  0.0000  0.0000  0.0000  0.0000  0.0000  0.0000  1.0000
  DIIS coefficients: -0.0001  0.0005  0.0025 -0.0155 -0.0124  0.0980  0.9270
 SCF Error: norm([F,P])=      0.006629277794, max([F,P])=      0.005140885246
 orbitals (Q,E):
 ---------------
 S :1...3            ( 2.00   -10.0626)  ( 2.00    -0.5000)  ( 0.00     0.3739)
 P :1...2            ( 2.00    -0.1926)  ( 0.00     0.1686)
 D :1...1            ( 0.00     1.2431)
 F :1...1            ( 0.00     4.0163)

 CYCLE    9
  SDIIS (wt  1.000): -0.0000 -0.0000 -0.0000 -0.0000  0.0023 -0.0004 -0.0164  1.0145
  DIIS coefficients: -0.0000 -0.0000 -0.0000 -0.0000  0.0023 -0.0004 -0.0164  1.0145
 SCF Error: norm([F,P])=      0.000215737590, max([F,P])=      0.000163422091
 orbitals (Q,E):
 ---------------
 S :1...3            ( 2.00   -10.0628)  ( 2.00    -0.5001)  ( 0.00     0.3739)
 P :1...2            ( 2.00    -0.1927)  ( 0.00     0.1686)
 D :1...1            ( 0.00     1.2430)
 F :1...1            ( 0.00     4.0162)

 CYCLE   10
  SDIIS (wt  1.000):  0.0000 -0.0000 -0.0000  0.0001  0.0000 -0.0011  0.0167  0.9843
  DIIS coefficients:  0.0000 -0.0000 -0.0000  0.0001  0.0000 -0.0011  0.0167  0.9843
 SCF Error: norm([F,P])=      0.000001946474, max([F,P])=      0.000001322854
 orbitals (Q,E):
 ---------------
 S :1...3            ( 2.00   -10.0628)  ( 2.00    -0.5001)  ( 0.00     0.3739)
 P :1...2            ( 2.00    -0.1927)  ( 0.00     0.1686)
 D :1...1            ( 0.00     1.2430)
 F :1...1            ( 0.00     4.0162)

 CYCLE   11
  SDIIS (wt  1.000):  0.0000 -0.0000 -0.0002 -0.0078  1.0079
  DIIS coefficients:  0.0000 -0.0000 -0.0002 -0.0078  1.0079
 SCF Error: norm([F,P])=      0.000000018017, max([F,P])=      0.000000015021
 orbitals (Q,E):
 ---------------
 S :1...3            ( 2.00   -10.0628)  ( 2.00    -0.5001)  ( 0.00     0.3739)
 P :1...2            ( 2.00    -0.1927)  ( 0.00     0.1686)
 D :1...1            ( 0.00     1.2430)
 F :1...1            ( 0.00     4.0162)

 CYCLE   12
  SDIIS (wt  1.000):  0.0000 -0.0001  0.0057  0.9944
  DIIS coefficients:  0.0000 -0.0001  0.0057  0.9944
 SCF Error: norm([F,P])=      0.000000000214, max([F,P])=      0.000000000163
 orbitals (Q,E):
 ---------------
 S :1...3            ( 2.00   -10.0628)  ( 2.00    -0.5001)  ( 0.00     0.3739)
 P :1...2            ( 2.00    -0.1927)  ( 0.00     0.1686)
 D :1...1            ( 0.00     1.2430)
 F :1...1            ( 0.00     4.0162)

 SCF CONVERGED

 CYCLE   13
1
 ***************************************************************************************************



                                                *******************
                                                *  R E S U L T S  *
                                                *******************
  
 *** Setting up for NEW gradients in Focky
 *** Using FIT density in Focky

 Orbital Energies, per Irrep and Spin:
[...]
   12.C        -1.973813    0.000000    0.000000
   13.O        -3.101305    0.000000    0.000000
 <May18-2019> <15:59:33>  >>>> CORORT
 <May18-2019> <15:59:33>  >>>> CLSMAT
 <May18-2019> <15:59:33>  >>>> ORTHON
 <May18-2019> <15:59:33>  >>>> GENPT
 <May18-2019> <15:59:33>  Block Length= 126
 <May18-2019> <15:59:33>  >>>> PTBAS
 <May18-2019> <15:59:34>  >>>> CYCLE
 <May18-2019> <15:59:36>              |Error|         MaxErr       Wt(A-DIIS)
 <May18-2019> <15:59:36>      1      0.39965719      0.07563943
 <May18-2019> <15:59:37>      2      0.10863972      0.01625386    100.0
 <May18-2019> <15:59:38>      3      0.03380942      0.00473431    100.0
 <May18-2019> <15:59:40>      4      0.03250344      0.00360286      2.6
 <May18-2019> <15:59:41>      5      0.00206458      0.00037126      0.0
 <May18-2019> <15:59:42>      6      0.00078858      0.00021341      0.0
 <May18-2019> <15:59:44>      7      0.00008559      0.00002410      0.0
 <May18-2019> <15:59:45>      8      0.00001350      0.00000224      0.0
 <May18-2019> <15:59:46>      9      0.00000415      0.00000067      0.0
 <May18-2019> <15:59:46>  SCF converged
 <May18-2019> <15:59:47>     10      0.00000020      0.00000003      0.0
 <May18-2019> <15:59:48>  >>>> TOTEN
 <May18-2019> <15:59:50>  >>>> POPAN
 <May18-2019> <15:59:50>  >>>> DEBYE
 <May18-2019> <15:59:50>  >>>> ENGRAD
 <May18-2019> <15:59:55>  current energy                               -1.98771338 Hartree
 <May18-2019> <15:59:55>  energy change                      -0.03492579     0.00010000    F
 <May18-2019> <15:59:55>  constrained gradient max            0.12097460     0.00010000    F
 <May18-2019> <15:59:55>  constrained gradient rms            0.04821839     0.00006667    F
 <May18-2019> <15:59:55>  gradient max                        0.12097460
 <May18-2019> <15:59:55>  gradient rms                        0.04821839
 <May18-2019> <15:59:55>  cart. step max                      0.07742863     0.01000000    F
 <May18-2019> <15:59:55>  cart. step rms                      0.03721925     0.00666667    F
  Coordinates in Geometry Cycle 3
    Atom         X           Y           Z   (Angstrom)
    1.Al        0.000000    0.000000    0.000000
    2.C         0.000000    2.051241    0.000000
    3.O         0.000000    3.156160    0.000000
    4.C         0.000000    0.000000    2.051241
    5.O         0.000000    0.000000    3.156160
    6.C         0.000000   -2.051241    0.000000
    7.O         0.000000   -3.156160    0.000000
    8.C         0.000000    0.000000   -2.051241
    9.O         0.000000    0.000000   -3.156160
   10.C         2.051241    0.000000    0.000000
   11.O         3.156160    0.000000    0.000000
   12.C        -2.051241    0.000000    0.000000
   13.O        -3.156160    0.000000    0.000000
 <May18-2019> <15:59:55>  >>>> CORORT
 <May18-2019> <15:59:55>  >>>> CLSMAT
 <May18-2019> <15:59:55>  >>>> ORTHON
 <May18-2019> <15:59:55>  >>>> GENPT
 <May18-2019> <15:59:56>  Block Length= 126
 <May18-2019> <15:59:56>  >>>> PTBAS
 <May18-2019> <15:59:57>  >>>> CYCLE
 <May18-2019> <15:59:58>              |Error|         MaxErr       Wt(A-DIIS)
 <May18-2019> <15:59:58>      1      0.43468642      0.11009952
 <May18-2019> <16:00:00>      2      0.07188575      0.01320233    100.0
 <May18-2019> <16:00:01>      3      0.02956859      0.00890161    100.0
 <May18-2019> <16:00:02>      4      0.01887250      0.00543703      4.5
 <May18-2019> <16:00:03>      5      0.00256909      0.00038191      0.0
 <May18-2019> <16:00:05>      6      0.00069063      0.00015955      0.0
 <May18-2019> <16:00:06>      7      0.00004834      0.00001150      0.0
 <May18-2019> <16:00:07>      8      0.00000742      0.00000102      0.0
 <May18-2019> <16:00:08>      9      0.00000299      0.00000045      0.0
 <May18-2019> <16:00:08>  SCF converged
 <May18-2019> <16:00:10>     10      0.00000003      0.00000001      0.0
 <May18-2019> <16:00:10>  >>>> TOTEN
 <May18-2019> <16:00:12>  >>>> POPAN
 <May18-2019> <16:00:12>  >>>> DEBYE
 <May18-2019> <16:00:12>  >>>> ENGRAD
 <May18-2019> <16:00:17>  current energy                               -2.01843875 Hartree
 <May18-2019> <16:00:17>  energy change                      -0.03072537     0.00010000    F
 <May18-2019> <16:00:17>  constrained gradient max            0.08515680     0.00010000    F
 <May18-2019> <16:00:17>  constrained gradient rms            0.03498871     0.00006667    F
 <May18-2019> <16:00:17>  gradient max                        0.08515680
 <May18-2019> <16:00:17>  gradient rms                        0.03498871
 <May18-2019> <16:00:17>  cart. step max                      0.07387654     0.01000000    F
 <May18-2019> <16:00:17>  cart. step rms                      0.04027233     0.00666667    F
  Coordinates in Geometry Cycle 4
    Atom         X           Y           Z   (Angstrom)
    1.Al        0.000000    0.000000    0.000000
    2.C         0.000000    2.122546    0.000000
    3.O         0.000000    3.230036    0.000000
    4.C         0.000000    0.000000    2.122546
    5.O         0.000000    0.000000    3.230036
    6.C         0.000000   -2.122546    0.000000
    7.O         0.000000   -3.230036    0.000000
    8.C         0.000000    0.000000   -2.122546
    9.O         0.000000    0.000000   -3.230036
   10.C         2.122546    0.000000    0.000000
   11.O         3.230036    0.000000    0.000000
   12.C        -2.122546    0.000000    0.000000
   13.O        -3.230036    0.000000    0.000000
 <May18-2019> <16:00:17>  >>>> CORORT
 <May18-2019> <16:00:17>  >>>> CLSMAT
 <May18-2019> <16:00:17>  >>>> ORTHON
 <May18-2019> <16:00:17>  >>>> GENPT
 <May18-2019> <16:00:18>  Block Length= 126
 <May18-2019> <16:00:18>  >>>> PTBAS
 <May18-2019> <16:00:19>  >>>> CYCLE
 <May18-2019> <16:00:20>              |Error|         MaxErr       Wt(A-DIIS)
 <May18-2019> <16:00:20>      1      0.20490176      0.08537173
 <May18-2019> <16:00:21>      2      0.04600785      0.00974969    100.0
 <May18-2019> <16:00:23>      3      0.15751416      0.02542884    100.0
 <May18-2019> <16:00:24>      4      0.04442708      0.00723946      6.3
 <May18-2019> <16:00:25>      5      0.00198909      0.00033269      0.0
 <May18-2019> <16:00:26>      6      0.00035559      0.00007674      0.0
 <May18-2019> <16:00:28>      7      0.00005595      0.00000868      0.0
 <May18-2019> <16:00:29>      8      0.00000989      0.00000099      0.0
 <May18-2019> <16:00:29>  SCF converged
 <May18-2019> <16:00:30>      9      0.00000152      0.00000020      0.0
 <May18-2019> <16:00:30>  >>>> TOTEN
 <May18-2019> <16:00:32>  >>>> POPAN
 <May18-2019> <16:00:32>  >>>> DEBYE
 <May18-2019> <16:00:32>  >>>> ENGRAD
 <May18-2019> <16:00:37>  current energy                               -2.03634774 Hartree
 <May18-2019> <16:00:37>  energy change                      -0.01790898     0.00010000    F
 <May18-2019> <16:00:37>  constrained gradient max            0.07138739     0.00010000    F
 <May18-2019> <16:00:37>  constrained gradient rms            0.03236859     0.00006667    F
 <May18-2019> <16:00:37>  gradient max                        0.07138739
 <May18-2019> <16:00:37>  gradient rms                        0.03236859
 <May18-2019> <16:00:37>  cart. step max                      0.08724825     0.01000000    F
 <May18-2019> <16:00:37>  cart. step rms                      0.04525998     0.00666667    F
  Coordinates in Geometry Cycle 5
    Atom         X           Y           Z   (Angstrom)
    1.Al        0.000000    0.000000    0.000000
    2.C         0.000000    2.198063    0.000000
    3.O         0.000000    3.317284    0.000000
    4.C         0.000000    0.000000    2.198063
    5.O         0.000000    0.000000    3.317284
    6.C         0.000000   -2.198063    0.000000
    7.O         0.000000   -3.317284    0.000000
    8.C         0.000000    0.000000   -2.198063
    9.O         0.000000    0.000000   -3.317284
   10.C         2.198063    0.000000    0.000000
   11.O         3.317284    0.000000    0.000000
   12.C        -2.198063    0.000000    0.000000
   13.O        -3.317284    0.000000    0.000000
 <May18-2019> <16:00:38>  >>>> CORORT
 <May18-2019> <16:00:38>  >>>> CLSMAT
 <May18-2019> <16:00:38>  >>>> ORTHON
 <May18-2019> <16:00:38>  >>>> GENPT
 <May18-2019> <16:00:38>  Block Length= 126
 <May18-2019> <16:00:38>  >>>> PTBAS
 <May18-2019> <16:00:39>  >>>> CYCLE
 <May18-2019> <16:00:40>              |Error|         MaxErr       Wt(A-DIIS)
 <May18-2019> <16:00:40>      1      0.24248414      0.07655016
 <May18-2019> <16:00:42>      2      0.08627920      0.01393246    100.0
 <May18-2019> <16:00:43>      3      0.33253838      0.05333637    100.0
 <May18-2019> <16:00:44>      4      0.10556300      0.01732677    100.0
 <May18-2019> <16:00:45>      5      0.01853730      0.00226280      1.3
 <May18-2019> <16:00:47>      6      0.00044459      0.00009010      0.0
 <May18-2019> <16:00:48>      7      0.00032615      0.00005473      0.0
 <May18-2019> <16:00:49>      8      0.00001260      0.00000257      0.0
 <May18-2019> <16:00:50>      9      0.00000401      0.00000069      0.0
 <May18-2019> <16:00:50>  SCF converged
 <May18-2019> <16:00:51>     10      0.00000034      0.00000004      0.0
 <May18-2019> <16:00:52>  >>>> TOTEN
 <May18-2019> <16:00:54>  >>>> POPAN
 <May18-2019> <16:00:54>  >>>> DEBYE
 <May18-2019> <16:00:54>  >>>> ENGRAD
 <May18-2019> <16:00:59>  current energy                               -2.04511040 Hartree
 <May18-2019> <16:00:59>  energy change                      -0.00876266     0.00010000    F
 <May18-2019> <16:00:59>  constrained gradient max            0.01368236     0.00010000    F
 <May18-2019> <16:00:59>  constrained gradient rms            0.00600413     0.00006667    F
 <May18-2019> <16:00:59>  gradient max                        0.01368236
 <May18-2019> <16:00:59>  gradient rms                        0.00600413
 <May18-2019> <16:00:59>  cart. step max                      0.02989823     0.01000000    F
 <May18-2019> <16:00:59>  cart. step rms                      0.01551280     0.00666667    F
  Coordinates in Geometry Cycle 6
    Atom         X           Y           Z   (Angstrom)
    1.Al        0.000000    0.000000    0.000000
    2.C         0.000000    2.223953    0.000000
    3.O         0.000000    3.347183    0.000000
    4.C         0.000000    0.000000    2.223953
    5.O         0.000000    0.000000    3.347183
    6.C         0.000000   -2.223953    0.000000
    7.O         0.000000   -3.347183    0.000000
    8.C         0.000000    0.000000   -2.223953
    9.O         0.000000    0.000000   -3.347183
   10.C         2.223953    0.000000    0.000000
   11.O         3.347183    0.000000    0.000000
   12.C        -2.223953    0.000000    0.000000
   13.O        -3.347183    0.000000    0.000000
 <May18-2019> <16:00:59>  >>>> CORORT
 <May18-2019> <16:00:59>  >>>> CLSMAT
 <May18-2019> <16:00:59>  >>>> ORTHON
 <May18-2019> <16:00:59>  >>>> GENPT
 <May18-2019> <16:00:59>  Block Length= 126
 <May18-2019> <16:00:59>  >>>> PTBAS
 <May18-2019> <16:01:00>  >>>> CYCLE
 <May18-2019> <16:01:02>              |Error|         MaxErr       Wt(A-DIIS)
 <May18-2019> <16:01:02>      1      0.07893026      0.02374204
 <May18-2019> <16:01:03>      2      0.03254221      0.00534000    100.0
 <May18-2019> <16:01:04>      3      0.12998547      0.02099221    100.0
 <May18-2019> <16:01:05>      4      0.04206699      0.00692838    100.0
 <May18-2019> <16:01:07>      5      0.00557429      0.00068011      0.0
 <May18-2019> <16:01:08>      6      0.00021970      0.00005397      0.0
 <May18-2019> <16:01:09>      7      0.00009838      0.00001531      0.0
 <May18-2019> <16:01:10>      8      0.00001593      0.00000204      0.0
 <May18-2019> <16:01:12>      9      0.00000187      0.00000027      0.0
 <May18-2019> <16:01:12>  SCF converged
 <May18-2019> <16:01:13>     10      0.00000013      0.00000003      0.0
 <May18-2019> <16:01:13>  >>>> TOTEN
 <May18-2019> <16:01:15>  >>>> POPAN
 <May18-2019> <16:01:15>  >>>> DEBYE
 <May18-2019> <16:01:15>  >>>> ENGRAD
 <May18-2019> <16:01:20>  current energy                               -2.04503439 Hartree
 <May18-2019> <16:01:20>  energy change                       0.00007600     0.00010000    T
 <May18-2019> <16:01:20>  constrained gradient max            0.00515082     0.00010000    F
 <May18-2019> <16:01:20>  constrained gradient rms            0.00272607     0.00006667    F
 <May18-2019> <16:01:20>  gradient max                        0.00515082
 <May18-2019> <16:01:20>  gradient rms                        0.00272607
 <May18-2019> <16:01:20>  cart. step max                      0.00127603     0.01000000    T
 <May18-2019> <16:01:20>  cart. step rms                      0.00053757     0.00666667    T
  Coordinates in Geometry Cycle 7
    Atom         X           Y           Z   (Angstrom)
    1.Al        0.000000    0.000000    0.000000
    2.C         0.000000    2.225229    0.000000
    3.O         0.000000    3.347683    0.000000
    4.C         0.000000    0.000000    2.225229
    5.O         0.000000    0.000000    3.347683
    6.C         0.000000   -2.225229    0.000000
    7.O         0.000000   -3.347683    0.000000
    8.C         0.000000    0.000000   -2.225229
    9.O         0.000000    0.000000   -3.347683
   10.C         2.225229    0.000000    0.000000
   11.O         3.347683    0.000000    0.000000
   12.C        -2.225229    0.000000    0.000000
   13.O        -3.347683    0.000000    0.000000
 <May18-2019> <16:01:20>  >>>> CORORT
 <May18-2019> <16:01:20>  >>>> CLSMAT
 <May18-2019> <16:01:20>  >>>> ORTHON
 <May18-2019> <16:01:20>  >>>> GENPT
 <May18-2019> <16:01:20>  Block Length= 126
 <May18-2019> <16:01:21>  >>>> PTBAS
 <May18-2019> <16:01:22>  >>>> CYCLE
 <May18-2019> <16:01:23>              |Error|         MaxErr       Wt(A-DIIS)
 <May18-2019> <16:01:23>      1      0.01181940      0.00223218
 <May18-2019> <16:01:24>      2      0.00145976      0.00022361    100.0
 <May18-2019> <16:01:25>      3      0.00084338      0.00012959    100.0
 <May18-2019> <16:01:27>      4      0.00061222      0.00007586      0.0
 <May18-2019> <16:01:28>      5      0.00010933      0.00002536      0.0
 <May18-2019> <16:01:29>      6      0.00003021      0.00000856      0.0
 <May18-2019> <16:01:30>      7      0.00000244      0.00000054      0.0
 <May18-2019> <16:01:30>  SCF converged
 <May18-2019> <16:01:32>      8      0.00000031      0.00000005      0.0
 <May18-2019> <16:01:32>  >>>> TOTEN
 <May18-2019> <16:01:34>  >>>> POPAN
 <May18-2019> <16:01:34>  >>>> DEBYE
 <May18-2019> <16:01:34>  >>>> ENGRAD
 <May18-2019> <16:01:39>  current energy                               -2.04503730 Hartree
 <May18-2019> <16:01:39>  energy change                      -0.00000291     0.00010000    T
 <May18-2019> <16:01:39>  constrained gradient max            0.00133210     0.00010000    F
 <May18-2019> <16:01:39>  constrained gradient rms            0.00068980     0.00006667    F
 <May18-2019> <16:01:39>  gradient max                        0.00133210
 <May18-2019> <16:01:39>  gradient rms                        0.00068980
 <May18-2019> <16:01:39>  cart. step max                      0.00076981     0.01000000    T
 <May18-2019> <16:01:39>  cart. step rms                      0.00036353     0.00666667    T
  Coordinates in Geometry Cycle 8
    Atom         X           Y           Z   (Angstrom)
    1.Al        0.000000    0.000000    0.000000
    2.C         0.000000    2.225999    0.000000
    3.O         0.000000    3.348199    0.000000
    4.C         0.000000    0.000000    2.225999
    5.O         0.000000    0.000000    3.348199
    6.C         0.000000   -2.225999    0.000000
    7.O         0.000000   -3.348199    0.000000
    8.C         0.000000    0.000000   -2.225999
    9.O         0.000000    0.000000   -3.348199
   10.C         2.225999    0.000000    0.000000
   11.O         3.348199    0.000000    0.000000
   12.C        -2.225999    0.000000    0.000000
   13.O        -3.348199    0.000000    0.000000
 <May18-2019> <16:01:39>  >>>> CORORT
 <May18-2019> <16:01:39>  >>>> CLSMAT
 <May18-2019> <16:01:39>  >>>> ORTHON
 <May18-2019> <16:01:39>  >>>> GENPT
 <May18-2019> <16:01:39>  Block Length= 126
 <May18-2019> <16:01:39>  >>>> PTBAS
 <May18-2019> <16:01:40>  >>>> CYCLE
 <May18-2019> <16:01:42>              |Error|         MaxErr       Wt(A-DIIS)
 <May18-2019> <16:01:42>      1      0.00422451      0.00086949
 <May18-2019> <16:01:43>      2      0.00045574      0.00006330    100.0
 <May18-2019> <16:01:44>      3      0.00030381      0.00004798    100.0
 <May18-2019> <16:01:45>      4      0.00022033      0.00002404      0.0
 <May18-2019> <16:01:47>      5      0.00006920      0.00001159      0.0
 <May18-2019> <16:01:48>      6      0.00000594      0.00000206      0.0
 <May18-2019> <16:01:49>      7      0.00000060      0.00000012      0.0
 <May18-2019> <16:01:49>  SCF converged
 <May18-2019> <16:01:50>      8      0.00000005      0.00000001      0.0
 <May18-2019> <16:01:50>  >>>> TOTEN
 <May18-2019> <16:01:53>  >>>> POPAN
 <May18-2019> <16:01:53>  >>>> DEBYE
 <May18-2019> <16:01:53>  >>>> ENGRAD
 <May18-2019> <16:01:58>  current energy                               -2.04502555 Hartree
 <May18-2019> <16:01:58>  energy change                       0.00001175     0.00010000    T
 <May18-2019> <16:01:58>  constrained gradient max            0.00000771     0.00010000    T
 <May18-2019> <16:01:58>  constrained gradient rms            0.00000324     0.00006667    T
 <May18-2019> <16:01:58>  gradient max                        0.00000771
 <May18-2019> <16:01:58>  gradient rms                        0.00000324
 <May18-2019> <16:01:58>  cart. step max                      0.00002244     0.01000000    T
 <May18-2019> <16:01:58>  cart. step rms                      0.00001196     0.00666667    T
 <May18-2019> <16:01:58>  GEOMETRY CONVERGED
 <May18-2019> <16:01:58>  Calculating Energy Terms for Final Geometry
  Coordinates in Geometry Cycle 8
    Atom         X           Y           Z   (Angstrom)
    1.Al        0.000000    0.000000    0.000000
    2.C         0.000000    2.225999    0.000000
    3.O         0.000000    3.348199    0.000000
    4.C         0.000000    0.000000    2.225999
    5.O         0.000000    0.000000    3.348199
    6.C         0.000000   -2.225999    0.000000
    7.O         0.000000   -3.348199    0.000000
    8.C         0.000000    0.000000   -2.225999
    9.O         0.000000    0.000000   -3.348199
   10.C         2.225999    0.000000    0.000000
   11.O         3.348199    0.000000    0.000000
   12.C        -2.225999    0.000000    0.000000
   13.O        -3.348199    0.000000    0.000000
 <May18-2019> <16:01:58>  >>>> CORORT
 <May18-2019> <16:01:58>  >>>> CLSMAT
 <May18-2019> <16:01:58>  >>>> ORTHON
 <May18-2019> <16:01:58>  >>>> GENPT
 <May18-2019> <16:01:58>  Block Length= 126
 <May18-2019> <16:01:58>  >>>> PTBAS
 <May18-2019> <16:01:59>  >>>> CYCLE
 <May18-2019> <16:02:01>              |Error|         MaxErr       Wt(A-DIIS)
 <May18-2019> <16:02:01>      1      0.00000003      0.00000001
 <May18-2019> <16:02:02>      2      0.00000011      0.00000002    100.0
 <May18-2019> <16:02:02>  SCF converged
 <May18-2019> <16:02:03>      3      0.00000043      0.00000009    100.0
 <May18-2019> <16:02:04>  >>>> TOTEN
 <May18-2019> <16:02:08>  >>>> POPAN
 <May18-2019> <16:02:08>  >>>> DEBYE
 <May18-2019> <16:02:08>  >>>> AMETS
 <May18-2019> <16:02:08>  >>>> POPUL
 <May18-2019> <16:02:08>   Bond Energy          -2.04502555 a.u.
 <May18-2019> <16:02:08>   Bond Energy         -55.64797662 eV
 <May18-2019> <16:02:08>   Bond Energy       -1283.27       kcal/mol
 <May18-2019> <16:02:08>  >>>> ENHESS
 <May18-2019> <16:02:09>  === NUCLEUS:     1
 <May18-2019> <16:02:48>  === NUCLEUS:     2
 <May18-2019> <16:03:26>  === NUCLEUS:     8
 <May18-2019> <16:04:05>  >>>> CALC_HESS_PMAT
 <May18-2019> <16:04:14>  >>>> CALC_HESS_WMAT
 <May18-2019> <16:04:18>  NORMAL TERMINATION
 <May18-2019> <16:04:18>  END
