

 Parallel Execution: Process Information
 ==============================================================================
 Rank   Node Name                              NodeID   MyNodeRank  NodeMaster
    0   BAZIS-cn018                               0          0          0
    1   BAZIS-cn018                               0          1         -1
    2   BAZIS-cn018                               0          2         -1
    3   BAZIS-cn018                               0          3         -1
    4   BAZIS-cn018                               0          4         -1
    5   BAZIS-cn018                               0          5         -1
    6   BAZIS-cn018                               0          6         -1
    7   BAZIS-cn018                               0          7         -1
    8   BAZIS-cn018                               0          8         -1
    9   BAZIS-cn018                               0          9         -1
   10   BAZIS-cn018                               0         10         -1
   11   BAZIS-cn018                               0         11         -1
 ==============================================================================


May use up to 30771MB of RAM as shared memory on node 0


XC
    GGA BP86
END

SCF
    iterations 250
END

EPRINT
    SFO Eig Ovl
END

ZLMFIT
    Quality normal
END

BECKEGRID
    Quality good
End

SYMMETRY nosym
CHARGE -1

ATOMS
1.F        -4.930175    3.105115   -0.047296 f=FCl
2.Cl       -3.857100    1.219964    0.110275 f=FCl
3.Br       -5.988106    4.973840   -0.200180 f=Br
END

Fragments
FCl /home/tcst25/advanced_comp_chemistry/exercise2/halogen/ClFBr/frag1_FCl.t21
Br /home/tcst25/advanced_comp_chemistry/exercise2/halogen/ClFBr/frag2_Br.t21
End
end input

 *******************************************************************************
 *                                                                             *
 *  -------------------------------------                                      *
 *   Amsterdam Density Functional  (ADF)         2017                          *
 *  -------------------------------------                                      *
 *                                               r58813 2017-04-12             *
 *                                                                             *
 *                                                                             *
 *                              =================                              *
 *                              |               |                              *
 *                              |     A D F     |                              *
 *                              |               |                              *
 *                              =================                              *
 *                                                                             *
 *                                                                             *
 *   Online information and documentation:  https://www.scm.com/support/       *
 *   E-mail:  support@scm.com   info@scm.com                                   *
 *                                                                             *
 *   Scientific publications using ADF results must be properly referenced     *
 *   See the User Manuals (or the web site) for recommended citations          *
 *   The terms and conditions of the End User License Agreement apply to       *
 *   the use of ADF, https://www.scm.com/license-terms/                        *
 *                                                                             *
 **********************  x86_64_linux_intel / intelmpi  ************************
 
 Licensed to: VU/FEW (+ SARA) / ALGEMEEN / Amsterdam / THE NETHERLANDS
 SCM User ID: u7668
  
 ADF 2017  RunTime: May09-2019 17:12:05  Nodes: 1  Procs: 12

 Temporary files are created in /local/datastore0/tcst25/189780/kid_0.u71jK1


Communication costs MPI_COMM_WORLD:      3.867 usec per message,   0.0180 usec per 8-byte item
Communication costs for intra-node:      3.839 usec per message,   0.0172 usec per 8-byte item

 *** (NO TITLE) ***



 ===========================
 A T T A C H E D   F I L E S
 ===========================
  



 ===============================
 M O D E L   P A R A M E T E R S
 ===============================
  
 DENSITY FUNCTIONAL POTENTIAL (scf)
    LDA:                               VWN                                      
    Gradient Corrections:              Becke88 Perdew86                        == Not Default ==

 SPIN  (restricted / unrestr.)
    Molecule:                          Restricted                               
    Fragments:                         Restricted                               

 OTHER ASPECTS
    Relativistic Corrections:          ---                                      

    Nuclear Charge Density Model:      Point Charge Nuclei                      
    Core Treatment:                    Frozen Orbital(s)                        

    Hyperfine or Zeeman Interaction:   ---                                      


 Fragment File(s)
 ----------------
 FCl:
         file : /home/tcst25/advanced_comp_chemistry/exercise2/halogen/ClFBr/frag1_FCl.t21
         jobid: ADF 2017  RunTime: May09-2019 16:32:27  Nodes: 1  Procs: 12
         title: *** (NO TITLE) ***
 Br:
         file : /home/tcst25/advanced_comp_chemistry/exercise2/halogen/ClFBr/frag2_Br.t21
         jobid: ADF 2017  RunTime: May09-2019 16:32:27  Nodes: 1  Procs: 12
         title: *** (NO TITLE) ***



                                        ************************************
                                        *  R U N   T Y P E : SINGLE POINT  *
                                        ************************************
  



 ===============
 G E O M E T R Y  ***  Planar Molecule  ***
 ===============
  

 ATOMS
 =====                            X Y Z                    CHARGE
                                (Angstrom)             Nucl     +Core       At.Mass
                       --------------------------    ----------------       -------
    1  F              -4.9302    3.1051   -0.0473      9.00      9.00       18.9984
    2  Cl             -3.8571    1.2200    0.1103     17.00     17.00       34.9689
    3  Br             -5.9881    4.9738   -0.2002     35.00     35.00       78.9183


 FRAGMENTS
 =========                                     Atoms in this Fragment     Cart. coord.s (Angstrom)
                                               -------------------------------------------------------
    1  FCl                                               1  F           -4.9302    3.1051   -0.0473
                                                         2  Cl          -3.8571    1.2200    0.1103
    2  Br                                                3  Br          -5.9881    4.9738   -0.2002


 Interatomic Distance Matrix (Angstrom)
 --------------------------------------

   1)     0.000
   2)     2.175   0.000
   3)     2.153   4.328   0.000

 Min. Distance =    2.1528
 Max. Distance =    4.3277



 =====================================
 S Y M M E T R Y ,   E L E C T R O N S
 =====================================
  
 Symmetry: NOSYM

 Irreducible Representations, including subspecies
 -------------------------------------------------
 A


 Configuration of Valence Electrons
 ==================================
 ( determined in the SCF procedure )

 Total:   62

 Net Charge: -1 (Nuclei minus Electrons)

 Aufbau principle for MO occupations will be applied through SCF cycle no.     125
 Thereafter, the program will assign electrons to MOs that are spatially
 similar to the occupied MOs in a "reference" cycle ("KeepOrbitals").
 The reference cycle is always the PREVIOUS cycle: it will evolve with
 the SCF procedure.
1
 ***************************************************************************************************



                                      ****************************************
                                      *  B U I L D : (Fragments, Functions)  *
                                      ****************************************
  

 The individual fragments are copies of the corresponding 'Master' fragments defined on the fragment files.
 However, they may have been rotated (and translated) with respect to the Master. The local coordinate axes
 of each fragment (which define for instance the spatial orientation in the current molecule of a fragment
 P:x orbital) are not necessarily those of the molecule.
 The local frame (if different from the molecular one) is printed to enable an interpretation of the expan-
 sion of an MO in Fragment Orbitals.



                                             *************************
                                             *  Fragment Type : FCl  *
                                             *************************
  

 Fragment no.    1   (in the list of all fragments)
 -----------------
 The local coordinate frame is identical to the molecular frame.

 Check Atomic Coordinates:

                  Master (on file)          After Computed Tranformation               As specified on Input
           ----------------------------     ----------------------------     ---------------------------------
     1)    -4.93017   3.10512  -0.04730     -4.93018   3.10511  -0.04730       1  -4.93018   3.10511  -0.04730
     2)    -3.85710   1.21996   0.11027     -3.85710   1.21996   0.11028       2  -3.85710   1.21996   0.11028



                                              ************************
                                              *  Fragment Type : Br  *
                                              ************************
  

 Fragment no.    2   (in the list of all fragments)
 -----------------
 The local coordinate frame is identical to the molecular frame.

 Check Atomic Coordinates:

                  Master (on file)          After Computed Tranformation               As specified on Input
           ----------------------------     ----------------------------     ---------------------------------
     1)    -5.98811   4.97384  -0.20018     -5.98811   4.97384  -0.20018       3  -5.98811   4.97384  -0.20018



 =======
 S F O s  ***  (Symmetrized Fragment Orbitals)  ***
 =======
  
 SFOs are linear combinations of (valence) Fragment Orbitals (FOs), such that the SFOs transform as the
 irreducible representations of the (molecular) symmetry group. Each SFO is therefore characterized by
 an irrep of the molecule and by a few (or only one) generating FOs.
 The SFOs constitute a symmetry-adapted basis for the Fock matrix. The MO eigenvector coefficients in
 this basis provide a direct interpretation of the MOs in terms of Frontier Orbital Theory.

 The SFOs are combined with auxiliary Core Functions (CFs) to ensure orthogonalization on the (frozen)
 Core Orbitals (COs). The Core-orthogonalized SFOs (CSFOs) constitute the true Fock basis.

 The FOs, and hence also the (C)SFOs are combinations of the elementary basis functions (BAS). The basis
 functions that participate in the description of the SFOs depend on the irrep. The indices of the
 involved functions are printed below for each irrep.
 (The complete list of primitive basis functions is printed in another section)

 Total nr. of (C)SFOs (summation over all irreps) :   116

 NOTE: a (C)SFO that is defined as a combination of more than one FO is usually NOT normalized.



                                       === A ===
 Nr. of SFOs :  116
 Cartesian basis functions that participate in this irrep (total number =   131) :
      1     2     3     4     5     6     9    12     7    10
     13     8    11    14    15    16    17    18    19    20
     21    22    23    24    25    26    27    28    29    30
     31    32    33    34    41    42    43    35    38    44
     47    50    36    39    45    48    51    37    40    46
     49    52    53    54    55    56    57    58    59    60
     61    62    63    64    65    66    67    68    69    70
     71    78    79   104   105   106    72    75    80    83
    107   110   113    73    76    81    84   108   111   114
     74    77    82    85   109   112   115    86    92    98
    116    87    93    99   117    88    94   100   118    89
     95   101   119    90    96   102   120    91    97   103
    121   122   123   124   125   126   127   128   129   130
    131

    SFO  (index         Fragment          Generating    Expansion in Fragment Orbitals
  indx  incl.CFs)   Occup   Orb.Energy   FragmentType  Coeff.   Orbital     on Fragment
 --------------------------------------------------------------------------------------
     1       1      2.000    -100.825 au  FCl           1.00      1 A               1
                        (   -2743.581 eV)
     2       2      2.000     -24.329 au  FCl           1.00      2 A               1
                        (    -662.024 eV)
     3       3      2.000      -9.272 au  FCl           1.00      3 A               1
                        (    -252.305 eV)
     4       4      2.000      -7.109 au  FCl           1.00      4 A               1
                        (    -193.454 eV)
     5       5      2.000      -7.087 au  FCl           1.00      5 A               1
                        (    -192.853 eV)
     6       6      2.000      -7.087 au  FCl           1.00      6 A               1
                        (    -192.852 eV)
     7       7      2.000      -1.053 au  FCl           1.00      7 A               1
                        (     -28.642 eV)
     8       8      2.000      -0.787 au  FCl           1.00      8 A               1
                        (     -21.408 eV)
     9       9      2.000      -0.434 au  FCl           1.00      9 A               1
                        (     -11.814 eV)
    10      10      2.000      -0.367 au  FCl           1.00     10 A               1
                        (      -9.998 eV)
    11      11      2.000      -0.367 au  FCl           1.00     11 A               1
                        (      -9.998 eV)
    12      12      2.000      -0.325 au  FCl           1.00     12 A               1
                        (      -8.839 eV)
    13      13      2.000      -0.325 au  FCl           1.00     13 A               1
                        (      -8.839 eV)
    14      14       --        -0.299 au  FCl           1.00     14 A               1
                        (      -8.124 eV)
    15      15       --         0.041 au  FCl           1.00     15 A               1
                        (       1.103 eV)
    16      16       --         0.181 au  FCl           1.00     16 A               1
                        (       4.935 eV)
    17      17       --         0.216 au  FCl           1.00     17 A               1
                        (       5.888 eV)
    18      18       --         0.216 au  FCl           1.00     18 A               1
                        (       5.888 eV)
    19      19       --         0.272 au  FCl           1.00     19 A               1
                        (       7.403 eV)
    20      20       --         0.316 au  FCl           1.00     20 A               1
                        (       8.600 eV)
    21      21       --         0.316 au  FCl           1.00     21 A               1
                        (       8.601 eV)
    22      22       --         0.365 au  FCl           1.00     22 A               1
                        (       9.930 eV)
    23      23       --         0.365 au  FCl           1.00     23 A               1
                        (       9.930 eV)
    24      24       --         0.426 au  FCl           1.00     24 A               1
                        (      11.580 eV)
    25      25       --         0.543 au  FCl           1.00     25 A               1
                        (      14.763 eV)
    26      26       --         0.543 au  FCl           1.00     26 A               1
                        (      14.763 eV)
    27      27       --         0.723 au  FCl           1.00     27 A               1
                        (      19.661 eV)
    28      28       --         1.036 au  FCl           1.00     28 A               1
                        (      28.183 eV)
    29      29       --         1.036 au  FCl           1.00     29 A               1
                        (      28.183 eV)
    30      30       --         1.059 au  FCl           1.00     30 A               1
                        (      28.806 eV)
    31      31       --         1.059 au  FCl           1.00     31 A               1
                        (      28.806 eV)
    32      32       --         1.176 au  FCl           1.00     32 A               1
                        (      32.000 eV)
    33      33       --         1.176 au  FCl           1.00     33 A               1
                        (      32.000 eV)
    34      34       --         1.202 au  FCl           1.00     34 A               1
                        (      32.712 eV)
    35      35       --         1.284 au  FCl           1.00     35 A               1
                        (      34.943 eV)
    36      36       --         1.284 au  FCl           1.00     36 A               1
                        (      34.943 eV)
    37      37       --         1.379 au  FCl           1.00     37 A               1
                        (      37.520 eV)
    38      38       --         1.488 au  FCl           1.00     38 A               1
                        (      40.504 eV)
    39      39       --         1.489 au  FCl           1.00     39 A               1
                        (      40.504 eV)
    40      40       --         1.810 au  FCl           1.00     40 A               1
                        (      49.246 eV)
    41      41       --         2.083 au  FCl           1.00     41 A               1
                        (      56.692 eV)
    42      42       --         2.083 au  FCl           1.00     42 A               1
                        (      56.693 eV)
    43      43       --         2.088 au  FCl           1.00     43 A               1
                        (      56.816 eV)
    44      44       --         2.399 au  FCl           1.00     44 A               1
                        (      65.294 eV)
    45      45       --         3.469 au  FCl           1.00     45 A               1
                        (      94.387 eV)
    46      46       --         3.469 au  FCl           1.00     46 A               1
                        (      94.387 eV)
    47      47       --         3.481 au  FCl           1.00     47 A               1
                        (      94.734 eV)
    48      48       --         3.481 au  FCl           1.00     48 A               1
                        (      94.734 eV)
    49      49       --         3.572 au  FCl           1.00     49 A               1
                        (      97.202 eV)
    50      50       --         3.572 au  FCl           1.00     50 A               1
                        (      97.202 eV)
    51      51       --         3.719 au  FCl           1.00     51 A               1
                        (     101.186 eV)
    52      52       --         4.700 au  FCl           1.00     52 A               1
                        (     127.890 eV)
    53      53       --         4.700 au  FCl           1.00     53 A               1
                        (     127.891 eV)
    54      54       --         5.086 au  FCl           1.00     54 A               1
                        (     138.389 eV)
    55      55       --        13.050 au  FCl           1.00     55 A               1
                        (     355.104 eV)
    56      56       --        18.821 au  FCl           1.00     56 A               1
                        (     512.132 eV)
    57      57       --        18.821 au  FCl           1.00     57 A               1
                        (     512.134 eV)
    58      58       --        19.150 au  FCl           1.00     58 A               1
                        (     521.099 eV)
    59      59       --        48.911 au  FCl           1.00     59 A               1
                        (    1330.927 eV)
    60      60       --       215.962 au  FCl           1.00     60 A               1
                        (    5876.615 eV)
    61      61      2.000    -480.688 au  Br            1.00      1 A               2
                        (  -13080.195 eV)
    62      62      2.000     -61.445 au  Br            1.00      2 A               2
                        (   -1672.008 eV)
    63      63      2.000     -55.375 au  Br            1.00      3 A               2
                        (   -1506.824 eV)
    64      64      2.000     -55.375 au  Br            1.00      4 A               2
                        (   -1506.824 eV)
    65      65      2.000     -55.375 au  Br            1.00      5 A               2
                        (   -1506.824 eV)
    66      66      2.000      -8.066 au  Br            1.00      6 A               2
                        (    -219.480 eV)
    67      67      2.000      -5.966 au  Br            1.00      7 A               2
                        (    -162.330 eV)
    68      68      2.000      -5.966 au  Br            1.00      8 A               2
                        (    -162.330 eV)
    69      69      2.000      -5.966 au  Br            1.00      9 A               2
                        (    -162.330 eV)
    70      70      2.000      -2.173 au  Br            1.00     10 A               2
                        (     -59.143 eV)
    71      71      2.000      -2.173 au  Br            1.00     11 A               2
                        (     -59.143 eV)
    72      72      2.000      -2.173 au  Br            1.00     12 A               2
                        (     -59.143 eV)
    73      73      2.000      -2.173 au  Br            1.00     13 A               2
                        (     -59.143 eV)
    74      74      2.000      -2.173 au  Br            1.00     14 A               2
                        (     -59.143 eV)
    75      75      2.000      -0.386 au  Br            1.00     15 A               2
                        (     -10.500 eV)
    76      76      2.000       0.016 au  Br            1.00     16 A               2
                        (       0.447 eV)
    77      77      2.000       0.016 au  Br            1.00     17 A               2
                        (       0.447 eV)
    78      78      2.000       0.016 au  Br            1.00     18 A               2
                        (       0.447 eV)
    79      79       --         0.352 au  Br            1.00     19 A               2
                        (       9.589 eV)
    80      80       --         0.352 au  Br            1.00     20 A               2
                        (       9.589 eV)
    81      81       --         0.352 au  Br            1.00     21 A               2
                        (       9.589 eV)
    82      82       --         0.501 au  Br            1.00     22 A               2
                        (      13.634 eV)
    83      83       --         0.551 au  Br            1.00     23 A               2
                        (      15.005 eV)
    84      84       --         0.551 au  Br            1.00     24 A               2
                        (      15.005 eV)
    85      85       --         0.551 au  Br            1.00     25 A               2
                        (      15.005 eV)
    86      86       --         0.551 au  Br            1.00     26 A               2
                        (      15.005 eV)
    87      87       --         0.551 au  Br            1.00     27 A               2
                        (      15.005 eV)
    88      88       --         1.141 au  Br            1.00     28 A               2
                        (      31.038 eV)
    89      89       --         1.141 au  Br            1.00     29 A               2
                        (      31.038 eV)
    90      90       --         1.141 au  Br            1.00     30 A               2
                        (      31.038 eV)
    91      91       --         1.141 au  Br            1.00     31 A               2
                        (      31.038 eV)
    92      92       --         1.141 au  Br            1.00     32 A               2
                        (      31.038 eV)
    93      93       --         1.141 au  Br            1.00     33 A               2
                        (      31.038 eV)
    94      94       --         1.141 au  Br            1.00     34 A               2
                        (      31.038 eV)
    95      95       --         1.505 au  Br            1.00     35 A               2
                        (      40.949 eV)
    96      96       --         1.505 au  Br            1.00     36 A               2
                        (      40.949 eV)
    97      97       --         1.505 au  Br            1.00     37 A               2
                        (      40.949 eV)
    98      98       --         2.776 au  Br            1.00     38 A               2
                        (      75.551 eV)
    99      99       --         3.002 au  Br            1.00     39 A               2
                        (      81.690 eV)
   100     100       --         3.002 au  Br            1.00     40 A               2
                        (      81.690 eV)
   101     101       --         3.002 au  Br            1.00     41 A               2
                        (      81.690 eV)
   102     102       --         3.002 au  Br            1.00     42 A               2
                        (      81.690 eV)
   103     103       --         3.002 au  Br            1.00     43 A               2
                        (      81.690 eV)
   104     104       --         9.163 au  Br            1.00     44 A               2
                        (     249.341 eV)
   105     105       --         9.163 au  Br            1.00     45 A               2
                        (     249.341 eV)
   106     106       --         9.163 au  Br            1.00     46 A               2
                        (     249.341 eV)
   107     107       --        14.623 au  Br            1.00     47 A               2
                        (     397.911 eV)
   108     108       --        20.941 au  Br            1.00     48 A               2
                        (     569.821 eV)
   109     109       --        20.941 au  Br            1.00     49 A               2
                        (     569.821 eV)
   110     110       --        20.941 au  Br            1.00     50 A               2
                        (     569.821 eV)
   111     111       --        20.941 au  Br            1.00     51 A               2
                        (     569.821 eV)
   112     112       --        20.941 au  Br            1.00     52 A               2
                        (     569.821 eV)
   113     113       --       101.209 au  Br            1.00     53 A               2
                        (    2754.029 eV)
   114     114       --       101.209 au  Br            1.00     54 A               2
                        (    2754.029 eV)
   115     115       --       101.209 au  Br            1.00     55 A               2
                        (    2754.029 eV)
   116     116       --       746.807 au  Br            1.00     56 A               2
                        (   20321.657 eV)



 ================================
 (Slater-type)  F U N C T I O N S  ***  (Basis and Fit)  ***
 ================================
  

 Atom Type    1  (F)
 ==============

 Valence Basis Sets:  10
 -----------------------
   1 S   10.880000
   1 S    7.700000
   2 S    3.240000
   2 S    1.940000
   2 S    0.740000
   2 P    4.540000
   2 P    2.300000
   2 P    1.240000
   3 D    2.000000
   4 F    3.000000

 Atom Type    2  (Cl)
 ==============

 Valence Basis Sets:  14
 -----------------------
   1 S   20.300000
   1 S   15.250000
   2 S    6.250000
   2 S    4.450000
   2 P    8.850000
   2 P    5.050000
   3 S    3.450000
   3 S    2.300000
   3 S    1.600000
   3 P    3.350000
   3 P    2.050000
   3 P    1.200000
   3 D    2.000000
   4 F    2.000000

 Atom Type    3  (Br)
 ==============

 Valence Basis Sets:  20
 -----------------------
   1 S   41.300000
   1 S   32.800000
   2 S   13.900000
   2 P   19.450000
   2 P   13.100000
   3 S    7.200000
   3 S    4.950000
   3 P    7.900000
   3 P    5.050000
   3 D   10.900000
   3 D    6.050000
   3 D    3.500000
   4 S    4.500000
   4 S    2.800000
   4 S    1.800000
   4 P    3.250000
   4 P    1.950000
   4 P    1.200000
   4 D    1.800000
   4 F    1.800000


 BAS: List of all Elementary Cartesian Basis Functions
 =====================================================

 The numbering in the list below (to the right of the function characteristics) is referred
 to in print-outs of MO eigenvectors and Mulliken populations in the BAS representation
 (as contrasted to the SFO representation).

 Notes:
 1. The functions are characterized by a polynomial prefactor (powers of x,y,z and r) and
    an exponential decay factor alpha.
 2. Since the basis sets are specific for an atom TYPE, the individual functions occur on
    all atoms of that type.
 3. The word 'Core' in the left margin signals that it is a Core Function (CF) : not a
    degree of freedom in the valence set, but only used to ensure orthogonalization of
    the other valence basis functions on the frozen Core Orbitals.


 (power of) X  Y  Z  R     Alpha  on Atom
            ==========     =====     ==========

 F                                    1
                                  ---------------------------------------------------------------------------
            0  0  0  0    10.880      1
            0  0  0  0     7.700      2
            0  0  0  1     3.240      3
            0  0  0  1     1.940      4
            0  0  0  1     0.740      5
            1  0  0  0     4.540      6
            0  1  0  0     4.540      7
            0  0  1  0     4.540      8
            1  0  0  0     2.300      9
            0  1  0  0     2.300     10
            0  0  1  0     2.300     11
            1  0  0  0     1.240     12
            0  1  0  0     1.240     13
            0  0  1  0     1.240     14
            2  0  0  0     2.000     15
            1  1  0  0     2.000     16
            1  0  1  0     2.000     17
            0  2  0  0     2.000     18
            0  1  1  0     2.000     19
            0  0  2  0     2.000     20
            3  0  0  0     3.000     21
            2  1  0  0     3.000     22
            2  0  1  0     3.000     23
            1  2  0  0     3.000     24
            1  1  1  0     3.000     25
            1  0  2  0     3.000     26
            0  3  0  0     3.000     27
            0  2  1  0     3.000     28
            0  1  2  0     3.000     29
            0  0  3  0     3.000     30

 Cl                                   2
                                  ---------------------------------------------------------------------------
            0  0  0  0    20.300     31
            0  0  0  0    15.250     32
            0  0  0  1     6.250     33
            0  0  0  1     4.450     34
            1  0  0  0     8.850     35
            0  1  0  0     8.850     36
            0  0  1  0     8.850     37
            1  0  0  0     5.050     38
            0  1  0  0     5.050     39
            0  0  1  0     5.050     40
            0  0  0  2     3.450     41
            0  0  0  2     2.300     42
            0  0  0  2     1.600     43
            1  0  0  1     3.350     44
            0  1  0  1     3.350     45
            0  0  1  1     3.350     46
            1  0  0  1     2.050     47
            0  1  0  1     2.050     48
            0  0  1  1     2.050     49
            1  0  0  1     1.200     50
            0  1  0  1     1.200     51
            0  0  1  1     1.200     52
            2  0  0  0     2.000     53
            1  1  0  0     2.000     54
            1  0  1  0     2.000     55
            0  2  0  0     2.000     56
            0  1  1  0     2.000     57
            0  0  2  0     2.000     58
            3  0  0  0     2.000     59
            2  1  0  0     2.000     60
            2  0  1  0     2.000     61
            1  2  0  0     2.000     62
            1  1  1  0     2.000     63
            1  0  2  0     2.000     64
            0  3  0  0     2.000     65
            0  2  1  0     2.000     66
            0  1  2  0     2.000     67
            0  0  3  0     2.000     68

 Br                                   3
                                  ---------------------------------------------------------------------------
            0  0  0  0    41.300     69
            0  0  0  0    32.800     70
            0  0  0  1    13.900     71
            1  0  0  0    19.450     72
            0  1  0  0    19.450     73
            0  0  1  0    19.450     74
            1  0  0  0    13.100     75
            0  1  0  0    13.100     76
            0  0  1  0    13.100     77
            0  0  0  2     7.200     78
            0  0  0  2     4.950     79
            1  0  0  1     7.900     80
            0  1  0  1     7.900     81
            0  0  1  1     7.900     82
            1  0  0  1     5.050     83
            0  1  0  1     5.050     84
            0  0  1  1     5.050     85
            2  0  0  0    10.900     86
            1  1  0  0    10.900     87
            1  0  1  0    10.900     88
            0  2  0  0    10.900     89
            0  1  1  0    10.900     90
            0  0  2  0    10.900     91
            2  0  0  0     6.050     92
            1  1  0  0     6.050     93
            1  0  1  0     6.050     94
            0  2  0  0     6.050     95
            0  1  1  0     6.050     96
            0  0  2  0     6.050     97
            2  0  0  0     3.500     98
            1  1  0  0     3.500     99
            1  0  1  0     3.500    100
            0  2  0  0     3.500    101
            0  1  1  0     3.500    102
            0  0  2  0     3.500    103
            0  0  0  3     4.500    104
            0  0  0  3     2.800    105
            0  0  0  3     1.800    106
            1  0  0  2     3.250    107
            0  1  0  2     3.250    108
            0  0  1  2     3.250    109
            1  0  0  2     1.950    110
            0  1  0  2     1.950    111
            0  0  1  2     1.950    112
            1  0  0  2     1.200    113
            0  1  0  2     1.200    114
            0  0  1  2     1.200    115
            2  0  0  1     1.800    116
            1  1  0  1     1.800    117
            1  0  1  1     1.800    118
            0  2  0  1     1.800    119
            0  1  1  1     1.800    120
            0  0  2  1     1.800    121
            3  0  0  0     1.800    122
            2  1  0  0     1.800    123
            2  0  1  0     1.800    124
            1  2  0  0     1.800    125
            1  1  1  0     1.800    126
            1  0  2  0     1.800    127
            0  3  0  0     1.800    128
            0  2  1  0     1.800    129
            0  1  2  0     1.800    130
            0  0  3  0     1.800    131

 Total number of charge fitting functions (nprimf)       361
 Total number of Cartesian basis functions (naos)        131
 Total number of Cartesian core functions  (ncos)          0

1
 ***************************************************************************************************



                                              ***********************
                                              *  T E C H N I C A L  *
                                              ***********************
  



 =============================================================
 P A R A L L E L I Z A T I O N  and  V E C T O R I Z A T I O N
 =============================================================
  
 Nr of parallel processes:                               12
 Maximum vector length in NumInt loops:                 128

 IO buffersize (Mb):                                     64.000000



 =====================
 S C F   U P D A T E S
 =====================
  
 Max. nr. of cycles:                               250
 Convergence criterion:                              0.0000010000
   secondary criterion:                              0.0010000000

 Mix parameter (when DIIS does not apply):           0.2000000000
 Mixed ADIIS+DIIS will be used
    Max number of expansion vectors:                10
    Pure ADIIS when Max([F,P]) is above              0.1000000000
    Pure DIIS when Max([F,P]) is below               0.0010000000
 Automatic ElectronSmearing (in case of problematic SCF convergence) disabled



 =================
 P R E C I S I O N  ***  (General: NumInt, NeglectFunctionTails, ...)  ***
 =================
  

 NumInt:           Target precision:                 6.0000000000
 -------           Initial precision:                6.0000000000
                   Min. precision (optimization):    6.0000000000

 Neglect Functions:          Basis functions:        0.1000000000E-07
 ------------------          Fit functions:          0.1000000000E-07



 ===========================
 L I N E A R   S C A L I N G
 ===========================
  

 Cut-off radii density fit:                        0.1000000000E-09
 Overlap cut-off criterion AO matrix elements:     0.1000000000E-07
 Cut-offs for Coulomb potential and fitted density:0.1000000000E-09
 Cut-off criterion for Coulomb multipole terms:    0.1000000000E-09
 Progressive Convergence parameter:                 0.000000000    
1
 ***************************************************************************************************



                                            ***************************
                                            *  C O M P U T A T I O N  *
                                            ***************************
  

 Number of elements of the density matrix on this node (used, total):      2016      8646



 ===========================================
 Numerical Integration : Fuzzy Cells (Becke)
 ===========================================
  
 Becke grid quality: GOOD           
  
 Lebedev angular grid order:             min:  11 max:  31
 Nr. of radial points:                   min:  65 max:  90

 Total nr. of points:      50774
 Nr. of blocks:              397
 Block length:               128
 Nr. of dummy points:         42


 Test of Precision of the Numerical Integration Grid
 ===================================================

 Integral of the Total Core Density:                   0.00000000000000



 ========================
 Density Fitting (zlmFit)
 ========================
  
 ZlmFit Fit Quality: NORMAL         
  
 Max L-expansion:                        min:   7 max:   7
 Nr. of radial interpolation points:     min:  51 max:  72



 =====
 S C F  ***  ScaSCF  ***
 =====
  
 Initial density matrix is calculated as sum of fragments

 CYCLE    1
 SCF Error: norm([F,P])=      1.259293450970, max([F,P])=      0.871711945390
 orbitals (Q,E):
 ---------------
 A :22...41          ( 2.00    -0.6759)  ( 2.00    -0.3968)  ( 2.00    -0.2801)  ( 2.00    -0.2303)
                     ( 2.00    -0.2303)  ( 2.00    -0.1466)  ( 2.00    -0.1446)  ( 2.00    -0.1446)
                     ( 2.00     0.0167)  ( 2.00     0.0167)  ( 0.00     0.0626)  ( 0.00     0.1948)
                     ( 0.00     0.3003)  ( 0.00     0.3291)  ( 0.00     0.3291)  ( 0.00     0.3518)
                     ( 0.00     0.3656)  ( 0.00     0.3656)  ( 0.00     0.4005)  ( 0.00     0.4373)

 CYCLE    2
  SDIIS (wt  0.000):  0.3994  0.6006
 A-DIIS (wt  1.000):  0.8444  0.1556
  DIIS coefficients:  0.8444  0.1556
 SCF Error: norm([F,P])=      1.022923399215, max([F,P])=      0.343070342826
 orbitals (Q,E):
 ---------------
 A :22...32          ( 2.00    -0.5909)  ( 2.00    -0.4629)  ( 2.00    -0.2250)  ( 2.00    -0.1589)
                     ( 2.00    -0.1589)  ( 2.00    -0.1119)  ( 2.00    -0.1119)  ( 2.00    -0.1092)
                     ( 2.00    -0.0384)  ( 2.00    -0.0384)  ( 0.00     0.0208)

 CYCLE    3
  SDIIS (wt  0.000):  0.1355 -0.3057  1.1702
 A-DIIS (wt  1.000):  0.7559  0.0000  0.2441
  DIIS coefficients:  0.7559  0.0000  0.2441
 SCF Error: norm([F,P])=      0.550110150852, max([F,P])=      0.231719608293
 orbitals (Q,E):
 ---------------
 A :22...32          ( 2.00    -0.5751)  ( 2.00    -0.4703)  ( 2.00    -0.2374)  ( 2.00    -0.1633)
                     ( 2.00    -0.1633)  ( 2.00    -0.1239)  ( 2.00    -0.1239)  ( 2.00    -0.1089)
                     ( 2.00    -0.0470)  ( 2.00    -0.0470)  ( 0.00     0.0060)

 CYCLE    4
  SDIIS (wt  0.000): -0.9242  0.1281  1.7961
 A-DIIS (wt  1.000):  0.0000  0.8208  0.1792
  DIIS coefficients:  0.0000  0.8208  0.1792
 SCF Error: norm([F,P])=      0.590406698876, max([F,P])=      0.304385704847
 orbitals (Q,E):
 ---------------
 A :22...32          ( 2.00    -0.7073)  ( 2.00    -0.3194)  ( 2.00    -0.2705)  ( 2.00    -0.2705)
                     ( 2.00    -0.2617)  ( 2.00    -0.1338)  ( 2.00    -0.1338)  ( 2.00    -0.1126)
                     ( 2.00     0.1307)  ( 2.00     0.1307)  ( 0.00     0.1431)

 CYCLE    5
  SDIIS (wt  0.000): -0.2796  0.6982  0.3954  0.1860
 A-DIIS (wt  1.000):  0.0000  0.7634  0.0000  0.2366
  DIIS coefficients:  0.0000  0.7634  0.0000  0.2366
 SCF Error: norm([F,P])=      1.581473496759, max([F,P])=      0.484253793923
 orbitals (Q,E):
 ---------------
 A :22...32          ( 2.00    -0.5512)  ( 2.00    -0.4667)  ( 2.00    -0.2019)  ( 2.00    -0.1410)
                     ( 2.00    -0.1410)  ( 2.00    -0.0869)  ( 2.00    -0.0869)  ( 2.00    -0.0735)
                     ( 2.00    -0.0319)  ( 2.00    -0.0319)  ( 0.00     0.0284)

 CYCLE    6
  SDIIS (wt  0.000): -0.2053 -0.2316  0.9800 -0.0215  0.4784
 A-DIIS (wt  1.000):  0.0000  0.0000  0.4867  0.0000  0.5133
  DIIS coefficients:  0.0000  0.0000  0.4867  0.0000  0.5133
 SCF Error: norm([F,P])=      0.607706501318, max([F,P])=      0.230882479658
 orbitals (Q,E):
 ---------------
 A :22...32          ( 2.00    -0.5155)  ( 2.00    -0.5013)  ( 2.00    -0.2345)  ( 2.00    -0.1693)
                     ( 2.00    -0.1693)  ( 2.00    -0.0841)  ( 2.00    -0.0841)  ( 2.00    -0.0770)
                     ( 2.00    -0.0684)  ( 2.00    -0.0684)  ( 0.00    -0.0092)

 CYCLE    7
  SDIIS (wt  0.331): -0.1248  0.2092  0.0910 -0.0407  0.1271  0.7382
 A-DIIS (wt  0.669):  0.0000  0.0207  0.0000  0.0000  0.0000  0.9793
  DIIS coefficients: -0.0413  0.0831  0.0301 -0.0135  0.0421  0.8995
 SCF Error: norm([F,P])=      0.157408369481, max([F,P])=      0.067227521379
 orbitals (Q,E):
 ---------------
 A :22...32          ( 2.00    -0.5292)  ( 2.00    -0.4993)  ( 2.00    -0.2083)  ( 2.00    -0.1322)
                     ( 2.00    -0.1322)  ( 2.00    -0.0886)  ( 2.00    -0.0886)  ( 2.00    -0.0839)
                     ( 2.00    -0.0655)  ( 2.00    -0.0655)  ( 0.00     0.0049)

 CYCLE    8
  SDIIS (wt  0.000): -0.0326 -0.0514  0.1176 -0.0051  0.0373  0.6465  0.2876
 A-DIIS (wt  1.000):  0.0000  0.0000  0.0000  0.0000  0.0000  0.7529  0.2471
  DIIS coefficients:  0.0000  0.0000  0.0000  0.0000  0.0000  0.7529  0.2471
 SCF Error: norm([F,P])=      0.360948988812, max([F,P])=      0.145553236461
 orbitals (Q,E):
 ---------------
 A :22...32          ( 2.00    -0.5214)  ( 2.00    -0.5034)  ( 2.00    -0.2226)  ( 2.00    -0.1504)
                     ( 2.00    -0.1503)  ( 2.00    -0.0852)  ( 2.00    -0.0852)  ( 2.00    -0.0814)
                     ( 2.00    -0.0711)  ( 2.00    -0.0711)  ( 0.00    -0.0047)

 CYCLE    9
  SDIIS (wt  0.544):  0.0052  0.0008 -0.0142 -0.0010  0.0107  0.2764 -0.1345  0.8566
 A-DIIS (wt  0.456):  0.0000  0.0000  0.0000  0.0000  0.0000  0.4004  0.0000  0.5996
  DIIS coefficients:  0.0028  0.0005 -0.0077 -0.0006  0.0058  0.3329 -0.0732  0.7395
 SCF Error: norm([F,P])=      0.105791027629, max([F,P])=      0.046118055505
 orbitals (Q,E):
 ---------------
 A :22...32          ( 2.00    -0.5185)  ( 2.00    -0.5042)  ( 2.00    -0.2282)  ( 2.00    -0.1580)
                     ( 2.00    -0.1579)  ( 2.00    -0.0852)  ( 2.00    -0.0852)  ( 2.00    -0.0800)
                     ( 2.00    -0.0704)  ( 2.00    -0.0704)  ( 0.00    -0.0076)

 CYCLE   10
  SDIIS (wt  0.902): -0.0048 -0.0200  0.0349 -0.0010 -0.0019  0.1285 -0.0004  0.2756  0.5891
 A-DIIS (wt  0.098):  0.0000  0.0000  0.0000  0.0000  0.0000  0.0000  0.0000  0.1066  0.8934
  DIIS coefficients: -0.0043 -0.0180  0.0315 -0.0009 -0.0017  0.1159 -0.0004  0.2590  0.6190
 SCF Error: norm([F,P])=      0.021560681922, max([F,P])=      0.010718021598
 orbitals (Q,E):
 ---------------
 A :22...32          ( 2.00    -0.5188)  ( 2.00    -0.5037)  ( 2.00    -0.2284)  ( 2.00    -0.1583)
                     ( 2.00    -0.1583)  ( 2.00    -0.0847)  ( 2.00    -0.0847)  ( 2.00    -0.0801)
                     ( 2.00    -0.0710)  ( 2.00    -0.0710)  ( 0.00    -0.0076)

 CYCLE   11
  SDIIS (wt  0.984): -0.0006 -0.0008  0.0023 -0.0001 -0.0003  0.0564 -0.0192  0.1928  0.2571  0.5124
 A-DIIS (wt  0.016):  0.0000  0.0000  0.0000  0.0000  0.0000  0.0000  0.0000  0.0000  0.0740  0.9260
  DIIS coefficients: -0.0006 -0.0008  0.0023 -0.0001 -0.0003  0.0555 -0.0189  0.1898  0.2543  0.5188
 SCF Error: norm([F,P])=      0.006843585690, max([F,P])=      0.002544196064
 orbitals (Q,E):
 ---------------
 A :22...32          ( 2.00    -0.5188)  ( 2.00    -0.5039)  ( 2.00    -0.2280)  ( 2.00    -0.1578)
                     ( 2.00    -0.1578)  ( 2.00    -0.0848)  ( 2.00    -0.0848)  ( 2.00    -0.0802)
                     ( 2.00    -0.0709)  ( 2.00    -0.0709)  ( 0.00    -0.0075)

 CYCLE   12
  SDIIS (wt  1.000): -0.0003  0.0004  0.0000 -0.0002  0.0137 -0.0075  0.0603  0.0613  0.2102  0.6621
  DIIS coefficients: -0.0003  0.0004  0.0000 -0.0002  0.0137 -0.0075  0.0603  0.0613  0.2102  0.6621
 SCF Error: norm([F,P])=      0.000923450108, max([F,P])=      0.000479014934
 orbitals (Q,E):
 ---------------
 A :22...32          ( 2.00    -0.5188)  ( 2.00    -0.5038)  ( 2.00    -0.2280)  ( 2.00    -0.1578)
                     ( 2.00    -0.1578)  ( 2.00    -0.0848)  ( 2.00    -0.0848)  ( 2.00    -0.0802)
                     ( 2.00    -0.0709)  ( 2.00    -0.0709)  ( 0.00    -0.0074)

 CYCLE   13
  SDIIS (wt  1.000):  0.0000  0.0000 -0.0001  0.0015 -0.0013  0.0078  0.0049  0.0482  0.2430  0.6959
  DIIS coefficients:  0.0000  0.0000 -0.0001  0.0015 -0.0013  0.0078  0.0049  0.0482  0.2430  0.6959
 SCF Error: norm([F,P])=      0.000206222913, max([F,P])=      0.000076269376
 orbitals (Q,E):
 ---------------
 A :22...32          ( 2.00    -0.5188)  ( 2.00    -0.5038)  ( 2.00    -0.2280)  ( 2.00    -0.1578)
                     ( 2.00    -0.1578)  ( 2.00    -0.0848)  ( 2.00    -0.0848)  ( 2.00    -0.0802)
                     ( 2.00    -0.0709)  ( 2.00    -0.0709)  ( 0.00    -0.0075)

 CYCLE   14
  SDIIS (wt  1.000):  0.0000 -0.0000  0.0003 -0.0002  0.0011  0.0017  0.0091  0.0319  0.1854  0.7708
  DIIS coefficients:  0.0000 -0.0000  0.0003 -0.0002  0.0011  0.0017  0.0091  0.0319  0.1854  0.7708
 SCF Error: norm([F,P])=      0.000043371065, max([F,P])=      0.000019645718
 orbitals (Q,E):
 ---------------
 A :22...32          ( 2.00    -0.5188)  ( 2.00    -0.5038)  ( 2.00    -0.2280)  ( 2.00    -0.1578)
                     ( 2.00    -0.1578)  ( 2.00    -0.0848)  ( 2.00    -0.0848)  ( 2.00    -0.0802)
                     ( 2.00    -0.0709)  ( 2.00    -0.0709)  ( 0.00    -0.0075)

 CYCLE   15
  SDIIS (wt  1.000): -0.0000  0.0000 -0.0000  0.0001  0.0006  0.0015  0.0053  0.0347  0.2561  0.7017
  DIIS coefficients: -0.0000  0.0000 -0.0000  0.0001  0.0006  0.0015  0.0053  0.0347  0.2561  0.7017
 SCF Error: norm([F,P])=      0.000007263934, max([F,P])=      0.000003972280
 orbitals (Q,E):
 ---------------
 A :22...32          ( 2.00    -0.5188)  ( 2.00    -0.5038)  ( 2.00    -0.2280)  ( 2.00    -0.1578)
                     ( 2.00    -0.1578)  ( 2.00    -0.0848)  ( 2.00    -0.0848)  ( 2.00    -0.0802)
                     ( 2.00    -0.0709)  ( 2.00    -0.0709)  ( 0.00    -0.0075)

 CYCLE   16
  SDIIS (wt  1.000):  0.0000  0.0000 -0.0000  0.0002  0.0005  0.0016  0.0114  0.0987  0.3174  0.5702
  DIIS coefficients:  0.0000  0.0000 -0.0000  0.0002  0.0005  0.0016  0.0114  0.0987  0.3174  0.5702
 SCF Error: norm([F,P])=      0.000000962048, max([F,P])=      0.000000394605
 orbitals (Q,E):
 ---------------
 A :22...32          ( 2.00    -0.5188)  ( 2.00    -0.5038)  ( 2.00    -0.2280)  ( 2.00    -0.1578)
                     ( 2.00    -0.1578)  ( 2.00    -0.0848)  ( 2.00    -0.0848)  ( 2.00    -0.0802)
                     ( 2.00    -0.0709)  ( 2.00    -0.0709)  ( 0.00    -0.0075)

 SCF CONVERGED

 CYCLE   17
1
 ***************************************************************************************************



                                                *******************
                                                *  R E S U L T S  *
                                                *******************
  
 *** Setting up for NEW gradients in Focky
 *** Using FIT density in Focky

 Orbital Energies, per Irrep and Spin:
 ======================================
                        Occup              E (au)              E (eV)       Diff (eV) with prev. cycle
                        -----      --------------------        ------       --------------------------
 A
              22        2.000     -0.51881872548817E+00       -14.118               1.12E-07
              23        2.000     -0.50382496874543E+00       -13.710               4.33E-07
              24        2.000     -0.22802093215460E+00        -6.205               1.67E-07
              25        2.000     -0.15780970491700E+00        -4.294               1.67E-07
              26        2.000     -0.15780687705319E+00        -4.294               1.67E-07
              27        2.000     -0.84805701934792E-01        -2.308               3.64E-07
              28        2.000     -0.84804339752498E-01        -2.308               3.64E-07
              29        2.000     -0.80159230511316E-01        -2.181               1.67E-07
              30        2.000     -0.70913440536562E-01        -1.930               6.56E-08
              31        2.000     -0.70912583183430E-01        -1.930               6.57E-08
              32        0.000     -0.74537595859583E-02        -0.203
              33        0.000      0.20323764239781E+00         5.530
              34        0.000      0.29771003867104E+00         8.101
              35        0.000      0.29988060005260E+00         8.160
              36        0.000      0.29990067425795E+00         8.161
              37        0.000      0.38643331134675E+00        10.515
              38        0.000      0.42314747459164E+00        11.514
              39        0.000      0.42315218495068E+00        11.515
              40        0.000      0.44964518226856E+00        12.235
              41        0.000      0.44964895151013E+00        12.236
  
 HOMO :       31 A                -0.70912583183430E-01
 LUMO :       32 A                -0.74537595859583E-02
  


 All Electron Calculation, thus no Orbital Energies of the Core Orbitals are calculated


 Fit test: (difference of exact and fit density, squared integrated, result summed over spins)
         Sum-of-Fragments:                             0.00085368895065
         Orthogonalized Fragments:                     0.00086939106483
         SCF:                                          0.00086656765482



 ==========================
 Electron Density at Nuclei
 ==========================
  
 The electron density is calculated at points on a small sphere around the center of a nucleus.
 The printed electron density is the average electron density on these points.
 The radius of the sphere is the printed approximate finite nuclear radius.

         Atom        Nuclear Radius (Angstrom)             Electron Density (a.u.)
         ----        -------------------------             -----------------------
     1)   F                 0.0000361580                              448.26074
     2)   Cl                0.0000426624                             3210.78860
     3)   Br                0.0000536685                            29313.74626



 =======================================
 M U L L I K E N   P O P U L A T I O N S
 =======================================
  
 The survey below gives for each atom:
 a) the total charge (Z minus electrons)
 b) the net spin polarization (nr of electrons spin-A minus spin-B)
 c) for each spin the atomic electron valence density (integrated) per L-value.

 Atom              Charge    Spin density          S         P         D         F
 ----              ------    ------------       ------    ------    ------    ------
 1 F              -0.2564                       3.9408    5.2952    0.0190    0.0014
 2 Cl             -0.4192                       5.9908   11.4064    0.0169    0.0051
 3 Br             -0.3244                       7.9924   17.2727   10.0462    0.0131

 Populations of individual BAS functions
 ----------------------------------------
 1 F            0.5755  1.4004  1.1241  0.8803 -0.0395  0.3813  0.3012  0.4185  0.9572  0.8206
                1.0207  0.4839  0.3795  0.5324 -0.0013  0.0077  0.0008  0.0168  0.0026 -0.0076
               -0.0012 -0.0020  0.0003  0.0041  0.0001 -0.0023  0.0062  0.0046 -0.0037 -0.0048
 2 Cl           0.5055  1.4529  1.7135  0.2515  0.7269  0.7226  0.7289  1.2711  1.2766  1.2684
                0.6158  1.0342  0.4174  0.2884  0.2383  0.3120  1.0144  0.8774  1.0789  0.5545
                0.4395  0.6085 -0.0002  0.0062  0.0009  0.0119  0.0029 -0.0047 -0.0015 -0.0009
                0.0003  0.0056  0.0006 -0.0023  0.0070  0.0049 -0.0041 -0.0045
 3 Br           0.3611  1.5681  2.0732  0.7131  0.7127  0.7133  1.2649  1.2656  1.2645  1.4384
                0.5932  1.1372  1.1290  1.1409  0.8911  0.8980  0.8880  0.2677  0.4015  0.4017
                0.2676  0.4015  0.2678  0.7771  1.1649  1.1658  0.7756  1.1651  0.7778  0.2880
                0.4340  0.4325  0.2926  0.4334  0.2860  0.2735  1.2276  0.4572  0.5879  0.4786
                0.6382  0.9404  0.7551  1.0258  0.2901  0.2125  0.3259  0.0033  0.0144  0.0032
                0.0175  0.0096 -0.0025 -0.0021 -0.0000  0.0004  0.0092  0.0018 -0.0030  0.0105
                0.0075 -0.0053 -0.0059

 Gross Charges per Atom (Z minus electrons)
 ==========================================
            -0.2564   -0.4192   -0.3244
 Net Total: -1.00000000


 Atom-Atom Population Matrix (off-diagonal elements not doubled)
 ===============================================================

     1 :     9.3295
     2 :    -0.0527   17.4308
     3 :    -0.0204    0.0411   35.3037


 Frag-Frag Population Matrix (off-diagonal elements not doubled)
 ===============================================================

     1 :    26.6549
     2 :     0.0207   35.3037



 =================================================
 H I R S H F E L D   C H A R G E   A N A L Y S I S
 =================================================
  
 For each fragment: the (numerical) integral of rho(scf) * rho(fragment)/rho(sum-of-fragments)
 (nuclear charges are included, electrons are counted negative)

 The fragments and their ordering are defined in the early G E O M E T R Y output section.
 If you use single-atom fragments, this usually implies that all atoms of the same
 chemical type are grouped together. This may not be the order in which you listed them
 in the input file!

    1  FCl                      -0.5604
    2  Br                       -0.4396

 Sum of these charges (accuracy NumInt/Tails) =          -1.00000172



 =============================
 V O R O N O I   C H A R G E S
 =============================
  
 For each atom: the (numerical) integral of the total electronic charge density in its Voronoi cell,
 i.e. the region of space that is closer to that atom than to any other atom.
 (cf. Wigner-Seitz cells in crystals)

 Within the Voronoi cell the subintegrals over the atomic sphere and the remaining part are evaluated
 separately to give the numbers of electrons (negative charge) in these regions.
 The net total charge in the cell (including the nuclear charge) is also given.

 Values are provided for
    a) the Initial (sum-of-fragments) density
    b) the Orthogonalized-Fragments density
    c) the SCF density
    d) the Voronoi Deformation Density (VDD): the difference SCF-Initial for the complete atomic cell
 ---------------------------------------------------------------------------------------------------
 Total NetCharge:              -1.000                     -1.000                     -1.000   -0.000
 (accuracy NumInt/Tails)

 Remark: the 'NetTotal' Voronoi charges often do not match the Mulliken and/or Hirshfeld charges very
 well. This is caused by the fact that chemically different atoms are not treated in accordance with
 their relative sizes. (Voronoi cells are defined by boundary planes halfway between the atoms.)
 However, the CHANGES in charge, comparing 'Initial' to 'SCF' for instance, do give a fair indication
 of the flow of charge caused by the relaxation from sum-of-fragments to self-consistency.

 Warning: the absolute accuracy of the VDD charges obtained using the Fuzzy Cells (Becke) integration
 scheme is much poorer than the one obtained with an 'equivalent' Voronoi integration grid. 



 =================================================================
 M U L T I P O L E   D E R I V E D   C H A R G E   A N A L Y S I S
 =================================================================

 This charge analysis uses the atomic multipoles (obtained from the fitted density) up to some level X,
 and reconstructs these multipoles exactly (up to level X) by distributing charges over all atoms.
 This is achieved by using Lagrange multipliers and a weight function to keep the multipoles local.

 Dummy atoms can be included (by setting INCDUM in MDC-block to 1) to obtain a fractional charge.
 This is generally useful and necessary only for small symmetrical molecules, when there are not
 enough degrees of freedom to reconstruct the multipoles.

 Since the atomic multipoles are reconstructed up to level X,
 the molecular multipoles are represented also up to level X.
 The recommended level is to reconstruct up to quadrupole : -> MDC-q charges.

 See: M. Swart, P.Th. van Duijnen, J.G. Snijders, J.Comput.Chem., (2001), p. 79-88.

 ------------------------------------------------------------- 
 Atomic electronic multipole moments from SCF equations (a.u.)
 ------------------------------------------------------------- 

   atom        charge        dip-x     dip-y     dip-z      quad-xx   quad-xy   quad-xz   quad-yy   quad-yz   quad-zz
 --------------------------------------------------------------------------------------------------------------------
    1 F     -0.810572     0.091057 -0.162064  0.012899     0.042485  0.132925 -0.010858 -0.195683  0.019164  0.153198
    2 Cl    -0.200054    -0.341207  0.599621 -0.050107    -0.255544 -0.811418  0.067888  1.189096 -0.119255 -0.933552
    3 Br     0.010626     0.526249 -0.929262  0.076205    -0.382565 -1.182913  0.096720  1.748310 -0.170847 -1.365744

 --------------------------------------- 
 Multipole derived atomic charges (a.u.)
 --------------------------------------- 

 The MDC-m charges are just the Monopole terms in the multipole expansion, while for the MDC-d charges
 also the Dipoles are reconstructed. The usually preferred charges are the MDC-q charges.
 These reconstruct the Monopoles, Dipoles and Quadrupoles (both atomic AND molecular).

        Atom    Level:     MDC-m        MDC-d        MDC-q
 ---------------------------------------------------------
     1     F           -0.810572    -0.265175    -0.080359
     2     Cl          -0.200054    -0.402246    -0.488892
     3     Br           0.010626    -0.332579    -0.430749

 ------------------------------------------------ 
 Average absolute deviations in atomic multipoles
 ------------------------------------------------ 

 Stated here are the average differences between the atomic multipoles
 and the reconstructed atomic multipoles (from the distributed charges).
 If these values are not zero, this means there are not enough degrees of freedom,
 to be able to reconstruct the atomic multipoles. (This usually happens only
 for small and/or highly symmetric molecules). If this is the case, one could add
 dummy atoms as extra point charges (and setting INCDUM in MDC-block to 1).

 Level:                                 MDC-d        MDC-q
 ---------------------------------------------------------
 Charge   (a.u.)                       0.0000       0.0000
 Dipole   (Debye)                      0.0001       0.0173
 Quad.    (a.u.)                       0.8187       0.2067

 --------------------------------------- 
 Represented molecular multipole moments
 --------------------------------------- 

 Given here are the Molecular multipole moments from the atomic charges, and from the Fit Density.
 Note that the atomic charges represent the latter, NOT the ones from the Exact density.

            Q (a.u.)             Dipole moment (Debye)                                          Quadrupole moment (a.u.)
                                 x         y         z              xx        xy        xz        yy        yz        zz
------------------------------------------------------------------------------------------------------------------------
MDC-m        -1.0000       22.5955  -13.0077    0.0680        -65.6022   69.8165   -0.4884   11.7862    0.4368   53.8161
MDC-d        -1.0000       23.2974  -14.2575    0.1670        -66.6156   84.9437   -1.5502    2.8708    1.6925   63.7448
MDC-q        -1.0000       23.3496  -14.3540    0.1735        -66.3543   87.6343   -1.7523    0.6750    2.0082   65.6793
 
Fit.Dens.    -1.0000       23.2973  -14.2575    0.1671        -66.4871   86.4782   -1.6781    2.2788    1.9170   64.2083



 =============
 Dipole Moment  ***  (Debye)  ***
 =============
  
 Vector   :        23.30279641    -14.26728770      0.16783970
 Magnitude:        27.32405513

 This molecular dipole moment is calculated with analytic integration
 ************************************************************************************
 Since the molecule is NOT NEUTRAL, the dipole moment depends on the choice of origin
 ************************************************************************************



 =========================================
 Quadrupole Moment (Buckingham convention)  ***  (a.u.)  ***
 =========================================
  
      quad-xx        quad-xy        quad-xz        quad-yy        quad-yz        quad-zz
    -66.50309133    85.62850583    -1.60648800     2.24592692     1.78623923    64.25716441

 This molecular quadrupole moment is calculated with analytic integration
1



                                             *************************
                                             *  SFO MO coefficients  *
                                             *************************
  


                                       === A ===
 MOs expanded in CFs+SFOs
 ========================

 The SFOs have been characterized in an earlier part of output.
 To deduce the bonding / antibonding nature of SFO combinations in an MO, consider the products
 of the coefficients AND THE OVERLAP between the SFOs (may be NEGATIVE). The SFO overlap matrix
 is printed later, in the SFO Populations section.

 (The CF coefficients are not printed)

 MOs :      1        2        3        4        5        6        7        8        9       10
 occup:   2.00     2.00     2.00     2.00     2.00     2.00     2.00     2.00     2.00     2.00
 CF+SFO
     1   0.0000  -1.0000   0.0000   0.0000   0.0000   0.0000  -0.0000   0.0001   0.0000  -0.0000
     2   0.0000   0.0000   0.0000   0.0000   0.0000   0.0000   1.0000   0.0000   0.0005  -0.0000
     3  -0.0000  -0.0001  -0.0000  -0.0000  -0.0000  -0.0000   0.0000  -1.0000  -0.0000   0.0022
     4   0.0000   0.0000   0.0000   0.0000   0.0000   0.0000  -0.0000  -0.0022   0.0000  -1.0000
     5   0.0000   0.0000   0.0000   0.0000   0.0000  -0.0000  -0.0000  -0.0000   0.0000   0.0002
     6   0.0000   0.0000   0.0000   0.0000   0.0000   0.0000  -0.0000  -0.0000   0.0000   0.0003
     7  -0.0000  -0.0000   0.0000  -0.0000  -0.0000  -0.0000   0.0002  -0.0003  -0.0045   0.0002
     8  -0.0000  -0.0000   0.0000  -0.0000  -0.0000  -0.0000   0.0000  -0.0004  -0.0003  -0.0000
     9  -0.0000  -0.0000   0.0000  -0.0000  -0.0000  -0.0000  -0.0001  -0.0001  -0.0020   0.0003
    10  -0.0000  -0.0000   0.0000  -0.0000   0.0000   0.0000   0.0000  -0.0000  -0.0000   0.0000
    11   0.0000   0.0000  -0.0000  -0.0000   0.0000  -0.0000   0.0000   0.0000   0.0000   0.0000
    12  -0.0000  -0.0000   0.0000  -0.0000   0.0000   0.0000   0.0000  -0.0000  -0.0000   0.0000
    13  -0.0000  -0.0000   0.0000  -0.0000  -0.0000   0.0000   0.0000  -0.0000  -0.0000   0.0000
    14  -0.0000   0.0000   0.0000  -0.0000  -0.0000  -0.0000  -0.0001  -0.0001  -0.0020   0.0000
    15  -0.0000  -0.0000  -0.0000  -0.0000  -0.0000  -0.0000   0.0001  -0.0007  -0.0065   0.0003
    16  -0.0000  -0.0000  -0.0000  -0.0000  -0.0000  -0.0000   0.0001  -0.0001  -0.0023   0.0002
    17  -0.0000  -0.0000  -0.0000  -0.0000  -0.0000   0.0000   0.0000  -0.0000  -0.0000   0.0000
    18  -0.0000  -0.0000  -0.0000  -0.0000  -0.0000  -0.0000   0.0000  -0.0000  -0.0000   0.0000
    19   0.0000  -0.0000  -0.0000   0.0000   0.0000   0.0000  -0.0000  -0.0002   0.0016  -0.0000
    20   0.0000   0.0000   0.0000   0.0000   0.0000   0.0000  -0.0000   0.0000   0.0000  -0.0000
    21   0.0000   0.0000   0.0000   0.0000  -0.0000   0.0000  -0.0000  -0.0000   0.0000  -0.0000
    22   0.0000   0.0000  -0.0000   0.0000  -0.0000   0.0000  -0.0000   0.0000   0.0000   0.0000
    23  -0.0000   0.0000   0.0000  -0.0000   0.0000   0.0000   0.0000  -0.0000  -0.0000  -0.0000
    24  -0.0000   0.0000   0.0000  -0.0000  -0.0000  -0.0000   0.0001  -0.0003  -0.0015   0.0002
    25   0.0000   0.0000  -0.0000   0.0000  -0.0000   0.0000  -0.0000   0.0000   0.0000  -0.0000
    26  -0.0000  -0.0000   0.0000  -0.0000   0.0000   0.0000   0.0000  -0.0000  -0.0000   0.0000
    27  -0.0000  -0.0000   0.0000  -0.0000  -0.0000  -0.0000   0.0002  -0.0002  -0.0021   0.0002
    28   0.0000   0.0000  -0.0000   0.0000  -0.0000  -0.0000  -0.0000   0.0000   0.0000  -0.0000
    29  -0.0000  -0.0000   0.0000  -0.0000  -0.0000  -0.0000   0.0000  -0.0000  -0.0000   0.0000
    30  -0.0000   0.0000  -0.0000  -0.0000  -0.0000  -0.0000  -0.0000   0.0000   0.0000   0.0000
    31   0.0000   0.0000  -0.0000   0.0000  -0.0000  -0.0000  -0.0000  -0.0000   0.0000  -0.0000
    32  -0.0000   0.0000  -0.0000   0.0000  -0.0000   0.0000   0.0000   0.0000  -0.0000   0.0000
    33   0.0000   0.0000  -0.0000   0.0000  -0.0000  -0.0000   0.0000   0.0000   0.0000   0.0000
    34  -0.0000  -0.0000   0.0000  -0.0000  -0.0000   0.0000  -0.0001  -0.0001  -0.0000  -0.0001
    35   0.0000  -0.0000   0.0000   0.0000  -0.0000  -0.0000   0.0000   0.0000  -0.0000   0.0000
    36  -0.0000  -0.0000   0.0000   0.0000   0.0000   0.0000   0.0000   0.0000  -0.0000  -0.0000
    37   0.0000  -0.0000   0.0000  -0.0000   0.0000   0.0000   0.0000  -0.0001   0.0008   0.0002
    38  -0.0000   0.0000  -0.0000   0.0000   0.0000   0.0000  -0.0000   0.0000  -0.0000  -0.0000
    39   0.0000  -0.0000   0.0000  -0.0000  -0.0000   0.0000   0.0000  -0.0000   0.0000   0.0000
    40  -0.0000  -0.0000   0.0000  -0.0000  -0.0000  -0.0000  -0.0001  -0.0001  -0.0009   0.0004
    41  -0.0000  -0.0000  -0.0000   0.0000  -0.0000   0.0000  -0.0000  -0.0000  -0.0000  -0.0000
    42  -0.0000  -0.0000  -0.0000   0.0000  -0.0000  -0.0000  -0.0000  -0.0000  -0.0000  -0.0000
    43  -0.0000  -0.0000  -0.0000   0.0000   0.0000   0.0000  -0.0000  -0.0007  -0.0004  -0.0001
    44   0.0000   0.0000   0.0000  -0.0000  -0.0000   0.0000  -0.0000   0.0002   0.0002  -0.0004
    45  -0.0000  -0.0000  -0.0000   0.0000  -0.0000  -0.0000  -0.0000  -0.0000  -0.0000   0.0000
    46  -0.0000   0.0000  -0.0000   0.0000   0.0000  -0.0000  -0.0000   0.0000  -0.0000  -0.0000
    47   0.0000  -0.0000   0.0000   0.0000  -0.0000   0.0000   0.0000  -0.0000  -0.0000   0.0000
    48  -0.0000  -0.0000  -0.0000  -0.0000   0.0000   0.0000  -0.0000  -0.0000   0.0000   0.0000
    49  -0.0000  -0.0000  -0.0000   0.0000   0.0000  -0.0000  -0.0000  -0.0000  -0.0000  -0.0000
    50   0.0000   0.0000   0.0000  -0.0000  -0.0000  -0.0000   0.0000  -0.0000   0.0000   0.0000
    51  -0.0000   0.0000  -0.0000   0.0000  -0.0000  -0.0000  -0.0000   0.0000  -0.0002  -0.0001
    52  -0.0000  -0.0000  -0.0000  -0.0000   0.0000  -0.0000   0.0000  -0.0000  -0.0000   0.0000
    53  -0.0000  -0.0000  -0.0000  -0.0000  -0.0000  -0.0000   0.0000  -0.0000  -0.0000   0.0000
    54   0.0000  -0.0000   0.0000   0.0000   0.0000   0.0000   0.0003  -0.0000   0.0001  -0.0000
    55  -0.0000   0.0001  -0.0000   0.0000   0.0000   0.0000   0.0000   0.0002  -0.0001  -0.0000
    56   0.0000  -0.0000   0.0000  -0.0000  -0.0000   0.0000   0.0000  -0.0000   0.0000  -0.0000
    57   0.0000   0.0000   0.0000  -0.0000   0.0000   0.0000   0.0000   0.0000   0.0000  -0.0000
    58   0.0000  -0.0000   0.0000   0.0000   0.0000   0.0000  -0.0000  -0.0001   0.0000  -0.0004
    59  -0.0000  -0.0000   0.0000  -0.0000  -0.0000  -0.0000   0.0002  -0.0000  -0.0000   0.0000
    60  -0.0000  -0.0001  -0.0000   0.0000   0.0000   0.0000   0.0000   0.0000  -0.0000   0.0000
    61  -1.0000   0.0000  -0.0000   0.0000  -0.0000  -0.0000  -0.0000   0.0000   0.0000  -0.0000
    62   0.0000   0.0000  -1.0000   0.0004  -0.0000  -0.0000  -0.0000   0.0000   0.0001  -0.0000
    63  -0.0000   0.0000  -0.0000  -0.0757  -0.3373  -0.9383  -0.0000   0.0000   0.0000  -0.0000
    64  -0.0000   0.0000  -0.0004  -0.9928   0.1131   0.0395  -0.0000   0.0000   0.0000  -0.0000
    65  -0.0000   0.0000  -0.0000  -0.0928  -0.9346   0.3435  -0.0000   0.0000   0.0000  -0.0000
    66   0.0000  -0.0000  -0.0001   0.0000  -0.0000  -0.0000   0.0000  -0.0001   0.9991   0.0001
    67   0.0000   0.0000  -0.0000  -0.0000  -0.0000   0.0000  -0.0000   0.0000  -0.0003  -0.0000
    68   0.0000   0.0000  -0.0000  -0.0000   0.0000   0.0000  -0.0000   0.0000  -0.0020  -0.0000
    69   0.0000   0.0000  -0.0000  -0.0000  -0.0000  -0.0000  -0.0000   0.0000  -0.0001  -0.0000
    70  -0.0000   0.0000   0.0000   0.0000   0.0000  -0.0000   0.0000  -0.0000   0.0005   0.0000
    71   0.0000  -0.0000  -0.0000  -0.0000   0.0000  -0.0000  -0.0000   0.0000  -0.0008  -0.0000
    72   0.0000  -0.0000  -0.0000  -0.0000  -0.0000   0.0000  -0.0000   0.0000  -0.0000  -0.0000
    73   0.0000  -0.0000  -0.0000  -0.0000  -0.0000  -0.0000  -0.0000   0.0000  -0.0005  -0.0000
    74  -0.0000   0.0000   0.0000   0.0000   0.0000  -0.0000   0.0000  -0.0000   0.0009   0.0000
    75   0.0000   0.0000  -0.0000   0.0000   0.0000  -0.0000  -0.0001   0.0005   0.0048  -0.0004
    76  -0.0000  -0.0000   0.0000  -0.0000   0.0000  -0.0000   0.0001  -0.0003  -0.0041   0.0003
    77   0.0000   0.0000  -0.0000   0.0000   0.0000  -0.0000  -0.0000   0.0001   0.0016  -0.0001
    78  -0.0000  -0.0000   0.0000  -0.0000   0.0000   0.0000   0.0000  -0.0000  -0.0001   0.0000
    79   0.0000   0.0000   0.0000   0.0000   0.0000   0.0000  -0.0000   0.0001   0.0017  -0.0000
    80   0.0000   0.0000   0.0000   0.0000  -0.0000   0.0000  -0.0000   0.0002   0.0028  -0.0001
    81   0.0000   0.0000   0.0000   0.0000   0.0000  -0.0000  -0.0000   0.0001   0.0009  -0.0000
    82  -0.0000  -0.0000  -0.0000  -0.0000  -0.0000  -0.0000   0.0001  -0.0006  -0.0041   0.0003
    83   0.0000  -0.0000  -0.0000   0.0000   0.0000  -0.0000  -0.0000   0.0000   0.0002  -0.0000
    84   0.0000  -0.0000  -0.0000   0.0000   0.0000  -0.0000  -0.0000   0.0000   0.0003  -0.0000
    85   0.0000  -0.0000  -0.0000   0.0000  -0.0000   0.0000  -0.0001   0.0000   0.0014  -0.0001
    86   0.0000  -0.0000  -0.0000   0.0000   0.0000   0.0000  -0.0000   0.0000   0.0007  -0.0001
    87   0.0000  -0.0000  -0.0000   0.0000   0.0000  -0.0000  -0.0001   0.0000   0.0015  -0.0001
    88   0.0000  -0.0000  -0.0000   0.0000  -0.0000   0.0000  -0.0000  -0.0000   0.0000  -0.0000
    89  -0.0000   0.0000   0.0000  -0.0000  -0.0000  -0.0000   0.0001   0.0000  -0.0008   0.0000
    90  -0.0000   0.0000   0.0000  -0.0000  -0.0000   0.0000   0.0000   0.0000  -0.0000   0.0000
    91  -0.0000   0.0000   0.0000  -0.0000   0.0000   0.0000   0.0000   0.0000  -0.0001   0.0000
    92   0.0000  -0.0000  -0.0000   0.0000  -0.0000  -0.0000  -0.0000  -0.0000   0.0002  -0.0000
    93  -0.0000   0.0000   0.0000  -0.0000  -0.0000  -0.0000   0.0000   0.0000  -0.0000   0.0000
    94  -0.0000   0.0000   0.0000  -0.0000   0.0000   0.0000   0.0000   0.0000  -0.0001   0.0000
    95  -0.0000  -0.0000   0.0000   0.0000   0.0000  -0.0000   0.0000  -0.0000  -0.0004   0.0001
    96  -0.0000  -0.0000   0.0000   0.0000  -0.0000   0.0000   0.0000  -0.0000  -0.0006   0.0001
    97  -0.0000  -0.0000   0.0000   0.0000   0.0000   0.0000   0.0000  -0.0000  -0.0003   0.0000
    98   0.0000   0.0000  -0.0000   0.0000  -0.0000  -0.0000  -0.0000   0.0001   0.0010   0.0000
    99   0.0000  -0.0000  -0.0000  -0.0000   0.0000  -0.0000  -0.0000   0.0000   0.0003  -0.0000
   100  -0.0000   0.0000   0.0000   0.0000   0.0000   0.0000   0.0000  -0.0000  -0.0000   0.0000
   101  -0.0000   0.0000   0.0000   0.0000   0.0000   0.0000   0.0000  -0.0000  -0.0007   0.0000
   102   0.0000  -0.0000  -0.0000  -0.0000   0.0000   0.0000  -0.0000   0.0000   0.0002  -0.0000
   103   0.0000  -0.0000  -0.0000  -0.0000  -0.0000   0.0000  -0.0000   0.0000   0.0000  -0.0000
   104   0.0000  -0.0000  -0.0000   0.0000  -0.0000   0.0000   0.0000  -0.0000   0.0000   0.0000
   105   0.0000  -0.0000  -0.0000   0.0000   0.0000   0.0000   0.0000  -0.0000   0.0000   0.0000
   106   0.0000  -0.0000  -0.0000   0.0000   0.0000  -0.0000   0.0000  -0.0000   0.0000   0.0000
   107   0.0000  -0.0000  -0.0001   0.0000  -0.0000  -0.0000   0.0000  -0.0000  -0.0002   0.0000
   108   0.0000  -0.0000   0.0000   0.0000   0.0000  -0.0000  -0.0000   0.0000  -0.0000  -0.0000
   109   0.0000  -0.0000   0.0000   0.0000  -0.0000   0.0000  -0.0000   0.0000  -0.0000  -0.0000
   110  -0.0000   0.0000  -0.0000  -0.0000  -0.0000  -0.0000   0.0000  -0.0000   0.0000   0.0000
   111   0.0000  -0.0000   0.0000   0.0000  -0.0000   0.0000  -0.0000   0.0000  -0.0000  -0.0000
   112   0.0000  -0.0000   0.0000   0.0000   0.0000   0.0000  -0.0000   0.0000  -0.0000  -0.0000
   113  -0.0000  -0.0000   0.0000   0.0000   0.0000   0.0001   0.0000  -0.0000  -0.0000   0.0000
   114   0.0000  -0.0000  -0.0000  -0.0000  -0.0000   0.0000  -0.0000   0.0000   0.0000  -0.0000
   115  -0.0000   0.0000   0.0000   0.0001  -0.0000   0.0000   0.0000  -0.0000  -0.0000   0.0000
   116  -0.0001  -0.0000   0.0000  -0.0000   0.0000   0.0000   0.0000  -0.0000  -0.0000   0.0000

 MOs :     11       12       13       14       15       16       17       18       19       20
 occup:   2.00     2.00     2.00     2.00     2.00     2.00     2.00     2.00     2.00     2.00
 CF+SFO
     1   0.0000  -0.0000   0.0000  -0.0000  -0.0000  -0.0000   0.0000   0.0000  -0.0000   0.0000
     2  -0.0000   0.0000  -0.0001  -0.0000   0.0000  -0.0000   0.0000   0.0000  -0.0000   0.0000
     3  -0.0000   0.0000  -0.0000   0.0000   0.0000   0.0000  -0.0000  -0.0000   0.0000  -0.0000
     4   0.0002  -0.0003   0.0000  -0.0000   0.0000  -0.0000   0.0000   0.0000  -0.0000   0.0000
     5   0.9985  -0.0545   0.0000   0.0000  -0.0000  -0.0000  -0.0000   0.0000   0.0000   0.0000
     6  -0.0545  -0.9985   0.0000  -0.0000  -0.0000  -0.0000  -0.0000  -0.0000   0.0000   0.0000
     7   0.0000  -0.0000   0.0006   0.0000  -0.0000   0.0016   0.0000  -0.0000  -0.0000  -0.0000
     8   0.0000   0.0000   0.0001   0.0000  -0.0000   0.0002   0.0000   0.0000  -0.0000  -0.0000
     9  -0.0000   0.0000   0.0005   0.0000  -0.0000   0.0011   0.0000  -0.0000  -0.0000  -0.0000
    10  -0.0000   0.0000   0.0000   0.0000  -0.0000   0.0000   0.0002   0.0001   0.0000  -0.0000
    11  -0.0000  -0.0000  -0.0000   0.0000   0.0000  -0.0000   0.0001  -0.0002  -0.0000   0.0000
    12   0.0001  -0.0001   0.0000   0.0000  -0.0000   0.0000   0.0001   0.0000   0.0000   0.0000
    13  -0.0001  -0.0001   0.0000  -0.0000  -0.0000   0.0000  -0.0000   0.0001   0.0000  -0.0000
    14   0.0000  -0.0000   0.0004   0.0000  -0.0000   0.0008   0.0000  -0.0000  -0.0000  -0.0000
    15   0.0000  -0.0000   0.0004   0.0000  -0.0000   0.0007  -0.0000  -0.0000   0.0000  -0.0000
    16   0.0000  -0.0000   0.0002   0.0000  -0.0000   0.0002  -0.0000  -0.0000   0.0000  -0.0000
    17   0.0000  -0.0000   0.0000  -0.0000   0.0000   0.0000   0.0000   0.0000  -0.0000  -0.0000
    18  -0.0000  -0.0000   0.0000   0.0000   0.0000   0.0000  -0.0000   0.0000   0.0000   0.0000
    19   0.0000   0.0000  -0.0002  -0.0000   0.0000  -0.0002   0.0000   0.0000   0.0000   0.0000
    20  -0.0001   0.0001  -0.0000   0.0000  -0.0000  -0.0000  -0.0000  -0.0000   0.0000   0.0000
    21   0.0001   0.0001  -0.0000  -0.0000  -0.0000  -0.0000   0.0000  -0.0000  -0.0000  -0.0000
    22   0.0000  -0.0000  -0.0000  -0.0000   0.0000  -0.0000   0.0000  -0.0000   0.0000   0.0000
    23   0.0000   0.0000   0.0000  -0.0000  -0.0000   0.0000  -0.0000  -0.0000  -0.0000   0.0000
    24   0.0000  -0.0000   0.0003   0.0000  -0.0000   0.0002  -0.0000  -0.0000  -0.0000  -0.0000
    25   0.0000  -0.0000  -0.0000  -0.0000   0.0001  -0.0000  -0.0002  -0.0000  -0.0000  -0.0000
    26   0.0000   0.0000   0.0000  -0.0001  -0.0000   0.0000  -0.0000   0.0002   0.0000  -0.0000
    27  -0.0000   0.0000   0.0007   0.0000   0.0000   0.0008  -0.0000  -0.0000  -0.0000  -0.0000
    28   0.0000  -0.0000  -0.0000  -0.0000   0.0001  -0.0000  -0.0002  -0.0000  -0.0000  -0.0000
    29   0.0000   0.0000   0.0000  -0.0001  -0.0000   0.0000  -0.0000   0.0002   0.0000  -0.0000
    30  -0.0000   0.0000   0.0000  -0.0000   0.0000  -0.0000  -0.0000   0.0000  -0.0000  -0.0000
    31   0.0000   0.0000  -0.0000   0.0000   0.0000  -0.0000  -0.0000  -0.0000  -0.0000   0.0000
    32  -0.0000   0.0000   0.0000  -0.0000  -0.0000  -0.0000   0.0000   0.0000  -0.0000   0.0000
    33  -0.0000   0.0000  -0.0000  -0.0000   0.0000  -0.0000  -0.0000   0.0000  -0.0000  -0.0000
    34   0.0000   0.0000   0.0000   0.0000   0.0000   0.0001  -0.0000  -0.0000  -0.0000  -0.0000
    35  -0.0000  -0.0000  -0.0000   0.0000  -0.0000  -0.0000   0.0000  -0.0000  -0.0000   0.0000
    36  -0.0000   0.0000  -0.0000  -0.0000  -0.0000   0.0000   0.0000   0.0000   0.0000   0.0000
    37  -0.0000   0.0000  -0.0001  -0.0000   0.0000   0.0001  -0.0000  -0.0000  -0.0000   0.0000
    38  -0.0000   0.0001  -0.0000   0.0000   0.0001  -0.0000  -0.0001  -0.0001  -0.0000  -0.0000
    39   0.0001   0.0000   0.0000   0.0001  -0.0000  -0.0000   0.0001  -0.0001  -0.0000   0.0000
    40  -0.0000   0.0000   0.0003   0.0000  -0.0000   0.0003  -0.0000  -0.0000  -0.0000  -0.0000
    41   0.0002  -0.0001  -0.0000  -0.0000   0.0000  -0.0000  -0.0000   0.0000  -0.0000  -0.0000
    42  -0.0001  -0.0002  -0.0000   0.0000   0.0000  -0.0000  -0.0000  -0.0000  -0.0000   0.0000
    43  -0.0000   0.0000  -0.0000   0.0000  -0.0000   0.0000   0.0000   0.0000   0.0000  -0.0000
    44   0.0000  -0.0000   0.0001   0.0000   0.0000   0.0002  -0.0000  -0.0000  -0.0000  -0.0000
    45   0.0000   0.0000  -0.0000   0.0000  -0.0000   0.0000  -0.0000   0.0000  -0.0000  -0.0000
    46   0.0000  -0.0000   0.0000  -0.0000   0.0000  -0.0000  -0.0000   0.0000   0.0000  -0.0000
[...]
  107   -2.92312922982031E-17 -7.55279903187991E-15  2.09834693811788E-15  2.04240157662203E-16
  108   -1.41465804787358E-16  2.50705499942597E-16 -1.04876293601221E-15  2.01445542851944E-16
  109   -8.49785804332877E-18 -9.88434509886565E-19 -1.22426715021423E-15  1.60151932284578E-16
  110   -4.40286885567283E-16  5.30211655339058E-17 -1.08842981318692E-15  2.49885502566484E-16
  111    3.87303988717236E-16  6.82295335757604E-16 -6.37165903401373E-16 -7.38541125116024E-16
  112    1.63423881593478E-16  1.20617716682139E-16  2.15354831351845E-16  7.84878815229928E-17
  113    4.46268570202247E-16  7.52566572107805E-17 -1.82283224019689E-16 -1.55071607337959E-16
  114    2.03432369471931E-16 -1.18904744747550E-16  3.68149547953136E-16  5.32369411801594E-17
  115   -3.66100408163244E-16  3.54435907520438E-17  7.69393043732412E-16 -4.74156401244475E-16
  116   -7.52978408791183E-17 -5.98284442820951E-15  3.60659852677303E-16 -1.25774228271897E-16

 column         101                   102                   103                   104
 row
  101    1.00000000000000E+00
  102    2.00637170672159E-16  1.00000000000000E+00
  103    3.89232881261481E-16  4.98533927989163E-16  9.99999999999999E-01
  104   -1.59913642395053E-15  4.95294465785231E-16  2.14682786602020E-16  1.00000000000000E+00
  105   -4.41196506308405E-16  5.37268746735054E-17 -5.83847498992947E-17  2.07284305566310E-16
  106   -8.44770436225400E-16  6.21709608484984E-16 -2.31187614111917E-16  5.66643180983898E-16
  107   -1.60678709022793E-15 -4.54111547203948E-15  1.35842166107718E-16 -3.96297188981141E-16
  108    9.21090890717316E-16  2.37023595121280E-16  1.93491689651038E-16 -1.59247488039729E-16
  109    1.92980178117437E-17  6.75858394901729E-16  5.22201708125682E-16  9.41191399454689E-16
  110   -1.09830580045288E-15  9.74998112271054E-16  6.60596148905625E-16 -8.67977391974715E-17
  111    4.17043964004935E-16  5.11475997921120E-16 -7.24366468597014E-16  4.66397063286923E-16
  112    2.99115801923455E-16 -5.93166530456425E-16  4.69730058318235E-16 -3.35679583822075E-16
  113   -6.87302364230145E-16  6.74647723431029E-16 -7.99783108380226E-16  3.89846438758530E-16
  114    3.30999045191671E-16  2.38018715732058E-16 -5.69544430697150E-16 -6.31551936117455E-16
  115   -6.83970343410799E-16  1.95781433533654E-16  6.91265077282735E-16  2.64930095133626E-15
  116   -5.44269490587723E-16 -1.76670744006513E-15 -7.26246048975837E-17 -3.87710696880816E-16

 column         105                   106                   107                   108
 row
  105    1.00000000000000E+00
  106   -6.48165361998625E-16  1.00000000000000E+00
  107   -3.21277221230837E-16 -2.50198908065690E-16  1.00000000000000E+00
  108    3.15989090316371E-16 -1.80378544706335E-16  1.83209229554385E-16  1.00000000000000E+00
  109    1.26784228207533E-16 -5.37382434438443E-17 -1.54014240558906E-16 -7.18351364417737E-16
  110    2.53096642519833E-16 -1.31562130131938E-16  1.46106010091095E-16 -7.80499369515312E-17
  111   -4.31450575822980E-16 -2.35032908876555E-16  4.45726934818689E-16  5.49757211912192E-16
  112   -6.11130704641176E-16  5.26013690982885E-16  5.31249403048343E-17 -2.27178206920544E-16
  113    3.49576374305345E-15 -1.10273842457510E-15 -2.52070870731457E-16  4.08535478345096E-16
  114    7.17992407116173E-16 -3.24180294680884E-15 -5.07060689791046E-17  7.57034869427918E-17
  115    1.03875333260754E-15 -1.76684428055386E-16 -2.39816772291635E-16  2.73072599363652E-16
  116   -1.46983933271144E-16  2.17714572498667E-16  3.18007339211723E-15  1.05536239469739E-15

 column         109                   110                   111                   112
 row
  109    1.00000000000000E+00
  110    1.14220705157921E-15  9.99999999999999E-01
  111    9.70695380113627E-16 -2.51586875112779E-15  1.00000000000000E+00
  112    2.27701989264941E-16 -4.09013455563073E-16 -2.21663820601849E-16  1.00000000000000E+00
  113    4.25494103653087E-16  4.67242779362643E-16 -3.09452069291773E-16 -4.90800881140201E-16
  114   -4.74509846421232E-16 -4.55595965495694E-16 -1.24158557592762E-16 -4.37371279048825E-16
  115   -3.13846303754971E-16 -3.34050995890495E-16 -4.53888494312178E-17  2.27563553971985E-16
  116   -3.95029061545094E-16 -4.31946145518225E-16 -3.09241564647178E-16  2.08824114684286E-16

 column         113                   114                   115                   116
 row
  113    1.00000000000001E+00
  114   -1.60660784691003E-15  1.00000000000000E+00
  115    5.95650223790858E-16  1.22373862481620E-16  1.00000000000000E+00
  116    1.45560917919757E-16 -2.49149659237169E-16  7.35956434683160E-16  9.99999999999991E-01


 SFO contributions (%) per orbital
 (multiplication by the orbital occupation yields the SFO Gross Populations)

 Orb.:       22     23     24     25     26     27     28     29     30     31     32     33     34     35
 occup:     2.00   2.00   2.00   2.00   2.00   2.00   2.00   2.00   2.00   2.00   0.00   0.00   0.00   0.00
 CF+SFO     ----   ----   ----   ----   ----   ----   ----   ----   ----   ----   ----   ----   ----   ----
 ------
      8:   69.53  30.13   0.11   0.00   0.00   0.00   0.00   0.04   0.00   0.00  -0.00   0.01   0.04   0.00
      9:    0.70   0.93  72.97   0.00   0.00   0.00   0.00  23.07   0.00   0.00   0.79  -0.02   0.24   0.00
     10:    0.00   0.00   0.00   0.76  81.95   8.98   6.88   0.00   0.25   0.58   0.00   0.00  -0.00  -0.01
     11:    0.00   0.00   0.00  81.95   0.76   6.88   8.98   0.00   0.58   0.25   0.00   0.00   0.00  -0.03
     12:    0.00   0.00   0.00   0.07   7.00  12.33   4.14   0.00  36.92  39.06   0.00   0.00   0.00  -0.01
     13:    0.00   0.00   0.00   7.00   0.07   4.14  12.33   0.00  39.06  36.92   0.00  -0.00   0.00  -0.02
     14:    0.32   0.29   4.66   0.00  -0.00   0.00   0.00  33.29   0.00   0.00  60.56   0.08  -0.02  -0.00
     15:   -0.27  -0.00   0.04   0.00  -0.00  -0.00  -0.00  -0.57  -0.00  -0.00  -1.02 110.67   1.94   0.00
     27:   -0.03   0.02   0.05  -0.00  -0.00  -0.00  -0.00  -0.11  -0.00  -0.00  -0.56  -2.06   1.52   0.00
     75:   28.74  68.28   1.71   0.00   0.00   0.00   0.00   0.06   0.00   0.00   0.71  -0.89   0.01   0.00
     76:    0.02   0.04  16.14   0.39   0.91   8.77   0.01  37.66   2.80   0.32  33.06  -2.45   1.05   0.07
     77:    0.00   0.01   2.45   1.96   6.42  57.62   0.82   5.70  16.79   2.85   5.02  -0.37   0.16   0.41
     78:    0.00   0.00   0.01   7.32   2.35   0.77  66.33   0.04   3.15  19.58   0.03  -0.00   0.00   0.12
     79:    0.01   0.00   0.19  -0.01  -0.15   0.15   0.22   0.06   0.02   0.10  -0.02   0.45  23.84   7.65
     80:    0.02   0.00   0.49  -0.01  -0.06   0.15   0.01   0.17   0.04   0.02  -0.05   1.16  61.54  20.43
     81:    0.00   0.00   0.05  -0.20  -0.00   0.20   0.27   0.02   0.10   0.04  -0.00   0.13   6.88  70.21
     82:    0.00   0.05  -0.07  -0.00  -0.00   0.00   0.00   0.07   0.00   0.00   0.04  -6.38   0.88   0.00


 Summation over all MOs, multiplied by occupation: Total SFO Gross Populations in this Irrep
 ===========================================================================================

     2.00    2.00    2.00    2.00    2.00    2.00    2.00    2.00    1.96    1.99    1.99    1.99
     1.99    0.77   -0.01    0.00    0.01    0.01    0.00   -0.00   -0.00    0.00    0.00   -0.00
    -0.00   -0.00   -0.00    0.00    0.00    0.00    0.00    0.00    0.00    0.00    0.00    0.00
     0.00    0.00    0.00   -0.00    0.00    0.00    0.00    0.00    0.00    0.00    0.00    0.00
     0.00    0.00    0.00    0.00    0.00    0.00    0.00    0.00    0.00   -0.00   -0.00    0.00
     2.00    2.00    2.00    2.00    2.00    2.00    2.00    2.00    2.00    2.00    2.00    2.00
     2.00    2.00    1.99    1.35    1.89    1.99    0.01    0.01    0.01    0.00    0.00    0.00
     0.01    0.01    0.01    0.00    0.01    0.00    0.00    0.00    0.00    0.00   -0.00   -0.00
    -0.00   -0.00   -0.00   -0.00   -0.00   -0.00   -0.00   -0.00   -0.00   -0.00   -0.00   -0.00
    -0.00   -0.00   -0.00   -0.00    0.00    0.00   -0.00   -0.00



 List of all MOs, ordered by energy, with the most significant SFO gross populations
 ===================================================================================

 Each percentage contribution in the table below corresponds to the indicated SFO.
 In general, a SFO may be a linear combination of several Fragment Orbitals on the same,
 or on symmetry-related Fragments. Only the first 'member' of such a combination is
 specified here. A full definition of all SFOs is given in an earlier part of the output.
 The numbering of the SFOs in this table does NOT include the Core Orbitals, and starts
 from one for each symmetry representation, as in the SFO definition list earlier.

       E(eV)  Occ       MO           %     SFO (first member)   E(eV)  Occ   Fragment
 -------------------------------------------------------------------------------------

     -14.118  2.00    22 A         69.53%     8 A             -21.408  2.00     1 FCl
                                   28.74%    15 A             -10.500  2.00     2 Br
     -13.710  2.00    23 A         68.28%    15 A             -10.500  2.00     2 Br
                                   30.13%     8 A             -21.408  2.00     1 FCl
      -6.205  2.00    24 A         72.97%     9 A             -11.814  2.00     1 FCl
                                   16.14%    16 A               0.447  2.00     2 Br
                                    4.66%    14 A              -8.124  0.00     1 FCl
                                    2.45%    17 A               0.447  2.00     2 Br
                                    1.71%    15 A             -10.500  2.00     2 Br
      -4.294  2.00    25 A         81.95%    11 A              -9.998  2.00     1 FCl
                                    7.32%    18 A               0.447  2.00     2 Br
                                    7.00%    13 A              -8.839  2.00     1 FCl
                                    1.96%    17 A               0.447  2.00     2 Br
      -4.294  2.00    26 A         81.95%    10 A              -9.998  2.00     1 FCl
                                    7.00%    12 A              -8.839  2.00     1 FCl
                                    6.42%    17 A               0.447  2.00     2 Br
                                    2.35%    18 A               0.447  2.00     2 Br
      -2.308  2.00    27 A         57.62%    17 A               0.447  2.00     2 Br
                                   12.33%    12 A              -8.839  2.00     1 FCl
                                    8.98%    10 A              -9.998  2.00     1 FCl
                                    8.77%    16 A               0.447  2.00     2 Br
                                    6.88%    11 A              -9.998  2.00     1 FCl
                                    4.14%    13 A              -8.839  2.00     1 FCl
      -2.308  2.00    28 A         66.33%    18 A               0.447  2.00     2 Br
                                   12.33%    13 A              -8.839  2.00     1 FCl
                                    8.98%    11 A              -9.998  2.00     1 FCl
                                    6.88%    10 A              -9.998  2.00     1 FCl
                                    4.14%    12 A              -8.839  2.00     1 FCl
      -2.181  2.00    29 A         37.66%    16 A               0.447  2.00     2 Br
                                   33.29%    14 A              -8.124  0.00     1 FCl
                                   23.07%     9 A             -11.814  2.00     1 FCl
                                    5.70%    17 A               0.447  2.00     2 Br
      -1.930  2.00    30 A         39.06%    13 A              -8.839  2.00     1 FCl
                                   36.92%    12 A              -8.839  2.00     1 FCl
                                   16.79%    17 A               0.447  2.00     2 Br
                                    3.15%    18 A               0.447  2.00     2 Br
                                    2.80%    16 A               0.447  2.00     2 Br
      -1.930  2.00    31 A         39.06%    12 A              -8.839  2.00     1 FCl
                                   36.92%    13 A              -8.839  2.00     1 FCl
                                   19.58%    18 A               0.447  2.00     2 Br
                                    2.85%    17 A               0.447  2.00     2 Br
      -0.203  0.00    32 A         60.56%    14 A              -8.124  0.00     1 FCl
                                   33.06%    16 A               0.447  2.00     2 Br
                                    5.02%    17 A               0.447  2.00     2 Br
                                   -1.02%    15 A               1.103  0.00     1 FCl



 =======================================================================
 Electrostatic potential at the Nuclei due to electrons and other nuclei
 =======================================================================
  
         Atom                  Potential
         ----                  ---------
     1)   F                  26.79294553
     2)   Cl                 64.63497647
     3)   Br                176.13124453
 
 
 ========================
 No memory problems found
 ========================
 
 Maximum number of active allocate calls:         636
 
 *******************************************************************************

                             A D F   E X I T
 NORMAL TERMINATION



 =================
 Timing Statistics
 =================
  
 Total Used :                     CPU=        6.41      System=        0.21     Elapsed=        7.01

 Calls  Section                     ( Mean, Percentage )
 ---------------------------------------------------------------------------------------------------
     3  ><      ................      0.00    0.02             0.00    0.00             0.00    0.02
     1  INIT    ................      0.45    7.08             0.02   11.21             0.48    6.85
     1  GEOMET  ................      0.03    0.47             0.01    3.27             0.35    5.05
     1  FRAGM   ................      0.01    0.11             0.01    5.14             0.03    0.43
     1  INPUTA  ................      0.00    0.00             0.00    0.00             0.00    0.01
     1  ATDEN   ................      0.00    0.08             0.00    0.00             0.01    0.07
     1  MAINSY  ................      0.01    0.12             0.00    0.47             0.01    0.16
     1  SYMFIT  ................      0.00    0.05             0.00    0.00             0.00    0.03
     1  CORORT  ................      0.00    0.00             0.00    0.00             0.00    0.01
     1  SYMORB  ................      0.00    0.06             0.00    0.00             0.00    0.05
     1  CLSMAT  ................      0.01    0.17             0.00    0.47             0.01    0.17
     1  ORTHON  ................      0.01    0.16             0.00    0.47             0.01    0.15
     1  GENPT   ................      0.12    1.87             0.00    1.87             0.13    1.80
     1  PTBAS   ................      0.04    0.58             0.00    0.47             0.04    0.55
    17  FOCKY   ................      0.12   32.31             0.00    7.01             0.12   29.88
    17  FOCKTR  ................      0.00    0.55             0.00    0.00             0.00    0.52
    17  SDIIS   ................      0.00    0.97             0.00    1.87             0.00    0.95
     1  COREPS  ................      0.10    1.61             0.00    0.00             0.10    1.46
     1  TOTEN   ................      0.33    5.11             0.00    0.93             0.33    4.73
     1  POPAN   ................      0.00    0.05             0.00    0.93             0.01    0.12
     1  DEBYE   ................      0.00    0.05             0.00    0.47             0.00    0.06
     1  INPUTE  ................      0.00    0.02             0.00    0.00             0.00    0.02
     1  SYMORE  ................      0.00    0.00             0.00    0.00             0.00    0.02
     1  METS    ................      0.00    0.00             0.00    0.47             0.00    0.01
     1  CETS    ................      0.01    0.22             0.00    0.93             0.03    0.40
     1  POPUL   ................      3.07   47.95             0.13   62.62             3.23   46.02
     1  EXIT PROCEDURE .........      0.03    0.42             0.00    1.40             0.03    0.44


 Currently Open Files (EXIT00)
 ====================

 Unit    Access Format  Status   Type       Ident (file)
 -------------------------------------------------------
   3      SEQ    FORM   TRANSP  NORMAL      LOGFILE
                                          ( logfile )


 Buffered I/O statistics
 =======================
 Memory available:                     67108864
 Number of records fitting in memory:     16131
 Input :   1.2% of                        55828  *4k bytes
 Output:  13.0% of                         4262  *4k bytes
 Records from serial files evicted:           0
                    others evicted:           0
 Hash table lookups:     159252 with          0 conflicts (  0.00%)

 ***************************************************************************************************
 (LOGFILE)
 <May09-2019> <17:12:05>  ADF 2017  RunTime: May09-2019 17:12:05  Nodes: 1  Procs: 12
 <May09-2019> <17:12:05>  *** (NO TITLE) ***
 <May09-2019> <17:12:05>  RunType   : SINGLE POINT
 <May09-2019> <17:12:05>  Net Charge: -1 (Nuclei minus Electrons)
 <May09-2019> <17:12:05>  Symmetry  : NOSYM
 <May09-2019> <17:12:05>  >>>> FRAGM
  Coordinates
    Atom         X           Y           Z   (Angstrom)
    1.F        -4.930175    3.105115   -0.047296
    2.Cl       -3.857100    1.219964    0.110275
    3.Br       -5.988106    4.973840   -0.200180
 <May09-2019> <17:12:05>  >>>> CORORT
 <May09-2019> <17:12:05>  >>>> CLSMAT
 <May09-2019> <17:12:05>  >>>> ORTHON
 <May09-2019> <17:12:05>  >>>> GENPT
 <May09-2019> <17:12:06>  Block Length= 128
 <May09-2019> <17:12:06>  >>>> PTBAS
 <May09-2019> <17:12:06>  >>>> CYCLE
 <May09-2019> <17:12:06>              |Error|         MaxErr       Wt(A-DIIS)
 <May09-2019> <17:12:06>      1      1.25929345      0.87171195
 <May09-2019> <17:12:06>      2      1.02292340      0.34307034    100.0
 <May09-2019> <17:12:06>      3      0.55011015      0.23171961    100.0
 <May09-2019> <17:12:06>      4      0.59040670      0.30438570    100.0
 <May09-2019> <17:12:06>      5      1.58147350      0.48425379    100.0
 <May09-2019> <17:12:06>      6      0.60770650      0.23088248    100.0
 <May09-2019> <17:12:07>      7      0.15740837      0.06722752     66.9
 <May09-2019> <17:12:07>      8      0.36094899      0.14555324    100.0
 <May09-2019> <17:12:07>      9      0.10579103      0.04611806     45.6
 <May09-2019> <17:12:07>     10      0.02156068      0.01071802      9.8
 <May09-2019> <17:12:07>     11      0.00684359      0.00254420      1.6
 <May09-2019> <17:12:07>     12      0.00092345      0.00047901      0.0
 <May09-2019> <17:12:07>     13      0.00020622      0.00007627      0.0
 <May09-2019> <17:12:07>     14      0.00004337      0.00001965      0.0
 <May09-2019> <17:12:08>     15      0.00000726      0.00000397      0.0
 <May09-2019> <17:12:08>     16      0.00000096      0.00000039      0.0
 <May09-2019> <17:12:08>  SCF converged
 <May09-2019> <17:12:08>     17      0.00000024      0.00000013      0.0
 <May09-2019> <17:12:08>  >>>> TOTEN
 <May09-2019> <17:12:08>  >>>> POPAN
 <May09-2019> <17:12:08>  >>>> DEBYE
 <May09-2019> <17:12:08>  >>>> AMETS
 <May09-2019> <17:12:11>   Bond Energy          -0.09020439 a.u.
 <May09-2019> <17:12:11>   Bond Energy          -2.45458633 eV
 <May09-2019> <17:12:11>   Bond Energy         -56.60       kcal/mol
 <May09-2019> <17:12:11>  >>>> POPUL
 <May09-2019> <17:12:12>  NORMAL TERMINATION
 <May09-2019> <17:12:12>  END
