
Create Br   file=TZ2P-Br
XC
  GGA blyp
  DISPERSION Grimme3 BJDAMP
End
End Input

 *******************************************************************************
 *                                                                             *
 *  -------------------------------------                                      *
 *   Amsterdam Density Functional  (ADF)         2017                          *
 *  -------------------------------------                                      *
 *                                               r58813 2017-04-12             *
 *                                                                             *
 *                                                                             *
 *                              =================                              *
 *                              |               |                              *
 *                              |     A D F     |                              *
 *                              |               |                              *
 *                              =================                              *
 *                                                                             *
 *                                                                             *
 *   Online information and documentation:  https://www.scm.com/support/       *
 *   E-mail:  support@scm.com   info@scm.com                                   *
 *                                                                             *
 *   Scientific publications using ADF results must be properly referenced     *
 *   See the User Manuals (or the web site) for recommended citations          *
 *   The terms and conditions of the End User License Agreement apply to       *
 *   the use of ADF, https://www.scm.com/license-terms/                        *
 *                                                                             *
 **********************  x86_64_linux_intel / intelmpi  ************************
 
 Licensed to: VU/FEW (+ SARA) / ALGEMEEN / Amsterdam / THE NETHERLANDS
 SCM User ID: u7668
  
 ADF 2017  RunTime: May09-2019 16:32:25  Nodes: 1  Procs: 1

 Temporary files are created in /local/datastore0/tcst25/189687/kid_0.PC9qRU

 Bromine (TZ2P)



 ===========================
 A T T A C H E D   F I L E S
 ===========================
  
 CREATE - Data File:    TZ2P-Br
                        Bromine (TZ2P)



 ===============================
 M O D E L   P A R A M E T E R S
 ===============================
  
 DENSITY FUNCTIONAL POTENTIAL (scf)
    LDA:                               Exchange only                           == Not Default ==
    Gradient Corrections:              Becke88 LYP                             == Not Default ==

 SPIN  (restricted / unrestr.)
    Molecule:                          Restricted                               

 OTHER ASPECTS
    Relativistic Corrections:          ---                                      

    Nuclear Charge Density Model:      Point Charge Nuclei                      
    Core Treatment:                    Frozen Orbital(s)                        

    Hyperfine or Zeeman Interaction:   ---                                      

 Settings for Grimme 3 dispersion correction

      damping                        BJ
      s6                          1.000
      a1                          0.430
      s8                          2.700
      a2                          4.236

 Other (technical) parameters

      alpha                      14.000
      version                         4
 



 =====================================
 S Y M M E T R Y ,   E L E C T R O N S
 =====================================
  
 Symmetry: ATOM

 Irreducible Representations, including subspecies
 -------------------------------------------------
 S
 P:x  P:y  P:z
 D:z2  D:x2-y2  D:xy  D:xz  D:yz
 F:z3  F:z  F:xyz  F:z2x  F:z2y  F:x  F:y


 Configuration of Valence Electrons
 ==================================

          Occupation Numbers
          -------------------------------------------------
 S        4*2
 P        2*6 5
 D        10
 F        0
          -------------------------------------------------

 Total:   35

 Net Charge: 0 (Nuclei minus Electrons)

 Preset values for MO occupations will be applied through SCF cycle no. 1000000
 Thereafter, the program will assign electrons to MOs that are spatially
 similar to the occupied MOs in a "reference" cycle ("KeepOrbitals").
 The reference cycle is always the PREVIOUS cycle: it will evolve with
 the SCF procedure.



 ================================
 (Slater-type)  F U N C T I O N S  ***  (Basis and Fit)  ***
 ================================
  

 Atom Type    1  (Br)
 ==============

 Valence Basis Sets:  20
 -----------------------
   1 S   41.300000
   1 S   32.800000
   2 S   13.900000
   2 P   19.450000
   2 P   13.100000
   3 S    7.200000
   3 S    4.950000
   3 P    7.900000
   3 P    5.050000
   3 D   10.900000
   3 D    6.050000
   3 D    3.500000
   4 S    4.500000
   4 S    2.800000
   4 S    1.800000
   4 P    3.250000
   4 P    1.950000
   4 P    1.200000
   4 D    1.800000
   4 F    1.800000


 BAS: List of all Elementary Cartesian Basis Functions
 =====================================================

 The numbering in the list below (to the right of the function characteristics) is referred
 to in print-outs of MO eigenvectors and Mulliken populations in the BAS representation
 (as contrasted to the SFO representation).

 Notes:
 1. The functions are characterized by a polynomial prefactor (powers of x,y,z and r) and
    an exponential decay factor alpha.
 2. Since the basis sets are specific for an atom TYPE, the individual functions occur on
    all atoms of that type.
 3. The word 'Core' in the left margin signals that it is a Core Function (CF) : not a
    degree of freedom in the valence set, but only used to ensure orthogonalization of
    the other valence basis functions on the frozen Core Orbitals.


 (power of) X  Y  Z  R     Alpha  on Atom
            ==========     =====     ==========

 Br                                   1
                                  ---------------------------------------------------------------------------
            0  0  0  0    41.300      1
            0  0  0  0    32.800      2
            0  0  0  1    13.900      3
            1  0  0  0    19.450      4
            0  1  0  0    19.450      5
            0  0  1  0    19.450      6
            1  0  0  0    13.100      7
            0  1  0  0    13.100      8
            0  0  1  0    13.100      9
            0  0  0  2     7.200     10
            0  0  0  2     4.950     11
            1  0  0  1     7.900     12
            0  1  0  1     7.900     13
            0  0  1  1     7.900     14
            1  0  0  1     5.050     15
            0  1  0  1     5.050     16
            0  0  1  1     5.050     17
            2  0  0  0    10.900     18
            1  1  0  0    10.900     19
            1  0  1  0    10.900     20
            0  2  0  0    10.900     21
            0  1  1  0    10.900     22
            0  0  2  0    10.900     23
            2  0  0  0     6.050     24
            1  1  0  0     6.050     25
            1  0  1  0     6.050     26
            0  2  0  0     6.050     27
            0  1  1  0     6.050     28
            0  0  2  0     6.050     29
            2  0  0  0     3.500     30
            1  1  0  0     3.500     31
            1  0  1  0     3.500     32
            0  2  0  0     3.500     33
            0  1  1  0     3.500     34
            0  0  2  0     3.500     35
            0  0  0  3     4.500     36
            0  0  0  3     2.800     37
            0  0  0  3     1.800     38
            1  0  0  2     3.250     39
            0  1  0  2     3.250     40
            0  0  1  2     3.250     41
            1  0  0  2     1.950     42
            0  1  0  2     1.950     43
            0  0  1  2     1.950     44
            1  0  0  2     1.200     45
            0  1  0  2     1.200     46
            0  0  1  2     1.200     47
            2  0  0  1     1.800     48
            1  1  0  1     1.800     49
            1  0  1  1     1.800     50
            0  2  0  1     1.800     51
            0  1  1  1     1.800     52
            0  0  2  1     1.800     53
            3  0  0  0     1.800     54
            2  1  0  0     1.800     55
            2  0  1  0     1.800     56
            1  2  0  0     1.800     57
            1  1  1  0     1.800     58
            1  0  2  0     1.800     59
            0  3  0  0     1.800     60
            0  2  1  0     1.800     61
            0  1  2  0     1.800     62
            0  0  3  0     1.800     63

 Total number of charge fitting functions (nprimf)       170
 Total number of Cartesian basis functions (naos)         63
 Total number of Cartesian core functions  (ncos)          0



 BAS: List of all Elementary Cartesian Basis Functions
 =====================================================

 The numbering in the list below (to the right of the function characteristics) is referred
 to in print-outs of MO eigenvectors and Mulliken populations in the BAS representation
 (as contrasted to the SFO representation).

 Notes:
 1. The functions are characterized by a polynomial prefactor (powers of x,y,z and r) and
    an exponential decay factor alpha.
 2. Since the basis sets are specific for an atom TYPE, the individual functions occur on
    all atoms of that type.
 3. The word 'Core' in the left margin signals that it is a Core Function (CF) : not a
    degree of freedom in the valence set, but only used to ensure orthogonalization of
    the other valence basis functions on the frozen Core Orbitals.


 (power of) X  Y  Z  R     Alpha  on Atom
            ==========     =====     ==========

 Br                                   1
                                  ---------------------------------------------------------------------------
            0  0  0  0    41.300      1
            0  0  0  0    32.800      2
            0  0  0  1    13.900      3
            1  0  0  0    19.450      4
            0  1  0  0    19.450      5
            0  0  1  0    19.450      6
            1  0  0  0    13.100      7
            0  1  0  0    13.100      8
            0  0  1  0    13.100      9
            0  0  0  2     7.200     10
            0  0  0  2     4.950     11
            1  0  0  1     7.900     12
            0  1  0  1     7.900     13
            0  0  1  1     7.900     14
            1  0  0  1     5.050     15
            0  1  0  1     5.050     16
            0  0  1  1     5.050     17
            2  0  0  0    10.900     18
            1  1  0  0    10.900     19
            1  0  1  0    10.900     20
            0  2  0  0    10.900     21
            0  1  1  0    10.900     22
            0  0  2  0    10.900     23
            2  0  0  0     6.050     24
            1  1  0  0     6.050     25
            1  0  1  0     6.050     26
            0  2  0  0     6.050     27
            0  1  1  0     6.050     28
            0  0  2  0     6.050     29
            2  0  0  0     3.500     30
            1  1  0  0     3.500     31
            1  0  1  0     3.500     32
            0  2  0  0     3.500     33
            0  1  1  0     3.500     34
            0  0  2  0     3.500     35
            0  0  0  3     4.500     36
            0  0  0  3     2.800     37
            0  0  0  3     1.800     38
            1  0  0  2     3.250     39
            0  1  0  2     3.250     40
            0  0  1  2     3.250     41
            1  0  0  2     1.950     42
            0  1  0  2     1.950     43
            0  0  1  2     1.950     44
            1  0  0  2     1.200     45
            0  1  0  2     1.200     46
            0  0  1  2     1.200     47
            2  0  0  1     1.800     48
            1  1  0  1     1.800     49
            1  0  1  1     1.800     50
            0  2  0  1     1.800     51
            0  1  1  1     1.800     52
            0  0  2  1     1.800     53
            3  0  0  0     1.800     54
            2  1  0  0     1.800     55
            2  0  1  0     1.800     56
            1  2  0  0     1.800     57
            1  1  1  0     1.800     58
            1  0  2  0     1.800     59
            0  3  0  0     1.800     60
            0  2  1  0     1.800     61
            0  1  2  0     1.800     62
            0  0  3  0     1.800     63
1
 ***************************************************************************************************



                                              ***********************
                                              *  T E C H N I C A L  *
                                              ***********************
  



 =============================================================
 P A R A L L E L I Z A T I O N  and  V E C T O R I Z A T I O N
 =============================================================
  
 Nr of parallel processes:                                1
 Maximum vector length in NumInt loops:                 128

 IO buffersize (Mb):                                     64.000000



 =====================
 S C F   U P D A T E S
 =====================
  
 Max. nr. of cycles:                               300
 Convergence criterion:                              0.0000000100
   secondary criterion:                              0.0000000100

 Mix parameter (when DIIS does not apply):           0.2000000000
 Special mix parameter for the first cycle:          1.0000000000
 Mixed ADIIS+DIIS will be used
    Max number of expansion vectors:                10
    Pure ADIIS when Max([F,P]) is above              0.1000000000
    Pure DIIS when Max([F,P]) is below               0.0010000000
 Automatic ElectronSmearing (in case of problematic SCF convergence) disabled



 =================
 P R E C I S I O N  ***  (General: NumInt, NeglectFunctionTails, ...)  ***
 =================
  

 NumInt:           Target precision:                12.0000000000
 -------           Initial precision:               10.0000000000
                   Min. precision (optimization):   10.0000000000

 Neglect Functions:          Basis functions:        0.1000000000E-13
 ------------------          Fit functions:          0.1000000000E-13



 ===========================
 L I N E A R   S C A L I N G
 ===========================
  

 Cut-off radii density fit:                        0.1000000000E-97
 Overlap cut-off criterion AO matrix elements:     0.1000000000E-97
 Cut-offs for Coulomb potential and fitted density:0.1000000000E-97
 Cut-off criterion for Coulomb multipole terms:    0.1000000000E-97
 Progressive Convergence parameter:                 0.000000000    
1
 ***************************************************************************************************



                                            ***************************
                                            *  C O M P U T A T I O N  *
                                            ***************************
  

 Number of elements of the density matrix on this node (used, total):      2016      2016



 ===========================================
 Numerical Integration : Fuzzy Cells (Becke)
 ===========================================
  
 Becke grid quality: VERYGOOD       
  
 Lebedev angular grid order:             min:  13 max:  41
 Nr. of radial points:                   min: 106 max: 106

 Total nr. of points:        106
 Nr. of blocks:                1
 Block length:               106
 Nr. of dummy points:          0


 Test of Precision of the Numerical Integration Grid
 ===================================================

 Integral of the Total Core Density:                   0.00000000000000



 ========================
 Density Fitting (zlmFit)
 ========================
  
 ZlmFit Fit Quality: VERYGOOD       
  
 Max L-expansion:                        min:   0 max:   0
 Nr. of radial interpolation points:     min: 240 max: 240



 =====
 S C F  ***  ScaSCF  ***
 =====
  

 CYCLE    1
 SCF Error: norm([F,P])=      0.000000000000, max([F,P])=      0.000000000000
 orbitals (Q,E):
 ---------------
 S :1...8            ( 2.00  -612.4786)  ( 2.00  -152.6714)  ( 2.00   -67.1618)  ( 2.00   -37.3471)
                     ( 0.00   -23.4672)  ( 0.00   -15.4322)  ( 0.00    -9.8352)  ( 0.00   627.8721)
 P :1...7            ( 6.00  -153.0715)  ( 6.00   -67.2002)  ( 5.00   -36.6918)  ( 0.00   -21.5714)
                     ( 0.00   -12.7861)  ( 0.00    -7.3590)  ( 0.00    16.5106)
 D :1...4            (10.00   -67.9473)  ( 0.00   -38.1263)  ( 0.00   -23.3212)  ( 0.00   -12.4393)
 F :1...1            ( 0.00   -14.1300)

 CYCLE    2
  SDIIS (wt  0.000):  1.0000  0.0000
 A-DIIS (wt  1.000):  0.0000  1.0000
  DIIS coefficients:  0.0000  1.0000
 SCF Error: norm([F,P])=    133.903788591766, max([F,P])=     33.002638835768
 orbitals (Q,E):
 ---------------
 S :1...5            ( 2.00  -440.6623)  ( 2.00   -34.4608)  ( 2.00    -0.4838)  ( 2.00     0.2836)
                     ( 0.00     1.7588)
 P :1...4            ( 6.00   -26.4444)  ( 6.00     0.0834)  ( 5.00     0.3720)  ( 0.00     1.4169)
 D :1...2            (10.00     0.6774)  ( 0.00     3.4882)
 F :1...1            ( 0.00     1.3965)

 CYCLE    3
  SDIIS (wt  0.000):  0.1412  0.8588
 A-DIIS (wt  1.000):  0.4812  0.5188
  DIIS coefficients:  0.4812  0.5188
 SCF Error: norm([F,P])=     49.629143697465, max([F,P])=     17.595188807561
 orbitals (Q,E):
 ---------------
 S :1...5            ( 2.00  -480.8932)  ( 2.00   -64.7226)  ( 2.00   -13.6294)  ( 2.00    -3.4868)
                     ( 0.00    -0.5582)
 P :1...4            ( 6.00   -58.1726)  ( 6.00   -11.4786)  ( 5.00    -2.7508)  ( 0.00    -0.3243)
 D :1...2            (10.00    -7.6458)  ( 0.00    -1.4985)
 F :1...1            ( 0.00    -0.1774)

 CYCLE    4
  SDIIS (wt  0.000):  0.0224 -0.0021  0.9797
 A-DIIS (wt  1.000):  0.0000  0.0000  1.0000
  DIIS coefficients:  0.0000  0.0000  1.0000
 SCF Error: norm([F,P])=      9.092094844053, max([F,P])=      2.124855053538
 orbitals (Q,E):
 ---------------
 S :1...5            ( 2.00  -477.9553)  ( 2.00   -58.6455)  ( 2.00    -6.0025)  ( 2.00    -0.0887)
                     ( 0.00     0.6741)
 P :1...4            ( 6.00   -52.5726)  ( 6.00    -3.9206)  ( 5.00     0.0754)  ( 0.00     0.4470)
 D :1...2            (10.00    -0.2229)  ( 0.00     0.6460)
 F :1...1            ( 0.00     1.2104)

 CYCLE    5
  SDIIS (wt  0.000):  0.0181 -0.0308  0.6039  0.4089
 A-DIIS (wt  1.000):  0.0000  0.0000  0.5822  0.4178
  DIIS coefficients:  0.0000  0.0000  0.5822  0.4178
 SCF Error: norm([F,P])=     11.701584191548, max([F,P])=      3.988425979039
 orbitals (Q,E):
 ---------------
 S :1...5            ( 2.00  -481.8352)  ( 2.00   -62.3102)  ( 2.00    -8.5155)  ( 2.00    -0.7697)
                     ( 0.00     0.1875)
 P :1...4            ( 6.00   -56.2897)  ( 6.00    -6.4201)  ( 5.00    -0.3523)  ( 0.00     0.1239)
 D :1...2            (10.00    -2.6384)  ( 0.00     0.1906)
 F :1...1            ( 0.00     0.7840)

 CYCLE    6
  SDIIS (wt  0.000): -0.0026 -0.0016  0.0582  0.1076  0.8383
 A-DIIS (wt  1.000):  0.0000  0.0000  0.0000  0.0000  1.0000
  DIIS coefficients:  0.0000  0.0000  0.0000  0.0000  1.0000
 SCF Error: norm([F,P])=      1.823540048332, max([F,P])=      0.456619293025
 orbitals (Q,E):
 ---------------
 S :1...5            ( 2.00  -480.3974)  ( 2.00   -61.3034)  ( 2.00    -8.2095)  ( 2.00    -0.6754)
                     ( 0.00     0.2537)
 P :1...4            ( 6.00   -55.2073)  ( 6.00    -6.1080)  ( 5.00    -0.2621)  ( 0.00     0.1463)
 D :1...2            (10.00    -2.3134)  ( 0.00     0.2796)
 F :1...1            ( 0.00     0.8617)

 CYCLE    7
  SDIIS (wt  0.000): -0.0001  0.0001  0.0162 -0.0122  0.4359  0.5600
 A-DIIS (wt  1.000):  0.0000  0.0000  0.0000  0.0000  0.5218  0.4782
  DIIS coefficients:  0.0000  0.0000  0.0000  0.0000  0.5218  0.4782
 SCF Error: norm([F,P])=      1.607695839969, max([F,P])=      0.415842628955
 orbitals (Q,E):
 ---------------
 S :1...5            ( 2.00  -481.0075)  ( 2.00   -61.7929)  ( 2.00    -8.4313)  ( 2.00    -0.7171)
                     ( 0.00     0.2346)
 P :1...4            ( 6.00   -55.7193)  ( 6.00    -6.3308)  ( 5.00    -0.2925)  ( 0.00     0.1353)
 D :1...2            (10.00    -2.5382)  ( 0.00     0.2584)
 F :1...1            ( 0.00     0.8462)

 CYCLE    8
  SDIIS (wt  0.813): -0.0000  0.0000  0.0003 -0.0007  0.1156  0.1336  0.7512
 A-DIIS (wt  0.187):  0.0000  0.0000  0.0000  0.0000  0.0000  0.0000  1.0000
  DIIS coefficients: -0.0000  0.0000  0.0003 -0.0005  0.0941  0.1086  0.7976
 SCF Error: norm([F,P])=      0.065754007621, max([F,P])=      0.019467288040
 orbitals (Q,E):
 ---------------
 S :1...5            ( 2.00  -480.9996)  ( 2.00   -61.7672)  ( 2.00    -8.3915)  ( 2.00    -0.6991)
                     ( 0.00     0.2415)
 P :1...4            ( 6.00   -55.6965)  ( 6.00    -6.2914)  ( 5.00    -0.2791)  ( 0.00     0.1389)
 D :1...2            (10.00    -2.4995)  ( 0.00     0.2673)
 F :1...1            ( 0.00     0.8551)

 CYCLE    9
  SDIIS (wt  0.928): -0.0000 -0.0000 -0.0004  0.0001  0.0270  0.0241  0.3726  0.5766
 A-DIIS (wt  0.072):  0.0000  0.0000  0.0000  0.0000  0.0000  0.0000  0.1253  0.8747
  DIIS coefficients: -0.0000 -0.0000 -0.0004  0.0001  0.0251  0.0224  0.3549  0.5979
 SCF Error: norm([F,P])=      0.026013191771, max([F,P])=      0.008091160142
 orbitals (Q,E):
 ---------------
 S :1...5            ( 2.00  -481.0129)  ( 2.00   -61.7801)  ( 2.00    -8.4039)  ( 2.00    -0.7064)
                     ( 0.00     0.2380)
 P :1...4            ( 6.00   -55.7094)  ( 6.00    -6.3038)  ( 5.00    -0.2850)  ( 0.00     0.1366)
 D :1...2            (10.00    -2.5117)  ( 0.00     0.2628)
 F :1...1            ( 0.00     0.8506)

 CYCLE   10
  SDIIS (wt  1.000): -0.0000  0.0000 -0.0000 -0.0000  0.0019  0.0015  0.0216  0.0490  0.9260
  DIIS coefficients: -0.0000  0.0000 -0.0000 -0.0000  0.0019  0.0015  0.0216  0.0490  0.9260
 SCF Error: norm([F,P])=      0.000463673933, max([F,P])=      0.000100374139
 orbitals (Q,E):
 ---------------
 S :1...5            ( 2.00  -481.0128)  ( 2.00   -61.7801)  ( 2.00    -8.4038)  ( 2.00    -0.7064)
                     ( 0.00     0.2380)
 P :1...4            ( 6.00   -55.7094)  ( 6.00    -6.3036)  ( 5.00    -0.2850)  ( 0.00     0.1366)
 D :1...2            (10.00    -2.5116)  ( 0.00     0.2628)
 F :1...1            ( 0.00     0.8506)

 CYCLE   11
  SDIIS (wt  1.000): -0.0000  0.0000 -0.0000 -0.0000  0.0000  0.0000  0.0003  0.0002 -0.0123  1.0118
  DIIS coefficients: -0.0000  0.0000 -0.0000 -0.0000  0.0000  0.0000  0.0003  0.0002 -0.0123  1.0118
 SCF Error: norm([F,P])=      0.000010859575, max([F,P])=      0.000002783509
 orbitals (Q,E):
 ---------------
 S :1...5            ( 2.00  -481.0127)  ( 2.00   -61.7800)  ( 2.00    -8.4038)  ( 2.00    -0.7064)
                     ( 0.00     0.2380)
 P :1...4            ( 6.00   -55.7094)  ( 6.00    -6.3036)  ( 5.00    -0.2850)  ( 0.00     0.1366)
 D :1...2            (10.00    -2.5116)  ( 0.00     0.2628)
 F :1...1            ( 0.00     0.8506)

 CYCLE   12
  SDIIS (wt  1.000): -0.0000  0.0000  0.0000 -0.0114  1.0114
  DIIS coefficients: -0.0000  0.0000  0.0000 -0.0114  1.0114
 SCF Error: norm([F,P])=      0.000000253956, max([F,P])=      0.000000059059
 orbitals (Q,E):
 ---------------
 S :1...5            ( 2.00  -481.0127)  ( 2.00   -61.7800)  ( 2.00    -8.4038)  ( 2.00    -0.7064)
                     ( 0.00     0.2380)
 P :1...4            ( 6.00   -55.7094)  ( 6.00    -6.3036)  ( 5.00    -0.2850)  ( 0.00     0.1366)
 D :1...2            (10.00    -2.5116)  ( 0.00     0.2628)
 F :1...1            ( 0.00     0.8506)

 CYCLE   13
  SDIIS (wt  1.000):  0.0000 -0.0000 -0.0002  0.0472  0.9530
  DIIS coefficients:  0.0000 -0.0000 -0.0002  0.0472  0.9530
 SCF Error: norm([F,P])=      0.000000008156, max([F,P])=      0.000000002198
 orbitals (Q,E):
 ---------------
 S :1...5            ( 2.00  -481.0127)  ( 2.00   -61.7800)  ( 2.00    -8.4038)  ( 2.00    -0.7064)
                     ( 0.00     0.2380)
 P :1...4            ( 6.00   -55.7094)  ( 6.00    -6.3036)  ( 5.00    -0.2850)  ( 0.00     0.1366)
 D :1...2            (10.00    -2.5116)  ( 0.00     0.2628)
 F :1...1            ( 0.00     0.8506)

 SCF CONVERGED

 CYCLE   14
1
 ***************************************************************************************************



                                                *******************
                                                *  R E S U L T S  *
                                                *******************
  
 *** Setting up for NEW gradients in Focky
 *** Using FIT density in Focky

 Orbital Energies, per Irrep and Spin:
 ======================================
                        Occup              E (au)              E (eV)       Diff (eV) with prev. cycle
                        -----      --------------------        ------       --------------------------
 S
               1        2.000     -0.48101274587878E+03    -13089.023              -3.04E-09
               2        2.000     -0.61780048652770E+02     -1681.121              -1.31E-09
               3        2.000     -0.84037718795876E+01      -228.678              -2.39E-09
               4        2.000     -0.70640809652946E+00       -19.222              -2.94E-09
               5        0.000      0.23797090184212E+00         6.476
               6        0.000      0.24655941619123E+01        67.092
               7        0.000      0.14293653166507E+02       388.950
               8        0.000      0.74647931329126E+03     20312.736
 P
               1        6.000     -0.55709370544448E+02     -1515.929              -1.51E-09
               2        6.000     -0.63036166135521E+01      -171.530              -2.40E-09
               3        5.000     -0.28498840632736E+00        -7.755              -2.43E-09
               4        0.000      0.13662305746037E+00         3.718
               5        0.000      0.12150701661254E+01        33.064
               6        0.000      0.88352207867396E+01       240.419
               7        0.000      0.10087703617678E+03      2745.004
 D
               1       10.000     -0.25115984206638E+01       -68.344              -2.31E-09
               2        0.000      0.26280809227202E+00         7.151
               3        0.000      0.26773687643251E+01        72.855
               4        0.000      0.20605889125446E+02       560.715
 F
               1        0.000      0.85063213392394E+00        23.147


 Partially Occupied:
               3 P                -0.28498840632736E+00
  
 HOMO :        4 S                -0.70640809652946E+00
 LUMO :        4 P                 0.13662305746037E+00
  


 Orbital Energies, all Irreps
 ========================================

 Irrep        no.  (spin)   Occup              E (au)                E (eV)
 ---------------------------------------------------------------------------
 S             1             2.00       -0.48101274587878E+03    -13089.0228
 S             2             2.00       -0.61780048652770E+02     -1681.1207
 P             1             6.00       -0.55709370544448E+02     -1515.9291
 S             3             2.00       -0.84037718795876E+01      -228.6783
 P             2             6.00       -0.63036166135521E+01      -171.5301
 D             1            10.00       -0.25115984206638E+01       -68.3441
 S             4             2.00       -0.70640809652946E+00       -19.2223
 P             3             5.00       -0.28498840632736E+00        -7.7549
 P             4             0.00        0.13662305746037E+00         3.7177
 S             5             0.00        0.23797090184212E+00         6.4755
 D             2             0.00        0.26280809227202E+00         7.1514
 F             1             0.00        0.85063213392394E+00        23.1469
 P             5             0.00        0.12150701661254E+01        33.0637
 S             6             0.00        0.24655941619123E+01        67.0922
 D             3             0.00        0.26773687643251E+01        72.8549
 P             6             0.00        0.88352207867396E+01       240.4186
 S             7             0.00        0.14293653166507E+02       388.9501
 D             4             0.00        0.20605889125446E+02       560.7148
 P             7             0.00        0.10087703617678E+03      2745.0038
 S             8             0.00        0.74647931329126E+03     20312.7356


 All Electron Calculation, thus no Orbital Energies of the Core Orbitals are calculated



 =======================================
 M U L L I K E N   P O P U L A T I O N S
 =======================================
  
 The survey below gives for each atom:
 a) the total charge (Z minus electrons)
 b) the net spin polarization (nr of electrons spin-A minus spin-B)
 c) for each spin the atomic electron valence density (integrated) per L-value.

 Atom              Charge    Spin density          S         P         D         F
 ----              ------    ------------       ------    ------    ------    ------
 1 Br              0.0000                       8.0000   17.0000   10.0000    0.0000

 Populations of individual BAS functions
 ----------------------------------------
 1 Br           0.3604  1.5689  2.0728  0.7136  0.7136  0.7136  1.2644  1.2644  1.2644  1.4494
                0.5676  1.1356  1.1356  1.1356  0.8920  0.8920  0.8920  0.2683  0.4025  0.4025
                0.2683  0.4025  0.2683  0.7743  1.1615  1.1615  0.7743  1.1615  0.7743  0.2907
                0.4361  0.4361  0.2907  0.4361  0.2907  0.2958  1.2583  0.4268  0.5585  0.5585
                0.5585  0.8946  0.8946  0.8946  0.2080  0.2080  0.2080 -0.0001 -0.0001 -0.0001
               -0.0001 -0.0001 -0.0001  0.0000  0.0000  0.0000  0.0000  0.0000  0.0000  0.0000
                0.0000  0.0000  0.0000

 Gross Charges per Atom (Z minus electrons)
 ==========================================
             0.0000
 Net Total:  0.00000000



 =======================================================================
 Electrostatic potential at the Nuclei due to electrons and other nuclei
 =======================================================================
  
         Atom                  Potential
         ----                  ---------
     1)   Br                175.92949555
 
 
 ========================
 No memory problems found
 ========================
 
 Maximum number of active allocate calls:         447
 
 *******************************************************************************

                             A D F   E X I T
 NORMAL TERMINATION



 =================
 Timing Statistics
 =================
  
 Total Used :                     CPU=        1.30      System=        0.05     Elapsed=        1.35

 Calls  Section                     ( Mean, Percentage )
 ---------------------------------------------------------------------------------------------------
     3  ><      ................      0.00    0.00             0.00    0.00             0.00    0.06
     1  INIT    ................      0.01    1.08             0.02   38.77             0.03    2.57
     1  GEOMET  ................      0.01    0.46             0.01   16.33             0.01    1.00
     1  INPUTA  ................      0.00    0.31             0.00    0.00             0.00    0.24
     1  MAINSY  ................      0.01    0.54             0.00    2.04             0.01    0.59
     1  SYMFIT  ................      0.00    0.08             0.00    0.00             0.00    0.09
     1  CORORT  ................      0.00    0.00             0.00    0.00             0.00    0.03
     1  SYMORB  ................      0.00    0.15             0.00    0.00             0.00    0.12
     1  CLSMAT  ................      0.01    0.69             0.00    0.00             0.01    0.69
     1  ORTHON  ................      0.00    0.15             0.00    2.04             0.00    0.24
     1  GENPT   ................      0.03    2.62             0.00    2.04             0.03    2.55
     1  PTBAS   ................      0.01    0.46             0.00    0.00             0.01    0.48
    14  FOCKY   ................      0.08   81.33             0.00   24.49             0.08   79.18
    14  FOCKTR  ................      0.00    1.62             0.00    4.08             0.00    1.52
    14  SDIIS   ................      0.00    2.70             0.00    2.04             0.00    2.86
     1  COREPS  ................      0.06    4.86             0.00    0.00             0.06    4.64
     1  POPAN   ................      0.01    0.69             0.00    0.00             0.01    0.69
     1  DEBYE   ................      0.00    0.08             0.00    0.00             0.00    0.10
     1  EXIT PROCEDURE .........      0.03    2.16             0.00    8.16             0.03    2.36


 Currently Open Files (EXIT00)
 ====================

 Unit    Access Format  Status   Type       Ident (file)
 -------------------------------------------------------
   3      SEQ    FORM   TRANSP  NORMAL      LOGFILE
                                          ( logfile )


 Buffered I/O statistics
 =======================
 Memory available:                     67108864
 Number of records fitting in memory:     16131
 Input :   0.1% of                        29670  *4k bytes
 Output:  12.0% of                         1573  *4k bytes
 Records from serial files evicted:           0
                    others evicted:           0
 Hash table lookups:      77031 with          0 conflicts (  0.00%)

 ***************************************************************************************************
 (LOGFILE)
 <May09-2019> <16:32:25>  ADF 2017  RunTime: May09-2019 16:32:25  Nodes: 1  Procs: 1
 <May09-2019> <16:32:25>  Bromine (TZ2P)
 <May09-2019> <16:32:25>  RunType   : CREATE
 <May09-2019> <16:32:25>  Net Charge: 0 (Nuclei minus Electrons)
 <May09-2019> <16:32:25>  Symmetry  : ATOM
  Coordinates
    Atom         X           Y           Z   (Angstrom)
    1.Br        0.000000    0.000000    0.000000
 <May09-2019> <16:32:25>  >>>> CORORT
 <May09-2019> <16:32:25>  >>>> CLSMAT
 <May09-2019> <16:32:25>  >>>> ORTHON
 <May09-2019> <16:32:25>  >>>> GENPT
 <May09-2019> <16:32:25>  Block Length= 106
 <May09-2019> <16:32:25>  >>>> PTBAS
 <May09-2019> <16:32:25>  >>>> CYCLE
 <May09-2019> <16:32:25>              |Error|         MaxErr       Wt(A-DIIS)
 <May09-2019> <16:32:25>      1      0.00000000      0.00000000
 <May09-2019> <16:32:25>      2    133.90378859     33.00263884    100.0
 <May09-2019> <16:32:26>      3     49.62914370     17.59518881    100.0
 <May09-2019> <16:32:26>      4      9.09209484      2.12485505    100.0
 <May09-2019> <16:32:26>      5     11.70158419      3.98842598    100.0
 <May09-2019> <16:32:26>      6      1.82354005      0.45661929    100.0
 <May09-2019> <16:32:26>      7      1.60769584      0.41584263    100.0
 <May09-2019> <16:32:26>      8      0.06575401      0.01946729     18.7
 <May09-2019> <16:32:26>      9      0.02601319      0.00809116      7.2
 <May09-2019> <16:32:26>     10      0.00046367      0.00010037      0.0
 <May09-2019> <16:32:26>     11      0.00001086      0.00000278      0.0
 <May09-2019> <16:32:26>     12      0.00000025      0.00000006      0.0
 <May09-2019> <16:32:26>     13      0.00000001      0.00000000      0.0
 <May09-2019> <16:32:26>  SCF converged
 <May09-2019> <16:32:26>     14      0.00000000      0.00000000      0.0
 <May09-2019> <16:32:26>  >>>> POPAN
 <May09-2019> <16:32:26>  >>>> DEBYE
 <May09-2019> <16:32:26>  NORMAL TERMINATION
 <May09-2019> <16:32:26>  END


 Parallel Execution: Process Information
 ==============================================================================
 Rank   Node Name                              NodeID   MyNodeRank  NodeMaster
    0   BAZIS-cn026                               0          0          0
    1   BAZIS-cn026                               0          1         -1
    2   BAZIS-cn026                               0          2         -1
    3   BAZIS-cn026                               0          3         -1
    4   BAZIS-cn026                               0          4         -1
    5   BAZIS-cn026                               0          5         -1
    6   BAZIS-cn026                               0          6         -1
    7   BAZIS-cn026                               0          7         -1
    8   BAZIS-cn026                               0          8         -1
    9   BAZIS-cn026                               0          9         -1
   10   BAZIS-cn026                               0         10         -1
   11   BAZIS-cn026                               0         11         -1
 ==============================================================================


May use up to 30771MB of RAM as shared memory on node 0


XC
  GGA blyp
  DISPERSION Grimme3 BJDAMP
END

SCF
  iterations 250
END

SYMMETRY nosym
CHARGE -1

ZLMFIT
  Quality normal
END

BECKEGRID
  Quality good
End

ATOMS
    3.Br       -5.988106    4.973840   -0.200180
END

Fragments
Br t21.Br
End
end input

 *******************************************************************************
 *                                                                             *
 *  -------------------------------------                                      *
 *   Amsterdam Density Functional  (ADF)         2017                          *
 *  -------------------------------------                                      *
 *                                               r58813 2017-04-12             *
 *                                                                             *
 *                                                                             *
 *                              =================                              *
 *                              |               |                              *
 *                              |     A D F     |                              *
 *                              |               |                              *
 *                              =================                              *
 *                                                                             *
 *                                                                             *
 *   Online information and documentation:  https://www.scm.com/support/       *
 *   E-mail:  support@scm.com   info@scm.com                                   *
 *                                                                             *
 *   Scientific publications using ADF results must be properly referenced     *
 *   See the User Manuals (or the web site) for recommended citations          *
 *   The terms and conditions of the End User License Agreement apply to       *
 *   the use of ADF, https://www.scm.com/license-terms/                        *
 *                                                                             *
 **********************  x86_64_linux_intel / intelmpi  ************************
 
 Licensed to: VU/FEW (+ SARA) / ALGEMEEN / Amsterdam / THE NETHERLANDS
 SCM User ID: u7668
  
 ADF 2017  RunTime: May09-2019 16:32:27  Nodes: 1  Procs: 12

 Temporary files are created in /local/datastore0/tcst25/189687/kid_0.EagnTO


Communication costs MPI_COMM_WORLD:      3.825 usec per message,   0.0176 usec per 8-byte item
Communication costs for intra-node:      3.851 usec per message,   0.0175 usec per 8-byte item

 *** (NO TITLE) ***



 ===========================
 A T T A C H E D   F I L E S
 ===========================
  



 ===============================
 M O D E L   P A R A M E T E R S
 ===============================
  
 DENSITY FUNCTIONAL POTENTIAL (scf)
    LDA:                               Exchange only                           == Not Default ==
    Gradient Corrections:              Becke88 LYP                             == Not Default ==

 SPIN  (restricted / unrestr.)
    Molecule:                          Restricted                               
    Fragments:                         Restricted                               

 OTHER ASPECTS
    Relativistic Corrections:          ---                                      

    Nuclear Charge Density Model:      Point Charge Nuclei                      
    Core Treatment:                    Frozen Orbital(s)                        

    Hyperfine or Zeeman Interaction:   ---                                      

 Settings for Grimme 3 dispersion correction

      damping                        BJ
      s6                          1.000
      a1                          0.430
      s8                          2.700
      a2                          4.236

 Other (technical) parameters

      alpha                      14.000
      version                         4
 


 Fragment File(s)
 ----------------
 Br:
         file : t21.Br
         jobid: ADF 2017  RunTime: May09-2019 16:32:25  Nodes: 1  Procs: 1
         title: Bromine (TZ2P)



                                        ************************************
                                        *  R U N   T Y P E : SINGLE POINT  *
                                        ************************************
  



 ===============
 G E O M E T R Y  ***  Single Atom  ***
 ===============
  

 ATOMS
 =====                            X Y Z                    CHARGE
                                (Angstrom)             Nucl     +Core       At.Mass
                       --------------------------    ----------------       -------
    1  Br             -5.9881    4.9738   -0.2002     35.00     35.00       78.9183


 FRAGMENTS
 =========                                     Atoms in this Fragment     Cart. coord.s (Angstrom)
                                               -------------------------------------------------------
    1  Br                                                1  Br          -5.9881    4.9738   -0.2002



 =====================================
 S Y M M E T R Y ,   E L E C T R O N S
 =====================================
  
 Symmetry: NOSYM

 Irreducible Representations, including subspecies
 -------------------------------------------------
 A


 Configuration of Valence Electrons
 ==================================
 ( determined in the SCF procedure )

 Total:   36

 Net Charge: -1 (Nuclei minus Electrons)

 Aufbau principle for MO occupations will be applied through SCF cycle no.     125
 Thereafter, the program will assign electrons to MOs that are spatially
 similar to the occupied MOs in a "reference" cycle ("KeepOrbitals").
 The reference cycle is always the PREVIOUS cycle: it will evolve with
 the SCF procedure.
1
 ***************************************************************************************************



                                      ****************************************
                                      *  B U I L D : (Fragments, Functions)  *
                                      ****************************************
  



 =======
 S F O s  ***  (Symmetrized Fragment Orbitals)  ***
 =======
  
 SFOs are linear combinations of (valence) Fragment Orbitals (FOs), such that the SFOs transform as the
 irreducible representations of the (molecular) symmetry group. Each SFO is therefore characterized by
 an irrep of the molecule and by a few (or only one) generating FOs.
 The SFOs constitute a symmetry-adapted basis for the Fock matrix. The MO eigenvector coefficients in
 this basis provide a direct interpretation of the MOs in terms of Frontier Orbital Theory.

 The SFOs are combined with auxiliary Core Functions (CFs) to ensure orthogonalization on the (frozen)
 Core Orbitals (COs). The Core-orthogonalized SFOs (CSFOs) constitute the true Fock basis.

 The FOs, and hence also the (C)SFOs are combinations of the elementary basis functions (BAS). The basis
 functions that participate in the description of the SFOs depend on the irrep. The indices of the
 involved functions are printed below for each irrep.
 (The complete list of primitive basis functions is printed in another section)

 Total nr. of (C)SFOs (summation over all irreps) :    56

 NOTE: a (C)SFO that is defined as a combination of more than one FO is usually NOT normalized.



                                       === A ===
 Nr. of SFOs :   56
 Cartesian basis functions that participate in this irrep (total number =    63) :
      1     2     3    10    11    36    37    38     4     7
     12    15    39    42    45     5     8    13    16    40
     43    46     6     9    14    17    41    44    47    18
     24    30    48    19    25    31    49    20    26    32
     50    21    27    33    51    22    28    34    52    23
     29    35    53    54    55    56    57    58    59    60
     61    62    63

    SFO  (index         Fragment          Generating    Expansion in Fragment Orbitals
  indx  incl.CFs)   Occup   Orb.Energy   FragmentType  Coeff.   Orbital     on Fragment
 --------------------------------------------------------------------------------------
     1       1      2.000    -481.013 au  Br            1.00      1 S               1
                        (  -13089.023 eV)
     2       2      2.000     -61.780 au  Br            1.00      2 S               1
                        (   -1681.121 eV)
     3       3      2.000      -8.404 au  Br            1.00      3 S               1
                        (    -228.678 eV)
     4       4      2.000      -0.706 au  Br            1.00      4 S               1
                        (     -19.222 eV)
     5       5       --         0.238 au  Br            1.00      5 S               1
                        (       6.476 eV)
     6       6       --         2.466 au  Br            1.00      6 S               1
                        (      67.092 eV)
     7       7       --        14.294 au  Br            1.00      7 S               1
                        (     388.950 eV)
     8       8       --       746.479 au  Br            1.00      8 S               1
                        (   20312.736 eV)
     9       9      2.000     -55.709 au  Br            1.00      1 P:x             1
                        (   -1515.929 eV)
    10      10      2.000      -6.304 au  Br            1.00      2 P:x             1
                        (    -171.530 eV)
    11      11      1.667      -0.285 au  Br            1.00      3 P:x             1
                        (      -7.755 eV)
    12      12       --         0.137 au  Br            1.00      4 P:x             1
                        (       3.718 eV)
    13      13       --         1.215 au  Br            1.00      5 P:x             1
                        (      33.064 eV)
    14      14       --         8.835 au  Br            1.00      6 P:x             1
                        (     240.419 eV)
    15      15       --       100.877 au  Br            1.00      7 P:x             1
                        (    2745.004 eV)
    16      16      2.000     -55.709 au  Br            1.00      1 P:y             1
                        (   -1515.929 eV)
    17      17      2.000      -6.304 au  Br            1.00      2 P:y             1
                        (    -171.530 eV)
    18      18      1.667      -0.285 au  Br            1.00      3 P:y             1
                        (      -7.755 eV)
    19      19       --         0.137 au  Br            1.00      4 P:y             1
                        (       3.718 eV)
    20      20       --         1.215 au  Br            1.00      5 P:y             1
                        (      33.064 eV)
    21      21       --         8.835 au  Br            1.00      6 P:y             1
                        (     240.419 eV)
    22      22       --       100.877 au  Br            1.00      7 P:y             1
                        (    2745.004 eV)
    23      23      2.000     -55.709 au  Br            1.00      1 P:z             1
                        (   -1515.929 eV)
    24      24      2.000      -6.304 au  Br            1.00      2 P:z             1
                        (    -171.530 eV)
    25      25      1.667      -0.285 au  Br            1.00      3 P:z             1
                        (      -7.755 eV)
    26      26       --         0.137 au  Br            1.00      4 P:z             1
                        (       3.718 eV)
    27      27       --         1.215 au  Br            1.00      5 P:z             1
                        (      33.064 eV)
    28      28       --         8.835 au  Br            1.00      6 P:z             1
                        (     240.419 eV)
    29      29       --       100.877 au  Br            1.00      7 P:z             1
                        (    2745.004 eV)
    30      30      2.000      -2.512 au  Br            1.00      1 D:z2            1
                        (     -68.344 eV)
    31      31       --         0.263 au  Br            1.00      2 D:z2            1
                        (       7.151 eV)
    32      32       --         2.677 au  Br            1.00      3 D:z2            1
                        (      72.855 eV)
    33      33       --        20.606 au  Br            1.00      4 D:z2            1
                        (     560.715 eV)
    34      34      2.000      -2.512 au  Br            1.00      1 D:x2-y2         1
                        (     -68.344 eV)
    35      35       --         0.263 au  Br            1.00      2 D:x2-y2         1
                        (       7.151 eV)
    36      36       --         2.677 au  Br            1.00      3 D:x2-y2         1
                        (      72.855 eV)
    37      37       --        20.606 au  Br            1.00      4 D:x2-y2         1
                        (     560.715 eV)
    38      38      2.000      -2.512 au  Br            1.00      1 D:xy            1
                        (     -68.344 eV)
    39      39       --         0.263 au  Br            1.00      2 D:xy            1
                        (       7.151 eV)
    40      40       --         2.677 au  Br            1.00      3 D:xy            1
                        (      72.855 eV)
    41      41       --        20.606 au  Br            1.00      4 D:xy            1
                        (     560.715 eV)
    42      42      2.000      -2.512 au  Br            1.00      1 D:xz            1
                        (     -68.344 eV)
    43      43       --         0.263 au  Br            1.00      2 D:xz            1
                        (       7.151 eV)
    44      44       --         2.677 au  Br            1.00      3 D:xz            1
                        (      72.855 eV)
    45      45       --        20.606 au  Br            1.00      4 D:xz            1
                        (     560.715 eV)
    46      46      2.000      -2.512 au  Br            1.00      1 D:yz            1
                        (     -68.344 eV)
    47      47       --         0.263 au  Br            1.00      2 D:yz            1
                        (       7.151 eV)
    48      48       --         2.677 au  Br            1.00      3 D:yz            1
                        (      72.855 eV)
    49      49       --        20.606 au  Br            1.00      4 D:yz            1
                        (     560.715 eV)
    50      50       --         0.851 au  Br            1.00      1 F:z3            1
                        (      23.147 eV)
    51      51       --         0.851 au  Br            1.00      1 F:z             1
                        (      23.147 eV)
    52      52       --         0.851 au  Br            1.00      1 F:xyz           1
                        (      23.147 eV)
    53      53       --         0.851 au  Br            1.00      1 F:z2x           1
                        (      23.147 eV)
    54      54       --         0.851 au  Br            1.00      1 F:z2y           1
                        (      23.147 eV)
    55      55       --         0.851 au  Br            1.00      1 F:x             1
                        (      23.147 eV)
    56      56       --         0.851 au  Br            1.00      1 F:y             1
                        (      23.147 eV)



 ================================
 (Slater-type)  F U N C T I O N S  ***  (Basis and Fit)  ***
 ================================
  

 Atom Type    1  (Br)
 ==============

 Valence Basis Sets:  20
 -----------------------
   1 S   41.300000
   1 S   32.800000
   2 S   13.900000
   2 P   19.450000
   2 P   13.100000
   3 S    7.200000
   3 S    4.950000
   3 P    7.900000
   3 P    5.050000
   3 D   10.900000
   3 D    6.050000
   3 D    3.500000
   4 S    4.500000
   4 S    2.800000
   4 S    1.800000
   4 P    3.250000
   4 P    1.950000
   4 P    1.200000
   4 D    1.800000
   4 F    1.800000


 BAS: List of all Elementary Cartesian Basis Functions
 =====================================================

 The numbering in the list below (to the right of the function characteristics) is referred
 to in print-outs of MO eigenvectors and Mulliken populations in the BAS representation
 (as contrasted to the SFO representation).

 Notes:
 1. The functions are characterized by a polynomial prefactor (powers of x,y,z and r) and
    an exponential decay factor alpha.
 2. Since the basis sets are specific for an atom TYPE, the individual functions occur on
    all atoms of that type.
 3. The word 'Core' in the left margin signals that it is a Core Function (CF) : not a
    degree of freedom in the valence set, but only used to ensure orthogonalization of
    the other valence basis functions on the frozen Core Orbitals.


 (power of) X  Y  Z  R     Alpha  on Atom
            ==========     =====     ==========

 Br                                   1
                                  ---------------------------------------------------------------------------
            0  0  0  0    41.300      1
            0  0  0  0    32.800      2
            0  0  0  1    13.900      3
            1  0  0  0    19.450      4
            0  1  0  0    19.450      5
            0  0  1  0    19.450      6
            1  0  0  0    13.100      7
            0  1  0  0    13.100      8
            0  0  1  0    13.100      9
            0  0  0  2     7.200     10
            0  0  0  2     4.950     11
            1  0  0  1     7.900     12
            0  1  0  1     7.900     13
            0  0  1  1     7.900     14
            1  0  0  1     5.050     15
            0  1  0  1     5.050     16
            0  0  1  1     5.050     17
            2  0  0  0    10.900     18
            1  1  0  0    10.900     19
            1  0  1  0    10.900     20
            0  2  0  0    10.900     21
            0  1  1  0    10.900     22
            0  0  2  0    10.900     23
            2  0  0  0     6.050     24
            1  1  0  0     6.050     25
            1  0  1  0     6.050     26
            0  2  0  0     6.050     27
            0  1  1  0     6.050     28
            0  0  2  0     6.050     29
            2  0  0  0     3.500     30
            1  1  0  0     3.500     31
            1  0  1  0     3.500     32
            0  2  0  0     3.500     33
            0  1  1  0     3.500     34
            0  0  2  0     3.500     35
            0  0  0  3     4.500     36
            0  0  0  3     2.800     37
            0  0  0  3     1.800     38
            1  0  0  2     3.250     39
            0  1  0  2     3.250     40
            0  0  1  2     3.250     41
            1  0  0  2     1.950     42
            0  1  0  2     1.950     43
            0  0  1  2     1.950     44
            1  0  0  2     1.200     45
            0  1  0  2     1.200     46
            0  0  1  2     1.200     47
            2  0  0  1     1.800     48
            1  1  0  1     1.800     49
            1  0  1  1     1.800     50
            0  2  0  1     1.800     51
            0  1  1  1     1.800     52
            0  0  2  1     1.800     53
            3  0  0  0     1.800     54
            2  1  0  0     1.800     55
            2  0  1  0     1.800     56
            1  2  0  0     1.800     57
            1  1  1  0     1.800     58
            1  0  2  0     1.800     59
            0  3  0  0     1.800     60
            0  2  1  0     1.800     61
            0  1  2  0     1.800     62
            0  0  3  0     1.800     63

 Total number of charge fitting functions (nprimf)       170
 Total number of Cartesian basis functions (naos)         63
 Total number of Cartesian core functions  (ncos)          0

1
 ***************************************************************************************************



                                              ***********************
                                              *  T E C H N I C A L  *
                                              ***********************
  



 =============================================================
 P A R A L L E L I Z A T I O N  and  V E C T O R I Z A T I O N
 =============================================================
  
 Nr of parallel processes:                               12
 Maximum vector length in NumInt loops:                 128

 IO buffersize (Mb):                                     64.000000



 =====================
 S C F   U P D A T E S
 =====================
  
 Max. nr. of cycles:                               250
 Convergence criterion:                              0.0000010000
   secondary criterion:                              0.0010000000

 Mix parameter (when DIIS does not apply):           0.2000000000
 Mixed ADIIS+DIIS will be used
    Max number of expansion vectors:                10
    Pure ADIIS when Max([F,P]) is above              0.1000000000
    Pure DIIS when Max([F,P]) is below               0.0010000000
 Automatic ElectronSmearing (in case of problematic SCF convergence) disabled



 =================
 P R E C I S I O N  ***  (General: NumInt, NeglectFunctionTails, ...)  ***
 =================
  

 NumInt:           Target precision:                 6.0000000000
 -------           Initial precision:                6.0000000000
                   Min. precision (optimization):    6.0000000000

 Neglect Functions:          Basis functions:        0.1000000000E-07
 ------------------          Fit functions:          0.1000000000E-07



 ===========================
 L I N E A R   S C A L I N G
 ===========================
  

 Cut-off radii density fit:                        0.1000000000E-09
 Overlap cut-off criterion AO matrix elements:     0.1000000000E-07
 Cut-offs for Coulomb potential and fitted density:0.1000000000E-09
 Cut-off criterion for Coulomb multipole terms:    0.1000000000E-09
 Progressive Convergence parameter:                 0.000000000    
1
 ***************************************************************************************************



                                            ***************************
                                            *  C O M P U T A T I O N  *
                                            ***************************
  

 Number of elements of the density matrix on this node (used, total):      2016      2016



 ===========================================
 Numerical Integration : Fuzzy Cells (Becke)
 ===========================================
  
 Becke grid quality: GOOD           
  
 Lebedev angular grid order:             min:  11 max:  31
 Nr. of radial points:                   min:  90 max:  90

 Total nr. of points:       8820
 Nr. of blocks:               90
 Block length:                98
 Nr. of dummy points:          0


 Test of Precision of the Numerical Integration Grid
 ===================================================

 Integral of the Total Core Density:                   0.00000000000000



 ========================
 Density Fitting (zlmFit)
 ========================
  
 ZlmFit Fit Quality: NORMAL         
  
 Max L-expansion:                        min:   7 max:   7
 Nr. of radial interpolation points:     min:  72 max:  72



 =====
 S C F  ***  ScaSCF  ***
 =====
  
 Initial density matrix is calculated as sum of fragments

 CYCLE    1
 SCF Error: norm([F,P])=      0.016656915244, max([F,P])=      0.003918553956
 orbitals (Q,E):
 ---------------
 A :9...28           ( 2.00    -6.3099)  ( 2.00    -2.5177)  ( 2.00    -2.5177)  ( 2.00    -2.5177)
                     ( 2.00    -2.5177)  ( 2.00    -2.5177)  ( 2.00    -0.7090)  ( 2.00    -0.2872)
                     ( 2.00    -0.2872)  ( 2.00    -0.2872)  ( 0.00     0.1355)  ( 0.00     0.1355)
                     ( 0.00     0.1355)  ( 0.00     0.2364)  ( 0.00     0.2611)  ( 0.00     0.2611)
                     ( 0.00     0.2611)  ( 0.00     0.2611)  ( 0.00     0.2611)  ( 0.00     0.8490)

 CYCLE    2
  SDIIS (wt  0.000):  0.9761  0.0239
 A-DIIS (wt  1.000):  0.3112  0.6888
  DIIS coefficients:  0.3112  0.6888
 SCF Error: norm([F,P])=      0.368093012251, max([F,P])=      0.142158770954
 orbitals (Q,E):
 ---------------
 A :9...19           ( 2.00    -5.9131)  ( 2.00    -2.1222)  ( 2.00    -2.1222)  ( 2.00    -2.1222)
                     ( 2.00    -2.1222)  ( 2.00    -2.1222)  ( 2.00    -0.3963)  ( 2.00    -0.0092)
                     ( 2.00    -0.0092)  ( 2.00    -0.0092)  ( 0.00     0.3152)

 CYCLE    3
  SDIIS (wt  0.000):  1.1002 -0.0340 -0.0662
 A-DIIS (wt  1.000):  0.0314  0.2923  0.6763
  DIIS coefficients:  0.0314  0.2923  0.6763
 SCF Error: norm([F,P])=      0.376091726239, max([F,P])=      0.097903306512
 orbitals (Q,E):
 ---------------
 A :9...19           ( 2.00    -6.0233)  ( 2.00    -2.2312)  ( 2.00    -2.2312)  ( 2.00    -2.2312)
                     ( 2.00    -2.2312)  ( 2.00    -2.2312)  ( 2.00    -0.4103)  ( 2.00    -0.0028)
                     ( 2.00    -0.0028)  ( 2.00    -0.0028)  ( 0.00     0.3421)

 CYCLE    4
  SDIIS (wt  0.410):  0.1759  0.4071  0.4170
 A-DIIS (wt  0.590):  0.0000  0.1838  0.8162
  DIIS coefficients:  0.0722  0.2754  0.6524
 SCF Error: norm([F,P])=      0.239939753493, max([F,P])=      0.059373587487
 orbitals (Q,E):
 ---------------
 A :9...19           ( 2.00    -5.9438)  ( 2.00    -2.1517)  ( 2.00    -2.1517)  ( 2.00    -2.1517)
                     ( 2.00    -2.1517)  ( 2.00    -2.1517)  ( 2.00    -0.3773)  ( 2.00     0.0228)
                     ( 2.00     0.0228)  ( 2.00     0.0228)  ( 0.00     0.3554)

 CYCLE    5
  SDIIS (wt  0.754):  0.0141  0.0416  0.3188  0.6255
 A-DIIS (wt  0.246):  0.0000  0.0000  0.1667  0.8333
  DIIS coefficients:  0.0107  0.0314  0.2814  0.6766
 SCF Error: norm([F,P])=      0.104542357508, max([F,P])=      0.025356493810
 orbitals (Q,E):
 ---------------
 A :9...19           ( 2.00    -5.9689)  ( 2.00    -2.1768)  ( 2.00    -2.1768)  ( 2.00    -2.1768)
                     ( 2.00    -2.1768)  ( 2.00    -2.1768)  ( 2.00    -0.3871)  ( 2.00     0.0155)
                     ( 2.00     0.0155)  ( 2.00     0.0155)  ( 0.00     0.3520)

 CYCLE    6
  SDIIS (wt  0.972):  0.0003  0.0040 -0.0070  0.1045  0.8981
 A-DIIS (wt  0.028):  0.0000  0.0000  0.0000  0.0000  1.0000
  DIIS coefficients:  0.0003  0.0039 -0.0068  0.1016  0.9010
 SCF Error: norm([F,P])=      0.015513716487, max([F,P])=      0.003754510481
 orbitals (Q,E):
 ---------------
 A :9...19           ( 2.00    -5.9654)  ( 2.00    -2.1733)  ( 2.00    -2.1733)  ( 2.00    -2.1733)
                     ( 2.00    -2.1733)  ( 2.00    -2.1733)  ( 2.00    -0.3858)  ( 2.00     0.0165)
                     ( 2.00     0.0165)  ( 2.00     0.0165)  ( 0.00     0.3524)

 CYCLE    7
  SDIIS (wt  1.000):  0.0001 -0.0002 -0.0003  0.0008  0.0439  0.9556
  DIIS coefficients:  0.0001 -0.0002 -0.0003  0.0008  0.0439  0.9556
 SCF Error: norm([F,P])=      0.000641700392, max([F,P])=      0.000152003615
 orbitals (Q,E):
 ---------------
 A :9...19           ( 2.00    -5.9655)  ( 2.00    -2.1734)  ( 2.00    -2.1734)  ( 2.00    -2.1734)
                     ( 2.00    -2.1734)  ( 2.00    -2.1734)  ( 2.00    -0.3859)  ( 2.00     0.0164)
                     ( 2.00     0.0164)  ( 2.00     0.0164)  ( 0.00     0.3524)

 CYCLE    8
  SDIIS (wt  1.000):  0.0000 -0.0000 -0.0000  0.0000  0.0004  0.0085  0.9910
  DIIS coefficients:  0.0000 -0.0000 -0.0000  0.0000  0.0004  0.0085  0.9910
 SCF Error: norm([F,P])=      0.000001042212, max([F,P])=      0.000000357729
 orbitals (Q,E):
 ---------------
 A :9...19           ( 2.00    -5.9655)  ( 2.00    -2.1734)  ( 2.00    -2.1734)  ( 2.00    -2.1734)
                     ( 2.00    -2.1734)  ( 2.00    -2.1734)  ( 2.00    -0.3859)  ( 2.00     0.0164)
                     ( 2.00     0.0164)  ( 2.00     0.0164)  ( 0.00     0.3524)

 SCF CONVERGED

 CYCLE    9
1
 ***************************************************************************************************



                                                *******************
                                                *  R E S U L T S  *
                                                *******************
  
 *** Setting up for NEW gradients in Focky
 *** Using FIT density in Focky

 Orbital Energies, per Irrep and Spin:
 ======================================
                        Occup              E (au)              E (eV)       Diff (eV) with prev. cycle
                        -----      --------------------        ------       --------------------------
 A
               9        2.000     -0.59655146082813E+01      -162.330              -4.03E-07
              10        2.000     -0.21734497347990E+01       -59.143              -4.04E-07
              11        2.000     -0.21734497347989E+01       -59.143              -4.04E-07
              12        2.000     -0.21734497347986E+01       -59.143              -4.04E-07
              13        2.000     -0.21734497347980E+01       -59.143              -4.04E-07
              14        2.000     -0.21734497347980E+01       -59.143              -4.04E-07
              15        2.000     -0.38588405617863E+00       -10.500              -2.95E-07
              16        2.000      0.16410956318020E-01         0.447              -2.37E-07
              17        2.000      0.16410956318813E-01         0.447              -2.37E-07
              18        2.000      0.16410956319219E-01         0.447              -2.37E-07
              19        0.000      0.35238961072893E+00         9.589
              20        0.000      0.35238961072956E+00         9.589
              21        0.000      0.35238961072982E+00         9.589
              22        0.000      0.50103040473103E+00        13.634
              23        0.000      0.55143398669840E+00        15.005
              24        0.000      0.55143398669885E+00        15.005
              25        0.000      0.55143398669992E+00        15.005
              26        0.000      0.55143398670044E+00        15.005
              27        0.000      0.55143398670105E+00        15.005
              28        0.000      0.11406154187189E+01        31.038
  
 HOMO :       18 A                 0.16410956319219E-01
 LUMO :       19 A                 0.35238961072893E+00
  


 All Electron Calculation, thus no Orbital Energies of the Core Orbitals are calculated


 Fit test: (difference of exact and fit density, squared integrated, result summed over spins)
         Sum-of-Fragments:                             0.00000005510966
         Orthogonalized Fragments:                     0.00076843642318
         SCF:                                          0.00076828901789



 ==========================
 Electron Density at Nuclei
 ==========================
  
 The electron density is calculated at points on a small sphere around the center of a nucleus.
 The printed electron density is the average electron density on these points.
 The radius of the sphere is the printed approximate finite nuclear radius.

         Atom        Nuclear Radius (Angstrom)             Electron Density (a.u.)
         ----        -------------------------             -----------------------
     1)   Br                0.0000536685                            29305.57830



 =======================================
 M U L L I K E N   P O P U L A T I O N S
 =======================================
  
 The survey below gives for each atom:
 a) the total charge (Z minus electrons)
 b) the net spin polarization (nr of electrons spin-A minus spin-B)
 c) for each spin the atomic electron valence density (integrated) per L-value.

 Atom              Charge    Spin density          S         P         D         F
 ----              ------    ------------       ------    ------    ------    ------
 1 Br             -1.0000                       8.0000   18.0000   10.0000    0.0000

 Populations of individual BAS functions
 ----------------------------------------
 1 Br           0.3604  1.5689  2.0729  0.7138  0.7138  0.7138  1.2643  1.2643  1.2643  1.4475
                0.5632  1.1365  1.1365  1.1365  0.8886  0.8886  0.8886  0.2683  0.4025  0.4025
                0.2683  0.4025  0.2683  0.7742  1.1614  1.1614  0.7742  1.1614  0.7742  0.2907
                0.4360  0.4360  0.2907  0.4360  0.2907  0.3129  1.1537  0.5206  0.6181  0.6181
                0.6181  0.8623  0.8623  0.8623  0.5164  0.5164  0.5164  0.0001  0.0001  0.0001
                0.0001  0.0001  0.0001 -0.0000  0.0000  0.0000  0.0000  0.0000  0.0000  0.0000
               -0.0000 -0.0000 -0.0000

 Gross Charges per Atom (Z minus electrons)
 ==========================================
            -1.0000
 Net Total: -1.00000000


 Atom-Atom Population Matrix (off-diagonal elements not doubled)
 ===============================================================

     1 :    36.0000



 =================================================
 H I R S H F E L D   C H A R G E   A N A L Y S I S
 =================================================
  
 For each fragment: the (numerical) integral of rho(scf) * rho(fragment)/rho(sum-of-fragments)
 (nuclear charges are included, electrons are counted negative)

 The fragments and their ordering are defined in the early G E O M E T R Y output section.
 If you use single-atom fragments, this usually implies that all atoms of the same
 chemical type are grouped together. This may not be the order in which you listed them
 in the input file!

    1  Br                       -1.0000

 Sum of these charges (accuracy NumInt/Tails) =          -1.00000000



 =============================
 V O R O N O I   C H A R G E S
 =============================
  
 For each atom: the (numerical) integral of the total electronic charge density in its Voronoi cell,
 i.e. the region of space that is closer to that atom than to any other atom.
 (cf. Wigner-Seitz cells in crystals)

 Within the Voronoi cell the subintegrals over the atomic sphere and the remaining part are evaluated
 separately to give the numbers of electrons (negative charge) in these regions.
 The net total charge in the cell (including the nuclear charge) is also given.

 Values are provided for
    a) the Initial (sum-of-fragments) density
    b) the Orthogonalized-Fragments density
    c) the SCF density
    d) the Voronoi Deformation Density (VDD): the difference SCF-Initial for the complete atomic cell
 ---------------------------------------------------------------------------------------------------
 Total NetCharge:               0.000                      0.000                     -1.000   -1.000
 (accuracy NumInt/Tails)

 Remark: the 'NetTotal' Voronoi charges often do not match the Mulliken and/or Hirshfeld charges very
 well. This is caused by the fact that chemically different atoms are not treated in accordance with
 their relative sizes. (Voronoi cells are defined by boundary planes halfway between the atoms.)
 However, the CHANGES in charge, comparing 'Initial' to 'SCF' for instance, do give a fair indication
 of the flow of charge caused by the relaxation from sum-of-fragments to self-consistency.

 Warning: the absolute accuracy of the VDD charges obtained using the Fuzzy Cells (Becke) integration
 scheme is much poorer than the one obtained with an 'equivalent' Voronoi integration grid. 



 =================================================================
 M U L T I P O L E   D E R I V E D   C H A R G E   A N A L Y S I S
 =================================================================

 This charge analysis uses the atomic multipoles (obtained from the fitted density) up to some level X,
 and reconstructs these multipoles exactly (up to level X) by distributing charges over all atoms.
 This is achieved by using Lagrange multipliers and a weight function to keep the multipoles local.

 Dummy atoms can be included (by setting INCDUM in MDC-block to 1) to obtain a fractional charge.
 This is generally useful and necessary only for small symmetrical molecules, when there are not
 enough degrees of freedom to reconstruct the multipoles.

 Since the atomic multipoles are reconstructed up to level X,
 the molecular multipoles are represented also up to level X.
 The recommended level is to reconstruct up to quadrupole : -> MDC-q charges.

 See: M. Swart, P.Th. van Duijnen, J.G. Snijders, J.Comput.Chem., (2001), p. 79-88.

 ------------------------------------------------------------- 
 Atomic electronic multipole moments from SCF equations (a.u.)
 ------------------------------------------------------------- 

   atom        charge        dip-x     dip-y     dip-z      quad-xx   quad-xy   quad-xz   quad-yy   quad-yz   quad-zz
 --------------------------------------------------------------------------------------------------------------------
    1 Br    -1.000000     0.000000 -0.000000  0.000000     0.000000  0.000000  0.000000  0.000000  0.000000 -0.000000

 --------------------------------------- 
 Multipole derived atomic charges (a.u.)
 --------------------------------------- 

 The MDC-m charges are just the Monopole terms in the multipole expansion, while for the MDC-d charges
 also the Dipoles are reconstructed. The usually preferred charges are the MDC-q charges.
 These reconstruct the Monopoles, Dipoles and Quadrupoles (both atomic AND molecular).

        Atom    Level:     MDC-m        MDC-d        MDC-q
 ---------------------------------------------------------
     1     Br          -1.000000    -1.000000    -1.000000

 ------------------------------------------------ 
 Average absolute deviations in atomic multipoles
 ------------------------------------------------ 

 Stated here are the average differences between the atomic multipoles
 and the reconstructed atomic multipoles (from the distributed charges).
 If these values are not zero, this means there are not enough degrees of freedom,
 to be able to reconstruct the atomic multipoles. (This usually happens only
 for small and/or highly symmetric molecules). If this is the case, one could add
 dummy atoms as extra point charges (and setting INCDUM in MDC-block to 1).

 Level:                                 MDC-d        MDC-q
 ---------------------------------------------------------
 Charge   (a.u.)                       0.0000       0.0000
 Dipole   (Debye)                      0.0000       0.0000
 Quad.    (a.u.)                       0.0000       0.0000

 --------------------------------------- 
 Represented molecular multipole moments
 --------------------------------------- 

 Given here are the Molecular multipole moments from the atomic charges, and from the Fit Density.
 Note that the atomic charges represent the latter, NOT the ones from the Exact density.

            Q (a.u.)             Dipole moment (Debye)                                          Quadrupole moment (a.u.)
                                 x         y         z              xx        xy        xz        yy        yz        zz
------------------------------------------------------------------------------------------------------------------------
MDC-m        -1.0000       28.7621  -23.8904    0.9615        -83.8052  159.5403   -6.4209  -24.2488    5.3334  108.0539
MDC-d        -1.0000       28.7621  -23.8904    0.9615        -83.8052  159.5403   -6.4209  -24.2488    5.3334  108.0539
MDC-q        -1.0000       28.7621  -23.8904    0.9615        -83.8052  159.5403   -6.4209  -24.2488    5.3334  108.0539
 
Fit.Dens.    -1.0000       28.7621  -23.8904    0.9615        -83.8052  159.5403   -6.4209  -24.2488    5.3334  108.0539



 =============
 Dipole Moment  ***  (Debye)  ***
 =============
  
 Vector   :        28.76209700    -23.89037010      0.96150545
 Magnitude:        37.40230609

 This molecular dipole moment is calculated with analytic integration
 ************************************************************************************
 Since the molecule is NOT NEUTRAL, the dipole moment depends on the choice of origin
 ************************************************************************************



 =========================================
 Quadrupole Moment (Buckingham convention)  ***  (a.u.)  ***
 =========================================
  
      quad-xx        quad-xy        quad-xz        quad-yy        quad-yz        quad-zz
    -83.80516114   159.54025558    -6.42094807   -24.24875004     5.33336724   108.05391118

 This molecular quadrupole moment is calculated with analytic integration
1



 ===========================
 B O N D I N G   E N E R G Y  ***  (decomposition)  ***
 ===========================
  
*** IMPORTANT NOTE ***

The bond energy is computed as an energy difference between molecule and
fragments. In particular when the fragments are single atoms, they are usually
computed as SPHERICALLY SYMMETRIC and SPIN-RESTRICTED. Obviously, this usually
does NOT represent the true atomic groundstate.

To obtain the 'real' bond energy, (atomic) correction terms must be applied
for the true (multiplet) fragment ground state. See ref: E.J.Baerends,
V.Branchadell, M.Sodupe, Chem.Phys.Lett.265 (1997) 481

General theoretical background on the bond energy decomposition scheme used
here (Morokuma-Ziegler) can be found in the review paper:
F.M. Bickelhaupt and E.J. Baerends,
"Kohn-Sham Density Functional Theory: Predicting and Understanding Chemistry"
In: Rev. Comput. Chem.; Lipkowitz, K. B. and Boyd, D. B., Eds.;
Wiley-VCH: New York, 2000, Vol. 15, 1-86.

Symbols used in the Bickelhaupt-Baerends (BB) paper are given below to make
the direct connection to that paper, where detailed explanations can be found
on the meaning of the various terms.


                                                   hartree              eV         kcal/mol           kJ/mol
                                      --------------------     -----------       ----------      -----------

Pauli Repulsion
  Kinetic (Delta T^0):                   0.000000000000000          0.0000             0.00             0.00
  Delta V^Pauli Coulomb:                -0.000022988431594         -0.0006            -0.01            -0.06
  Delta V^Pauli LDA-XC:                 -0.000000000000003         -0.0000            -0.00            -0.00
  Delta V^Pauli GGA-Exchange:           -0.000000000000002         -0.0000            -0.00            -0.00
  Delta V^Pauli GGA-Correlation:        -0.000000000000000         -0.0000            -0.00            -0.00
                                      --------------------     -----------       ----------      -----------
  Total Pauli Repulsion:                -0.000022988431600         -0.0006            -0.01            -0.06
 (Total Pauli Repulsion =
  Delta E^Pauli in BB paper)

Steric Interaction
  Pauli Repulsion (Delta E^Pauli):      -0.000022988431600         -0.0006            -0.01            -0.06
  Electrostatic Interaction:             0.000000000000000          0.0000             0.00             0.00
 (Electrostatic Interaction =
  Delta V_elstat in the BB paper)
                                      --------------------     -----------       ----------      -----------
  Total Steric Interaction:             -0.000022988431600         -0.0006            -0.01            -0.06
 (Total Steric Interaction =
  Delta E^0 in the BB paper)

Orbital Interactions
  A:                                    -0.129580566599199         -3.5261           -81.31          -340.21
                                      --------------------     -----------       ----------      -----------
  Total Orbital Interactions:           -0.129580566599199         -3.5261           -81.31          -340.21

Alternative Decomposition Orb.Int.
  Kinetic:                               0.278941994023360          7.5904           175.04           732.36
  Coulomb:                              -0.142696178531692         -3.8830           -89.54          -374.65
  XC:                                   -0.265826382090866         -7.2335          -166.81          -697.93
                                      --------------------     -----------       ----------      -----------
  Total Orbital Interactions:           -0.129580566599199         -3.5261           -81.31          -340.21

  Residu (E=Steric+OrbInt+Res):          0.000006666180573          0.0002             0.00             0.02
  Dispersion Energy:                     0.000000000000000          0.0000             0.00             0.00

Total Bonding Energy:                   -0.129596888850226         -3.5265           -81.32          -340.26


Summary of Bonding Energy (energy terms are taken from the energy decomposition above)
======================================================================================

  Electrostatic Energy:                  0.000000000000000          0.0000             0.00             0.00
  Kinetic Energy:                        0.278941994023360          7.5904           175.04           732.36
  Coulomb (Steric+OrbInt) Energy:       -0.142712500782713         -3.8834           -89.55          -374.69
  XC Energy:                            -0.265826382090872         -7.2335          -166.81          -697.93
  Dispersion Energy:                     0.000000000000000          0.0000             0.00             0.00
                                      --------------------     -----------       ----------      -----------
  Total Bonding Energy:                 -0.129596888850225         -3.5265           -81.32          -340.26


Correction terms (incorporated in energies above; only for test purposes):

1. Indication of fit-quality: 1st-order fit-correction used in the energy (hartree):   0.0006161129
2. Electrostatic (Fit correction):   0.0000000000



 =========================================
 F R A G M E N T   E N E R G Y   T E R M S  ***  (summed over all fragments)  ***
 =========================================
  

The energy terms below are (parts of) the Total Energy of the fragments from which the molecule
 is built.

Exchange and Correlation
  Exchange LDA:                        -84.577058276778757      -2301.4589        -53072.91       -222057.04
  Exchange GGA:                         -5.064605760486324       -137.8149         -3178.09        -13297.12
  Correlation LDA:                       0.000000000000000          0.0000             0.00             0.00
  Correlation GGA:                      -1.693150815151635        -46.0730         -1062.47         -4445.37
                                      --------------------     -----------       ----------      -----------
  Total XC:                            -91.334814852416727      -2485.3468        -57313.47       -239799.52
1



 =======================================================
 S F O   P O P U L A T I O N S ,   M O   A N A L Y S I S
 =======================================================
  
 A Mulliken population analysis is performed on (input-)selected MOs. All populations refer to SFOs.
 BAS populations may have been printed directly after the SCF part.


                                       === A ===


 SFO contributions (%) per orbital
 (multiplication by the orbital occupation yields the SFO Gross Populations)

 Orb.:        9     10     11     12     13     14     15     16     17     18     19     20     21     22
 occup:     2.00   2.00   2.00   2.00   2.00   2.00   2.00   2.00   2.00   2.00   0.00   0.00   0.00   0.00
 CF+SFO     ----   ----   ----   ----   ----   ----   ----   ----   ----   ----   ----   ----   ----   ----
 ------
      4:    0.00   0.00   0.00   0.00   0.00   0.00  99.93   0.00   0.00   0.00   0.00   0.00   0.00   0.07
      5:    0.00   0.00   0.00   0.00   0.00   0.00   0.07   0.00   0.00   0.00   0.00   0.00   0.00  99.92
     11:    0.00   0.00   0.00   0.00   0.00   0.00   0.00  59.17  39.67   0.11   0.66   0.01   0.37   0.00
     12:    0.00   0.00   0.00   0.00   0.00   0.00   0.00   0.63   0.42   0.00  62.84   0.80  35.20   0.00
     18:    0.00   0.00   0.00   0.00   0.00   0.00   0.00  39.75  58.74   0.46   0.01   1.03   0.00   0.00
     19:    0.00   0.00   0.00   0.00   0.00   0.00   0.00   0.42   0.62   0.00   0.66  98.02   0.16   0.00
     24:  100.00   0.00   0.00   0.00   0.00   0.00   0.00   0.00   0.00   0.00   0.00   0.00   0.00   0.00
     25:    0.00   0.00   0.00   0.00   0.00   0.00   0.00   0.03   0.54  98.38   0.37   0.00   0.67   0.00
     26:    0.00   0.00   0.00   0.00   0.00   0.00   0.00   0.00   0.01   1.04  35.33   0.03  63.48   0.00
     30:    0.00   7.49   1.73  68.79   1.56  20.42   0.00   0.00   0.00   0.00   0.00   0.00   0.00   0.00
     34:    0.00   1.13  89.80   0.84   7.27   0.95   0.00   0.00   0.00   0.00   0.00   0.00   0.00   0.00
     38:    0.00   7.46   1.11  28.76  17.42  45.26   0.00   0.00   0.00   0.00   0.00   0.00   0.00   0.00
     42:    0.00  65.92   0.44   0.05   7.70  25.89   0.00   0.00   0.00   0.00   0.00   0.00   0.00   0.00
     46:    0.00  18.00   6.91   1.56  66.05   7.48   0.00   0.00   0.00   0.00   0.00   0.00   0.00   0.00


 Summation over all MOs, multiplied by occupation: Total SFO Gross Populations in this Irrep
 ===========================================================================================

     2.00    2.00    2.00    2.00    0.00    0.00    0.00    0.00    2.00    2.00    1.98    0.02
     0.00    0.00    0.00    2.00    2.00    1.98    0.02    0.00    0.00    0.00    2.00    2.00
     1.98    0.02    0.00    0.00    0.00    2.00    0.00    0.00    0.00    2.00    0.00    0.00
     0.00    2.00    0.00    0.00    0.00    2.00    0.00    0.00    0.00    2.00    0.00    0.00
     0.00    0.00    0.00    0.00    0.00    0.00    0.00    0.00



 List of all MOs, ordered by energy, with the most significant SFO gross populations
 ===================================================================================

 Each percentage contribution in the table below corresponds to the indicated SFO.
 In general, a SFO may be a linear combination of several Fragment Orbitals on the same,
 or on symmetry-related Fragments. Only the first 'member' of such a combination is
 specified here. A full definition of all SFOs is given in an earlier part of the output.
 The numbering of the SFOs in this table does NOT include the Core Orbitals, and starts
 from one for each symmetry representation, as in the SFO definition list earlier.

       E(eV)  Occ       MO           %     SFO (first member)   E(eV)  Occ   Fragment
 -------------------------------------------------------------------------------------

     -10.500  2.00    15 A         99.93%     4 S             -19.222  2.00     1 Br
                                    0.07%     5 S               6.476  0.00     1 Br
       0.447  2.00    16 A         59.17%     3 P:x            -7.755  1.67     1 Br
                                   39.75%     3 P:y            -7.755  1.67     1 Br
       0.447  2.00    17 A         58.74%     3 P:y            -7.755  1.67     1 Br
                                   39.67%     3 P:x            -7.755  1.67     1 Br
       0.447  2.00    18 A         98.38%     3 P:z            -7.755  1.67     1 Br
                                    1.04%     4 P:z             3.718  0.00     1 Br
       9.589  0.00    19 A         62.84%     4 P:x             3.718  0.00     1 Br
                                   35.33%     4 P:z             3.718  0.00     1 Br
       9.589  0.00    20 A         98.02%     4 P:y             3.718  0.00     1 Br
                                    1.03%     3 P:y            -7.755  1.67     1 Br
       9.589  0.00    21 A         63.48%     4 P:z             3.718  0.00     1 Br
                                   35.20%     4 P:x             3.718  0.00     1 Br
      13.634  0.00    22 A         99.92%     5 S               6.476  0.00     1 Br
                                    0.07%     4 S             -19.222  2.00     1 Br
      15.005  0.00    23 A         41.84%     2 D:xz            7.151  0.00     1 Br
                                   28.02%     2 D:xy            7.151  0.00     1 Br
                                   17.73%     2 D:z2            7.151  0.00     1 Br
                                    8.42%     2 D:yz            7.151  0.00     1 Br
                                    3.98%     2 D:x2-y2         7.151  0.00     1 Br
      15.005  0.00    24 A         33.46%     2 D:xy            7.151  0.00     1 Br
                                   29.73%     2 D:xz            7.151  0.00     1 Br
                                   21.40%     2 D:yz            7.151  0.00     1 Br
                                   10.57%     2 D:z2            7.151  0.00     1 Br
                                    4.83%     2 D:x2-y2         7.151  0.00     1 Br
      15.005  0.00    25 A         89.19%     2 D:x2-y2         7.151  0.00     1 Br
                                   10.56%     2 D:xy            7.151  0.00     1 Br
      15.005  0.00    26 A         68.42%     2 D:yz            7.151  0.00     1 Br
                                   25.47%     2 D:xz            7.151  0.00     1 Br
                                    4.97%     2 D:xy            7.151  0.00     1 Br
      15.005  0.00    27 A         70.59%     2 D:z2            7.151  0.00     1 Br
                                   22.98%     2 D:xy            7.151  0.00     1 Br
                                    2.95%     2 D:xz            7.151  0.00     1 Br
                                    1.78%     2 D:x2-y2         7.151  0.00     1 Br
                                    1.69%     2 D:yz            7.151  0.00     1 Br



 =======================================================================
 Electrostatic potential at the Nuclei due to electrons and other nuclei
 =======================================================================
  
         Atom                  Potential
         ----                  ---------
     1)   Br                176.25150764
 
 
 ========================
 No memory problems found
 ========================
 
 Maximum number of active allocate calls:         724
 
 *******************************************************************************

                             A D F   E X I T
 NORMAL TERMINATION



 =================
 Timing Statistics
 =================
  
 Total Used :                     CPU=        0.90      System=        0.07     Elapsed=        1.01

 Calls  Section                     ( Mean, Percentage )
 ---------------------------------------------------------------------------------------------------
     3  ><      ................      0.00    0.11             0.00    0.00             0.00    0.15
     1  INIT    ................      0.46   51.11             0.03   42.86             0.49   48.87
     1  GEOMET  ................      0.03    3.10             0.01    8.57             0.04    3.63
     1  FRAGM   ................      0.01    1.33             0.01   14.29             0.03    3.00
     1  INPUTA  ................      0.00    0.00             0.00    0.00             0.00    0.05
     1  ATDEN   ................      0.01    0.77             0.00    1.43             0.01    0.78
     1  MAINSY  ................      0.01    1.11             0.00    1.43             0.01    1.30
     1  SYMFIT  ................      0.00    0.00             0.00    1.43             0.00    0.15
     1  CORORT  ................      0.00    0.11             0.00    0.00             0.00    0.04
     1  SYMORB  ................      0.00    0.33             0.00    1.43             0.00    0.36
     1  CLSMAT  ................      0.01    0.66             0.00    0.00             0.01    0.61
     1  ORTHON  ................      0.00    0.33             0.00    0.00             0.00    0.34
     1  GENPT   ................      0.03    3.87             0.00    0.00             0.04    3.52
     1  PTBAS   ................      0.01    1.00             0.00    1.43             0.01    1.00
     9  FOCKY   ................      0.02   21.13             0.00    7.14             0.02   19.81
     9  FOCKTR  ................      0.00    0.44             0.00    0.00             0.00    0.92
     9  SDIIS   ................      0.00    3.87             0.00    2.86             0.00    3.14
     1  COREPS  ................      0.01    1.44             0.00    2.86             0.02    1.62
     1  TOTEN   ................      0.04    4.42             0.01    8.57             0.05    4.64
     1  POPAN   ................      0.00    0.22             0.00    1.43             0.01    0.80
     1  DEBYE   ................      0.00    0.22             0.00    0.00             0.00    0.15
     1  INPUTE  ................      0.00    0.00             0.00    0.00             0.00    0.14
     1  SYMORE  ................      0.00    0.11             0.00    0.00             0.00    0.12
     1  METS    ................      0.00    0.00             0.00    1.43             0.00    0.07
     1  CETS    ................      0.00    0.33             0.00    0.00             0.00    0.26
     1  ELNRGY  ................      0.00    0.11             0.00    0.00             0.00    0.14
     1  POPUL   ................      0.01    1.00             0.00    1.43             0.02    1.62
     1  EXIT PROCEDURE .........      0.03    2.88             0.00    1.43             0.03    2.76


 Currently Open Files (EXIT00)
 ====================

 Unit    Access Format  Status   Type       Ident (file)
 -------------------------------------------------------
   3      SEQ    FORM   TRANSP  NORMAL      LOGFILE
                                          ( logfile )


 Buffered I/O statistics
 =======================
 Memory available:                     67108864
 Number of records fitting in memory:     16131
 Input :   1.5% of                        25631  *4k bytes
 Output:  11.3% of                         2188  *4k bytes
 Records from serial files evicted:           0
                    others evicted:           0
 Hash table lookups:      70685 with          0 conflicts (  0.00%)

 ***************************************************************************************************
 (LOGFILE)
 <May09-2019> <16:32:25>  ADF 2017  RunTime: May09-2019 16:32:25  Nodes: 1  Procs: 1
 <May09-2019> <16:32:25>  Bromine (TZ2P)
 <May09-2019> <16:32:25>  RunType   : CREATE
 <May09-2019> <16:32:25>  Net Charge: 0 (Nuclei minus Electrons)
 <May09-2019> <16:32:25>  Symmetry  : ATOM
  Coordinates
    Atom         X           Y           Z   (Angstrom)
    1.Br        0.000000    0.000000    0.000000
 <May09-2019> <16:32:25>  >>>> CORORT
 <May09-2019> <16:32:25>  >>>> CLSMAT
 <May09-2019> <16:32:25>  >>>> ORTHON
 <May09-2019> <16:32:25>  >>>> GENPT
 <May09-2019> <16:32:25>  Block Length= 106
 <May09-2019> <16:32:25>  >>>> PTBAS
 <May09-2019> <16:32:25>  >>>> CYCLE
 <May09-2019> <16:32:25>              |Error|         MaxErr       Wt(A-DIIS)
 <May09-2019> <16:32:25>      1      0.00000000      0.00000000
 <May09-2019> <16:32:25>      2    133.90378859     33.00263884    100.0
 <May09-2019> <16:32:26>      3     49.62914370     17.59518881    100.0
 <May09-2019> <16:32:26>      4      9.09209484      2.12485505    100.0
 <May09-2019> <16:32:26>      5     11.70158419      3.98842598    100.0
 <May09-2019> <16:32:26>      6      1.82354005      0.45661929    100.0
 <May09-2019> <16:32:26>      7      1.60769584      0.41584263    100.0
 <May09-2019> <16:32:26>      8      0.06575401      0.01946729     18.7
 <May09-2019> <16:32:26>      9      0.02601319      0.00809116      7.2
 <May09-2019> <16:32:26>     10      0.00046367      0.00010037      0.0
 <May09-2019> <16:32:26>     11      0.00001086      0.00000278      0.0
 <May09-2019> <16:32:26>     12      0.00000025      0.00000006      0.0
 <May09-2019> <16:32:26>     13      0.00000001      0.00000000      0.0
 <May09-2019> <16:32:26>  SCF converged
 <May09-2019> <16:32:26>     14      0.00000000      0.00000000      0.0
 <May09-2019> <16:32:26>  >>>> POPAN
 <May09-2019> <16:32:26>  >>>> DEBYE
 <May09-2019> <16:32:26>  NORMAL TERMINATION
 <May09-2019> <16:32:26>  END
 <May09-2019> <16:32:27>  ADF 2017  RunTime: May09-2019 16:32:27  Nodes: 1  Procs: 12
 <May09-2019> <16:32:27>  *** (NO TITLE) ***
 <May09-2019> <16:32:27>  RunType   : SINGLE POINT
 <May09-2019> <16:32:27>  Net Charge: -1 (Nuclei minus Electrons)
 <May09-2019> <16:32:27>  Symmetry  : NOSYM
 <May09-2019> <16:32:27>  >>>> FRAGM
  Coordinates
    Atom         X           Y           Z   (Angstrom)
    1.Br       -5.988106    4.973840   -0.200180
 <May09-2019> <16:32:27>  >>>> CORORT
 <May09-2019> <16:32:27>  >>>> CLSMAT
 <May09-2019> <16:32:27>  >>>> ORTHON
 <May09-2019> <16:32:27>  >>>> GENPT
 <May09-2019> <16:32:27>  Block Length=  98
 <May09-2019> <16:32:27>  >>>> PTBAS
 <May09-2019> <16:32:27>  >>>> CYCLE
 <May09-2019> <16:32:27>              |Error|         MaxErr       Wt(A-DIIS)
 <May09-2019> <16:32:27>      1      0.01665692      0.00391855
 <May09-2019> <16:32:27>      2      0.36809301      0.14215877    100.0
 <May09-2019> <16:32:27>      3      0.37609173      0.09790331    100.0
 <May09-2019> <16:32:27>      4      0.23993975      0.05937359     59.0
 <May09-2019> <16:32:27>      5      0.10454236      0.02535649     24.6
 <May09-2019> <16:32:27>      6      0.01551372      0.00375451      2.8
 <May09-2019> <16:32:27>      7      0.00064170      0.00015200      0.0
 <May09-2019> <16:32:27>      8      0.00000104      0.00000036      0.0
 <May09-2019> <16:32:27>  SCF converged
 <May09-2019> <16:32:27>      9      0.00000004      0.00000001      0.0
 <May09-2019> <16:32:27>  >>>> TOTEN
 <May09-2019> <16:32:28>  >>>> POPAN
 <May09-2019> <16:32:28>  >>>> DEBYE
 <May09-2019> <16:32:28>  >>>> AMETS
 <May09-2019> <16:32:28>   Bond Energy          -0.12959689 a.u.
 <May09-2019> <16:32:28>   Bond Energy          -3.52651078 eV
 <May09-2019> <16:32:28>   Bond Energy         -81.32       kcal/mol
 <May09-2019> <16:32:28>  >>>> POPUL
 <May09-2019> <16:32:28>  NORMAL TERMINATION
 <May09-2019> <16:32:28>  END
