

 Parallel Execution: Process Information
 ==============================================================================
 Rank   Node Name                              NodeID   MyNodeRank  NodeMaster
    0   BAZIS-cn026                               0          0          0
    1   BAZIS-cn026                               0          1         -1
    2   BAZIS-cn026                               0          2         -1
    3   BAZIS-cn026                               0          3         -1
    4   BAZIS-cn026                               0          4         -1
    5   BAZIS-cn026                               0          5         -1
    6   BAZIS-cn026                               0          6         -1
    7   BAZIS-cn026                               0          7         -1
    8   BAZIS-cn026                               0          8         -1
    9   BAZIS-cn026                               0          9         -1
   10   BAZIS-cn026                               0         10         -1
   11   BAZIS-cn026                               0         11         -1
 ==============================================================================


May use up to 30771MB of RAM as shared memory on node 0


XC
    GGA BP86
END

SCF
    iterations 250
END

EPRINT
    SFO Eig Ovl
END

ZLMFIT
    Quality normal
END

BECKEGRID
    Quality good
End

SYMMETRY nosym
CHARGE -1

ATOMS
1.F        -3.680414    0.224820   -0.010605 f=FH
2.H        -2.860915    0.344970    0.565513 f=FH
3.Cl       -1.339166    0.568079    1.635321 f=Cl
END

Fragments
FH /home/tcst25/advanced_comp_chemistry/exercise2/hydrogen/FHCl/frag1_FH.t21
Cl /home/tcst25/advanced_comp_chemistry/exercise2/hydrogen/FHCl/frag2_Cl.t21
End
end input

 *******************************************************************************
 *                                                                             *
 *  -------------------------------------                                      *
 *   Amsterdam Density Functional  (ADF)         2017                          *
 *  -------------------------------------                                      *
 *                                               r58813 2017-04-12             *
 *                                                                             *
 *                                                                             *
 *                              =================                              *
 *                              |               |                              *
 *                              |     A D F     |                              *
 *                              |               |                              *
 *                              =================                              *
 *                                                                             *
 *                                                                             *
 *   Online information and documentation:  https://www.scm.com/support/       *
 *   E-mail:  support@scm.com   info@scm.com                                   *
 *                                                                             *
 *   Scientific publications using ADF results must be properly referenced     *
 *   See the User Manuals (or the web site) for recommended citations          *
 *   The terms and conditions of the End User License Agreement apply to       *
 *   the use of ADF, https://www.scm.com/license-terms/                        *
 *                                                                             *
 **********************  x86_64_linux_intel / intelmpi  ************************
 
 Licensed to: VU/FEW (+ SARA) / ALGEMEEN / Amsterdam / THE NETHERLANDS
 SCM User ID: u7668
  
 ADF 2017  RunTime: May09-2019 17:23:36  Nodes: 1  Procs: 12

 Temporary files are created in /local/datastore0/tcst25/189817/kid_0.mqfTq4


Communication costs MPI_COMM_WORLD:      3.832 usec per message,   0.0181 usec per 8-byte item
Communication costs for intra-node:      3.843 usec per message,   0.0182 usec per 8-byte item

 *** (NO TITLE) ***



 ===========================
 A T T A C H E D   F I L E S
 ===========================
  



 ===============================
 M O D E L   P A R A M E T E R S
 ===============================
  
 DENSITY FUNCTIONAL POTENTIAL (scf)
    LDA:                               VWN                                      
    Gradient Corrections:              Becke88 Perdew86                        == Not Default ==

 SPIN  (restricted / unrestr.)
    Molecule:                          Restricted                               
    Fragments:                         Restricted                               

 OTHER ASPECTS
    Relativistic Corrections:          ---                                      

    Nuclear Charge Density Model:      Point Charge Nuclei                      
    Core Treatment:                    Frozen Orbital(s)                        

    Hyperfine or Zeeman Interaction:   ---                                      


 Fragment File(s)
 ----------------
 FH:
         file : /home/tcst25/advanced_comp_chemistry/exercise2/hydrogen/FHCl/frag1_FH.t21
         jobid: ADF 2017  RunTime: May09-2019 17:12:37  Nodes: 1  Procs: 12
         title: *** (NO TITLE) ***
 Cl:
         file : /home/tcst25/advanced_comp_chemistry/exercise2/hydrogen/FHCl/frag2_Cl.t21
         jobid: ADF 2017  RunTime: May09-2019 17:12:36  Nodes: 1  Procs: 12
         title: *** (NO TITLE) ***



                                        ************************************
                                        *  R U N   T Y P E : SINGLE POINT  *
                                        ************************************
  



 ===============
 G E O M E T R Y  ***  Linear Molecule  ***
 ===============
  

 ATOMS
 =====                            X Y Z                    CHARGE
                                (Angstrom)             Nucl     +Core       At.Mass
                       --------------------------    ----------------       -------
    1  F              -3.6804    0.2248   -0.0106      9.00      9.00       18.9984
    2  H              -2.8609    0.3450    0.5655      1.00      1.00        1.0078
    3  Cl             -1.3392    0.5681    1.6353     17.00     17.00       34.9689


 FRAGMENTS
 =========                                     Atoms in this Fragment     Cart. coord.s (Angstrom)
                                               -------------------------------------------------------
    1  FH                                                1  F           -3.6804    0.2248   -0.0106
                                                         2  H           -2.8609    0.3450    0.5655
    2  Cl                                                3  Cl          -1.3392    0.5681    1.6353


 Interatomic Distance Matrix (Angstrom)
 --------------------------------------

   1)     0.000
   2)     1.009   0.000
   3)     2.882   1.873   0.000

 Min. Distance =    1.0089
 Max. Distance =    2.8824



 =====================================
 S Y M M E T R Y ,   E L E C T R O N S
 =====================================
  
 Symmetry: NOSYM

 Irreducible Representations, including subspecies
 -------------------------------------------------
 A


 Configuration of Valence Electrons
 ==================================
 ( determined in the SCF procedure )

 Total:   28

 Net Charge: -1 (Nuclei minus Electrons)

 Aufbau principle for MO occupations will be applied through SCF cycle no.     125
 Thereafter, the program will assign electrons to MOs that are spatially
 similar to the occupied MOs in a "reference" cycle ("KeepOrbitals").
 The reference cycle is always the PREVIOUS cycle: it will evolve with
 the SCF procedure.
1
 ***************************************************************************************************



                                      ****************************************
                                      *  B U I L D : (Fragments, Functions)  *
                                      ****************************************
  

 The individual fragments are copies of the corresponding 'Master' fragments defined on the fragment files.
 However, they may have been rotated (and translated) with respect to the Master. The local coordinate axes
 of each fragment (which define for instance the spatial orientation in the current molecule of a fragment
 P:x orbital) are not necessarily those of the molecule.
 The local frame (if different from the molecular one) is printed to enable an interpretation of the expan-
 sion of an MO in Fragment Orbitals.



                                              ************************
                                              *  Fragment Type : FH  *
                                              ************************
  

 Fragment no.    1   (in the list of all fragments)
 -----------------
 The local coordinate frame is identical to the molecular frame.

 Check Atomic Coordinates:

                  Master (on file)          After Computed Tranformation               As specified on Input
           ----------------------------     ----------------------------     ---------------------------------
     1)    -3.68041   0.22482  -0.01060     -3.68041   0.22482  -0.01060       1  -3.68041   0.22482  -0.01060
     2)    -2.86091   0.34497   0.56551     -2.86091   0.34497   0.56551       2  -2.86091   0.34497   0.56551



                                              ************************
                                              *  Fragment Type : Cl  *
                                              ************************
  

 Fragment no.    2   (in the list of all fragments)
 -----------------
 The local coordinate frame is identical to the molecular frame.

 Check Atomic Coordinates:

                  Master (on file)          After Computed Tranformation               As specified on Input
           ----------------------------     ----------------------------     ---------------------------------
     1)    -1.33917   0.56808   1.63532     -1.33917   0.56808   1.63532       3  -1.33917   0.56808   1.63532



 =======
 S F O s  ***  (Symmetrized Fragment Orbitals)  ***
 =======
  
 SFOs are linear combinations of (valence) Fragment Orbitals (FOs), such that the SFOs transform as the
 irreducible representations of the (molecular) symmetry group. Each SFO is therefore characterized by
 an irrep of the molecule and by a few (or only one) generating FOs.
 The SFOs constitute a symmetry-adapted basis for the Fock matrix. The MO eigenvector coefficients in
 this basis provide a direct interpretation of the MOs in terms of Frontier Orbital Theory.

 The SFOs are combined with auxiliary Core Functions (CFs) to ensure orthogonalization on the (frozen)
 Core Orbitals (COs). The Core-orthogonalized SFOs (CSFOs) constitute the true Fock basis.

 The FOs, and hence also the (C)SFOs are combinations of the elementary basis functions (BAS). The basis
 functions that participate in the description of the SFOs depend on the irrep. The indices of the
 involved functions are printed below for each irrep.
 (The complete list of primitive basis functions is printed in another section)

 Total nr. of (C)SFOs (summation over all irreps) :    71

 NOTE: a (C)SFO that is defined as a combination of more than one FO is usually NOT normalized.



                                       === A ===
 Nr. of SFOs :   71
 Cartesian basis functions that participate in this irrep (total number =    80) :
      1     2     3     4     5     6     9    12     7    10
     13     8    11    14    15    16    17    18    19    20
     21    22    23    24    25    26    27    28    29    30
     31    32    33    34    35    36    37    38    39    40
     41    42    43    44    45    46    53    54    55    47
     50    56    59    62    48    51    57    60    63    49
     52    58    61    64    65    66    67    68    69    70
     71    72    73    74    75    76    77    78    79    80

    SFO  (index         Fragment          Generating    Expansion in Fragment Orbitals
  indx  incl.CFs)   Occup   Orb.Energy   FragmentType  Coeff.   Orbital     on Fragment
 --------------------------------------------------------------------------------------
     1       1      2.000     -24.284 au  FH            1.00      1 A               1
                        (    -660.804 eV)
     2       2      2.000      -1.075 au  FH            1.00      2 A               1
                        (     -29.264 eV)
     3       3      2.000      -0.477 au  FH            1.00      3 A               1
                        (     -12.987 eV)
     4       4      2.000      -0.348 au  FH            1.00      4 A               1
                        (      -9.457 eV)
     5       5      2.000      -0.348 au  FH            1.00      5 A               1
                        (      -9.457 eV)
     6       6       --        -0.053 au  FH            1.00      6 A               1
                        (      -1.444 eV)
     7       7       --         0.070 au  FH            1.00      7 A               1
                        (       1.901 eV)
     8       8       --         0.175 au  FH            1.00      8 A               1
                        (       4.761 eV)
     9       9       --         0.397 au  FH            1.00      9 A               1
                        (      10.813 eV)
    10      10       --         0.397 au  FH            1.00     10 A               1
                        (      10.813 eV)
    11      11       --         0.637 au  FH            1.00     11 A               1
                        (      17.320 eV)
    12      12       --         0.637 au  FH            1.00     12 A               1
                        (      17.320 eV)
    13      13       --         0.645 au  FH            1.00     13 A               1
                        (      17.564 eV)
    14      14       --         0.809 au  FH            1.00     14 A               1
                        (      22.005 eV)
    15      15       --         1.133 au  FH            1.00     15 A               1
                        (      30.834 eV)
    16      16       --         1.139 au  FH            1.00     16 A               1
                        (      31.004 eV)
    17      17       --         1.139 au  FH            1.00     17 A               1
                        (      31.004 eV)
    18      18       --         1.593 au  FH            1.00     18 A               1
                        (      43.361 eV)
    19      19       --         1.593 au  FH            1.00     19 A               1
                        (      43.361 eV)
    20      20       --         1.994 au  FH            1.00     20 A               1
                        (      54.252 eV)
    21      21       --         2.589 au  FH            1.00     21 A               1
                        (      70.461 eV)
    22      22       --         2.589 au  FH            1.00     22 A               1
                        (      70.462 eV)
    23      23       --         3.174 au  FH            1.00     23 A               1
                        (      86.356 eV)
    24      24       --         3.367 au  FH            1.00     24 A               1
                        (      91.611 eV)
    25      25       --         3.367 au  FH            1.00     25 A               1
                        (      91.613 eV)
    26      26       --         3.472 au  FH            1.00     26 A               1
                        (      94.482 eV)
    27      27       --         3.472 au  FH            1.00     27 A               1
                        (      94.482 eV)
    28      28       --         3.851 au  FH            1.00     28 A               1
                        (     104.794 eV)
    29      29       --         4.161 au  FH            1.00     29 A               1
                        (     113.236 eV)
    30      30       --         4.161 au  FH            1.00     30 A               1
                        (     113.237 eV)
    31      31       --         4.502 au  FH            1.00     31 A               1
                        (     122.513 eV)
    32      32       --         4.502 au  FH            1.00     32 A               1
                        (     122.514 eV)
    33      33       --         4.566 au  FH            1.00     33 A               1
                        (     124.236 eV)
    34      34       --         5.539 au  FH            1.00     34 A               1
                        (     150.733 eV)
    35      35       --         5.539 au  FH            1.00     35 A               1
                        (     150.735 eV)
    36      36       --         5.662 au  FH            1.00     36 A               1
                        (     154.077 eV)
    37      37       --        53.438 au  FH            1.00     37 A               1
                        (    1454.126 eV)
    38      38      2.000    -100.372 au  Cl            1.00      1 A               2
                        (   -2731.270 eV)
    39      39      2.000      -8.827 au  Cl            1.00      2 A               2
                        (    -240.193 eV)
    40      40      2.000      -6.649 au  Cl            1.00      3 A               2
                        (    -180.916 eV)
    41      41      2.000      -6.649 au  Cl            1.00      4 A               2
                        (    -180.916 eV)
    42      42      2.000      -6.649 au  Cl            1.00      5 A               2
                        (    -180.916 eV)
    43      43      2.000      -0.385 au  Cl            1.00      6 A               2
                        (     -10.473 eV)
    44      44      2.000       0.033 au  Cl            1.00      7 A               2
                        (       0.909 eV)
    45      45      2.000       0.033 au  Cl            1.00      8 A               2
                        (       0.909 eV)
    46      46      2.000       0.033 au  Cl            1.00      9 A               2
                        (       0.909 eV)
    47      47       --         0.475 au  Cl            1.00     10 A               2
                        (      12.914 eV)
    48      48       --         0.489 au  Cl            1.00     11 A               2
                        (      13.299 eV)
    49      49       --         0.489 au  Cl            1.00     12 A               2
                        (      13.299 eV)
    50      50       --         0.489 au  Cl            1.00     13 A               2
                        (      13.299 eV)
    51      51       --         0.741 au  Cl            1.00     14 A               2
                        (      20.162 eV)
    52      52       --         0.741 au  Cl            1.00     15 A               2
                        (      20.162 eV)
    53      53       --         0.741 au  Cl            1.00     16 A               2
                        (      20.162 eV)
    54      54       --         0.741 au  Cl            1.00     17 A               2
                        (      20.162 eV)
    55      55       --         0.741 au  Cl            1.00     18 A               2
                        (      20.162 eV)
    56      56       --         1.518 au  Cl            1.00     19 A               2
                        (      41.294 eV)
    57      57       --         1.518 au  Cl            1.00     20 A               2
                        (      41.294 eV)
    58      58       --         1.518 au  Cl            1.00     21 A               2
                        (      41.294 eV)
    59      59       --         1.518 au  Cl            1.00     22 A               2
                        (      41.294 eV)
    60      60       --         1.518 au  Cl            1.00     23 A               2
                        (      41.294 eV)
    61      61       --         1.518 au  Cl            1.00     24 A               2
                        (      41.294 eV)
    62      62       --         1.518 au  Cl            1.00     25 A               2
                        (      41.294 eV)
    63      63       --         2.351 au  Cl            1.00     26 A               2
                        (      63.962 eV)
    64      64       --         2.448 au  Cl            1.00     27 A               2
                        (      66.612 eV)
    65      65       --         2.448 au  Cl            1.00     28 A               2
                        (      66.612 eV)
    66      66       --         2.448 au  Cl            1.00     29 A               2
                        (      66.612 eV)
    67      67       --        13.113 au  Cl            1.00     30 A               2
                        (     356.814 eV)
    68      68       --        19.210 au  Cl            1.00     31 A               2
                        (     522.735 eV)
    69      69       --        19.210 au  Cl            1.00     32 A               2
                        (     522.735 eV)
    70      70       --        19.210 au  Cl            1.00     33 A               2
                        (     522.735 eV)
    71      71       --       215.062 au  Cl            1.00     34 A               2
                        (    5852.138 eV)



 ================================
 (Slater-type)  F U N C T I O N S  ***  (Basis and Fit)  ***
 ================================
  

 Atom Type    1  (F)
 ==============

 Valence Basis Sets:  10
 -----------------------
   1 S   10.880000
   1 S    7.700000
   2 S    3.240000
   2 S    1.940000
   2 S    0.740000
   2 P    4.540000
   2 P    2.300000
   2 P    1.240000
   3 D    2.000000
   4 F    3.000000

 Atom Type    2  (H)
 ==============

 Valence Basis Sets:   5
 -----------------------
   1 S    0.690000
   1 S    0.920000
   1 S    1.580000
   2 P    1.250000
   3 D    2.500000

 Atom Type    3  (Cl)
 ==============

 Valence Basis Sets:  14
 -----------------------
   1 S   20.300000
   1 S   15.250000
   2 S    6.250000
   2 S    4.450000
   2 P    8.850000
   2 P    5.050000
   3 S    3.450000
   3 S    2.300000
   3 S    1.600000
   3 P    3.350000
   3 P    2.050000
   3 P    1.200000
   3 D    2.000000
   4 F    2.000000


 BAS: List of all Elementary Cartesian Basis Functions
 =====================================================

 The numbering in the list below (to the right of the function characteristics) is referred
 to in print-outs of MO eigenvectors and Mulliken populations in the BAS representation
 (as contrasted to the SFO representation).

 Notes:
 1. The functions are characterized by a polynomial prefactor (powers of x,y,z and r) and
    an exponential decay factor alpha.
 2. Since the basis sets are specific for an atom TYPE, the individual functions occur on
    all atoms of that type.
 3. The word 'Core' in the left margin signals that it is a Core Function (CF) : not a
    degree of freedom in the valence set, but only used to ensure orthogonalization of
    the other valence basis functions on the frozen Core Orbitals.


 (power of) X  Y  Z  R     Alpha  on Atom
            ==========     =====     ==========

 F                                    1
                                  ---------------------------------------------------------------------------
            0  0  0  0    10.880      1
            0  0  0  0     7.700      2
            0  0  0  1     3.240      3
            0  0  0  1     1.940      4
            0  0  0  1     0.740      5
            1  0  0  0     4.540      6
            0  1  0  0     4.540      7
            0  0  1  0     4.540      8
            1  0  0  0     2.300      9
            0  1  0  0     2.300     10
            0  0  1  0     2.300     11
            1  0  0  0     1.240     12
            0  1  0  0     1.240     13
            0  0  1  0     1.240     14
            2  0  0  0     2.000     15
            1  1  0  0     2.000     16
            1  0  1  0     2.000     17
            0  2  0  0     2.000     18
            0  1  1  0     2.000     19
            0  0  2  0     2.000     20
            3  0  0  0     3.000     21
            2  1  0  0     3.000     22
            2  0  1  0     3.000     23
            1  2  0  0     3.000     24
            1  1  1  0     3.000     25
            1  0  2  0     3.000     26
            0  3  0  0     3.000     27
            0  2  1  0     3.000     28
            0  1  2  0     3.000     29
            0  0  3  0     3.000     30

 H                                    2
                                  ---------------------------------------------------------------------------
            0  0  0  0     0.690     31
            0  0  0  0     0.920     32
            0  0  0  0     1.580     33
            1  0  0  0     1.250     34
            0  1  0  0     1.250     35
            0  0  1  0     1.250     36
            2  0  0  0     2.500     37
            1  1  0  0     2.500     38
            1  0  1  0     2.500     39
            0  2  0  0     2.500     40
            0  1  1  0     2.500     41
            0  0  2  0     2.500     42

 Cl                                   3
                                  ---------------------------------------------------------------------------
            0  0  0  0    20.300     43
            0  0  0  0    15.250     44
            0  0  0  1     6.250     45
            0  0  0  1     4.450     46
            1  0  0  0     8.850     47
            0  1  0  0     8.850     48
            0  0  1  0     8.850     49
            1  0  0  0     5.050     50
            0  1  0  0     5.050     51
            0  0  1  0     5.050     52
            0  0  0  2     3.450     53
            0  0  0  2     2.300     54
            0  0  0  2     1.600     55
            1  0  0  1     3.350     56
            0  1  0  1     3.350     57
            0  0  1  1     3.350     58
            1  0  0  1     2.050     59
            0  1  0  1     2.050     60
            0  0  1  1     2.050     61
            1  0  0  1     1.200     62
            0  1  0  1     1.200     63
            0  0  1  1     1.200     64
            2  0  0  0     2.000     65
            1  1  0  0     2.000     66
            1  0  1  0     2.000     67
            0  2  0  0     2.000     68
            0  1  1  0     2.000     69
            0  0  2  0     2.000     70
            3  0  0  0     2.000     71
            2  1  0  0     2.000     72
            2  0  1  0     2.000     73
            1  2  0  0     2.000     74
            1  1  1  0     2.000     75
            1  0  2  0     2.000     76
            0  3  0  0     2.000     77
            0  2  1  0     2.000     78
            0  1  2  0     2.000     79
            0  0  3  0     2.000     80

 Total number of charge fitting functions (nprimf)       241
 Total number of Cartesian basis functions (naos)         80
 Total number of Cartesian core functions  (ncos)          0

1
 ***************************************************************************************************



                                              ***********************
                                              *  T E C H N I C A L  *
                                              ***********************
  



 =============================================================
 P A R A L L E L I Z A T I O N  and  V E C T O R I Z A T I O N
 =============================================================
  
 Nr of parallel processes:                               12
 Maximum vector length in NumInt loops:                 128

 IO buffersize (Mb):                                     64.000000



 =====================
 S C F   U P D A T E S
 =====================
  
 Max. nr. of cycles:                               250
 Convergence criterion:                              0.0000010000
   secondary criterion:                              0.0010000000

 Mix parameter (when DIIS does not apply):           0.2000000000
 Mixed ADIIS+DIIS will be used
    Max number of expansion vectors:                10
    Pure ADIIS when Max([F,P]) is above              0.1000000000
    Pure DIIS when Max([F,P]) is below               0.0010000000
 Automatic ElectronSmearing (in case of problematic SCF convergence) disabled



 =================
 P R E C I S I O N  ***  (General: NumInt, NeglectFunctionTails, ...)  ***
 =================
  

 NumInt:           Target precision:                 6.0000000000
 -------           Initial precision:                6.0000000000
                   Min. precision (optimization):    6.0000000000

 Neglect Functions:          Basis functions:        0.1000000000E-07
 ------------------          Fit functions:          0.1000000000E-07



 ===========================
 L I N E A R   S C A L I N G
 ===========================
  

 Cut-off radii density fit:                        0.1000000000E-09
 Overlap cut-off criterion AO matrix elements:     0.1000000000E-07
 Cut-offs for Coulomb potential and fitted density:0.1000000000E-09
 Cut-off criterion for Coulomb multipole terms:    0.1000000000E-09
 Progressive Convergence parameter:                 0.000000000    
1
 ***************************************************************************************************



                                            ***************************
                                            *  C O M P U T A T I O N  *
                                            ***************************
  

 Number of elements of the density matrix on this node (used, total):       741      3240



 ===========================================
 Numerical Integration : Fuzzy Cells (Becke)
 ===========================================
  
 Becke grid quality: GOOD           
  
 Lebedev angular grid order:             min:  11 max:  31
 Nr. of radial points:                   min:  54 max:  80

 Total nr. of points:      43061
 Nr. of blocks:              337
 Block length:               128
 Nr. of dummy points:         75


 Test of Precision of the Numerical Integration Grid
 ===================================================

 Integral of the Total Core Density:                   0.00000000000000



 ========================
 Density Fitting (zlmFit)
 ========================
  
 ZlmFit Fit Quality: NORMAL         
  
 Max L-expansion:                        min:   6 max:   7
 Nr. of radial interpolation points:     min:  39 max:  60



 =====
 S C F  ***  ScaSCF  ***
 =====
  
 Initial density matrix is calculated as sum of fragments

 CYCLE    1
 SCF Error: norm([F,P])=      0.443182782522, max([F,P])=      0.175993049704
 orbitals (Q,E):
 ---------------
 A :5...24           ( 2.00    -6.6987)  ( 2.00    -6.6987)  ( 2.00    -0.8986)  ( 2.00    -0.4483)
                     ( 2.00    -0.2955)  ( 2.00    -0.1742)  ( 2.00    -0.1742)  ( 2.00    -0.0379)
                     ( 2.00    -0.0168)  ( 2.00    -0.0168)  ( 0.00     0.1804)  ( 0.00     0.2548)
                     ( 0.00     0.3635)  ( 0.00     0.4489)  ( 0.00     0.4489)  ( 0.00     0.4657)
                     ( 0.00     0.5783)  ( 0.00     0.5784)  ( 0.00     0.6234)  ( 0.00     0.6900)

 CYCLE    2
   MIX coefficients:  0.8000  0.2000
 SCF Error: norm([F,P])=      0.176694161987, max([F,P])=      0.055365675899
 orbitals (Q,E):
 ---------------
 A :5...15           ( 2.00    -6.7053)  ( 2.00    -6.7053)  ( 2.00    -0.8772)  ( 2.00    -0.4518)
                     ( 2.00    -0.2767)  ( 2.00    -0.1535)  ( 2.00    -0.1535)  ( 2.00    -0.0398)
                     ( 2.00    -0.0208)  ( 2.00    -0.0208)  ( 0.00     0.1851)

 CYCLE    3
  SDIIS (wt  0.000): -0.6391  1.6391
 A-DIIS (wt  1.000):  0.0000  1.0000
  DIIS coefficients:  0.0000  1.0000
 SCF Error: norm([F,P])=      0.076499493059, max([F,P])=      0.022787647209
 orbitals (Q,E):
 ---------------
 A :5...15           ( 2.00    -6.7165)  ( 2.00    -6.7165)  ( 2.00    -0.8253)  ( 2.00    -0.4600)
                     ( 2.00    -0.2303)  ( 2.00    -0.1041)  ( 2.00    -0.1041)  ( 2.00    -0.0427)
                     ( 2.00    -0.0304)  ( 2.00    -0.0304)  ( 0.00     0.1986)

 CYCLE    4
  SDIIS (wt  0.000):  1.2802 -1.2087  0.9286
 A-DIIS (wt  1.000):  0.0000  0.6801  0.3199
  DIIS coefficients:  0.0000  0.6801  0.3199
 SCF Error: norm([F,P])=      0.151155514609, max([F,P])=      0.047335320371
 orbitals (Q,E):
 ---------------
 A :5...15           ( 2.00    -6.7082)  ( 2.00    -6.7082)  ( 2.00    -0.8484)  ( 2.00    -0.4554)
                     ( 2.00    -0.2492)  ( 2.00    -0.1262)  ( 2.00    -0.1262)  ( 2.00    -0.0411)
                     ( 2.00    -0.0263)  ( 2.00    -0.0263)  ( 0.00     0.1949)

 CYCLE    5
  SDIIS (wt  0.934):  0.0295  0.2256  0.1057  0.6392
 A-DIIS (wt  0.066):  0.0000  0.0000  0.0000  1.0000
  DIIS coefficients:  0.0275  0.2107  0.0987  0.6631
 SCF Error: norm([F,P])=      0.017187406797, max([F,P])=      0.007551856760
 orbitals (Q,E):
 ---------------
 A :5...15           ( 2.00    -6.7092)  ( 2.00    -6.7092)  ( 2.00    -0.8506)  ( 2.00    -0.4554)
                     ( 2.00    -0.2517)  ( 2.00    -0.1283)  ( 2.00    -0.1283)  ( 2.00    -0.0410)
                     ( 2.00    -0.0259)  ( 2.00    -0.0259)  ( 0.00     0.1937)

 CYCLE    6
  SDIIS (wt  0.988): -0.0580  0.1410 -0.0331  0.3757  0.5745
 A-DIIS (wt  0.012):  0.0000  0.0000  0.0000  0.0000  1.0000
  DIIS coefficients: -0.0573  0.1393 -0.0327  0.3712  0.5795
 SCF Error: norm([F,P])=      0.007465238832, max([F,P])=      0.002169102092
 orbitals (Q,E):
 ---------------
 A :5...15           ( 2.00    -6.7089)  ( 2.00    -6.7089)  ( 2.00    -0.8513)  ( 2.00    -0.4550)
                     ( 2.00    -0.2523)  ( 2.00    -0.1290)  ( 2.00    -0.1290)  ( 2.00    -0.0408)
                     ( 2.00    -0.0256)  ( 2.00    -0.0256)  ( 0.00     0.1936)

 CYCLE    7
  SDIIS (wt  1.000): -0.0049  0.0216 -0.0032  0.0855  0.1626  0.7385
  DIIS coefficients: -0.0049  0.0216 -0.0032  0.0855  0.1626  0.7385
 SCF Error: norm([F,P])=      0.000472773430, max([F,P])=      0.000144226523
 orbitals (Q,E):
 ---------------
 A :5...15           ( 2.00    -6.7089)  ( 2.00    -6.7089)  ( 2.00    -0.8514)  ( 2.00    -0.4550)
                     ( 2.00    -0.2523)  ( 2.00    -0.1291)  ( 2.00    -0.1291)  ( 2.00    -0.0408)
                     ( 2.00    -0.0256)  ( 2.00    -0.0256)  ( 0.00     0.1936)

 CYCLE    8
  SDIIS (wt  1.000):  0.0008  0.0016  0.0007  0.0122  0.0252  0.1333  0.8262
  DIIS coefficients:  0.0008  0.0016  0.0007  0.0122  0.0252  0.1333  0.8262
 SCF Error: norm([F,P])=      0.000066328957, max([F,P])=      0.000014949646
 orbitals (Q,E):
 ---------------
 A :5...15           ( 2.00    -6.7088)  ( 2.00    -6.7088)  ( 2.00    -0.8513)  ( 2.00    -0.4550)
                     ( 2.00    -0.2523)  ( 2.00    -0.1290)  ( 2.00    -0.1290)  ( 2.00    -0.0408)
                     ( 2.00    -0.0256)  ( 2.00    -0.0256)  ( 0.00     0.1936)

 CYCLE    9
  SDIIS (wt  1.000): -0.0003  0.0006 -0.0001  0.0012  0.0032  0.0301  0.3934  0.5719
  DIIS coefficients: -0.0003  0.0006 -0.0001  0.0012  0.0032  0.0301  0.3934  0.5719
 SCF Error: norm([F,P])=      0.000035873516, max([F,P])=      0.000010576932
 orbitals (Q,E):
 ---------------
 A :5...15           ( 2.00    -6.7089)  ( 2.00    -6.7089)  ( 2.00    -0.8513)  ( 2.00    -0.4550)
                     ( 2.00    -0.2523)  ( 2.00    -0.1290)  ( 2.00    -0.1290)  ( 2.00    -0.0408)
                     ( 2.00    -0.0256)  ( 2.00    -0.0256)  ( 0.00     0.1936)

 CYCLE   10
  SDIIS (wt  1.000): -0.0000  0.0000  0.0000  0.0001  0.0004  0.0038  0.0729  0.1453  0.7774
  DIIS coefficients: -0.0000  0.0000  0.0000  0.0001  0.0004  0.0038  0.0729  0.1453  0.7774
 SCF Error: norm([F,P])=      0.000002871576, max([F,P])=      0.000000939373
 orbitals (Q,E):
 ---------------
 A :5...15           ( 2.00    -6.7089)  ( 2.00    -6.7089)  ( 2.00    -0.8513)  ( 2.00    -0.4550)
                     ( 2.00    -0.2523)  ( 2.00    -0.1290)  ( 2.00    -0.1290)  ( 2.00    -0.0408)
                     ( 2.00    -0.0256)  ( 2.00    -0.0256)  ( 0.00     0.1936)

 SCF CONVERGED

 CYCLE   11
1
 ***************************************************************************************************



                                                *******************
                                                *  R E S U L T S  *
                                                *******************
  
 *** Setting up for NEW gradients in Focky
 *** Using FIT density in Focky

 Orbital Energies, per Irrep and Spin:
 ======================================
                        Occup              E (au)              E (eV)       Diff (eV) with prev. cycle
                        -----      --------------------        ------       --------------------------
 A
               5        2.000     -0.67088640633848E+01      -182.557              -5.07E-06
               6        2.000     -0.67088618316469E+01      -182.557              -5.07E-06
               7        2.000     -0.85134324744744E+00       -23.166               1.82E-06
               8        2.000     -0.45501930691668E+00       -12.382              -3.11E-06
               9        2.000     -0.25228270954876E+00        -6.865               1.44E-06
              10        2.000     -0.12904741569722E+00        -3.512               1.56E-06
              11        2.000     -0.12904195795562E+00        -3.511               1.55E-06
              12        2.000     -0.40812839596200E-01        -1.111              -2.14E-06
              13        2.000     -0.25613773784669E-01        -0.697              -2.66E-06
              14        2.000     -0.25606298639644E-01        -0.697              -2.66E-06
              15        0.000      0.19362213575216E+00         5.269
              16        0.000      0.26079382468386E+00         7.097
              17        0.000      0.37679061529585E+00        10.253
              18        0.000      0.44606318939236E+00        12.138
              19        0.000      0.44608510283267E+00        12.139
              20        0.000      0.45874387758284E+00        12.483
              21        0.000      0.58475449637149E+00        15.912
              22        0.000      0.58476689940763E+00        15.912
              23        0.000      0.62227092613573E+00        16.933
              24        0.000      0.68025949630210E+00        18.511
  
 HOMO :       14 A                -0.25606298639644E-01
 LUMO :       15 A                 0.19362213575216E+00
  


 All Electron Calculation, thus no Orbital Energies of the Core Orbitals are calculated


 Fit test: (difference of exact and fit density, squared integrated, result summed over spins)
         Sum-of-Fragments:                             0.00009343200887
         Orthogonalized Fragments:                     0.00010139684192
         SCF:                                          0.00010112522355



 ==========================
 Electron Density at Nuclei
 ==========================
  
 The electron density is calculated at points on a small sphere around the center of a nucleus.
 The printed electron density is the average electron density on these points.
 The radius of the sphere is the printed approximate finite nuclear radius.

         Atom        Nuclear Radius (Angstrom)             Electron Density (a.u.)
         ----        -------------------------             -----------------------
     1)   F                 0.0000361580                              447.12111
     2)   H                 0.0000181514                                0.37100
     3)   Cl                0.0000426624                             3210.16119



 =======================================
 M U L L I K E N   P O P U L A T I O N S
 =======================================
  
 The survey below gives for each atom:
 a) the total charge (Z minus electrons)
 b) the net spin polarization (nr of electrons spin-A minus spin-B)
 c) for each spin the atomic electron valence density (integrated) per L-value.

 Atom              Charge    Spin density          S         P         D         F
 ----              ------    ------------       ------    ------    ------    ------
 1 F              -0.5903                       3.9612    5.6102    0.0168    0.0021
 2 H               0.4102                       0.4124    0.1682    0.0093    0.0000
 3 Cl             -0.8199                       5.9797   11.8327    0.0061    0.0014

 Populations of individual BAS functions
 ----------------------------------------
 1 F            0.5761  1.4005  1.0765  0.8664  0.0418  0.3592  0.4032  0.3819  0.9266  0.9901
                0.9594  0.4896  0.5694  0.5308  0.0116  0.0012  0.0094 -0.0063  0.0006  0.0003
                0.0059  0.0041  0.0067 -0.0060  0.0002  0.0006 -0.0051 -0.0038  0.0011 -0.0017
 2 H           -0.1906  0.2428  0.3603  0.0748  0.0377  0.0557  0.0064  0.0018  0.0029 -0.0038
                0.0009  0.0010
 3 Cl           0.5055  1.4530  1.7102  0.2583  0.7259  0.7268  0.7264  1.2720  1.2702  1.2710
                0.6029  0.9852  0.4645  0.2890  0.3094  0.2995  0.9760  0.9803  0.9783  0.6347
                0.7031  0.6701  0.0049  0.0004  0.0035 -0.0030  0.0002  0.0001  0.0038  0.0028
                0.0036 -0.0033  0.0001 -0.0001 -0.0034 -0.0022  0.0007 -0.0007

 Gross Charges per Atom (Z minus electrons)
 ==========================================
            -0.5903    0.4102   -0.8199
 Net Total: -1.00000000


 Atom-Atom Population Matrix (off-diagonal elements not doubled)
 ===============================================================

     1 :     9.3142
     2 :     0.2873    0.2002
     3 :    -0.0113    0.1023   17.7289


 Frag-Frag Population Matrix (off-diagonal elements not doubled)
 ===============================================================

     1 :    10.0891
     2 :     0.0910   17.7289



 =================================================
 H I R S H F E L D   C H A R G E   A N A L Y S I S
 =================================================
  
 For each fragment: the (numerical) integral of rho(scf) * rho(fragment)/rho(sum-of-fragments)
 (nuclear charges are included, electrons are counted negative)

 The fragments and their ordering are defined in the early G E O M E T R Y output section.
 If you use single-atom fragments, this usually implies that all atoms of the same
 chemical type are grouped together. This may not be the order in which you listed them
 in the input file!

    1  FH                       -0.1034
    2  Cl                       -0.8966

 Sum of these charges (accuracy NumInt/Tails) =          -1.00000154



 =============================
 V O R O N O I   C H A R G E S
 =============================
  
 For each atom: the (numerical) integral of the total electronic charge density in its Voronoi cell,
 i.e. the region of space that is closer to that atom than to any other atom.
 (cf. Wigner-Seitz cells in crystals)

 Within the Voronoi cell the subintegrals over the atomic sphere and the remaining part are evaluated
 separately to give the numbers of electrons (negative charge) in these regions.
 The net total charge in the cell (including the nuclear charge) is also given.

 Values are provided for
    a) the Initial (sum-of-fragments) density
    b) the Orthogonalized-Fragments density
    c) the SCF density
    d) the Voronoi Deformation Density (VDD): the difference SCF-Initial for the complete atomic cell
 ---------------------------------------------------------------------------------------------------
 Total NetCharge:              -1.000                     -1.000                     -1.000    0.000
 (accuracy NumInt/Tails)

 Remark: the 'NetTotal' Voronoi charges often do not match the Mulliken and/or Hirshfeld charges very
 well. This is caused by the fact that chemically different atoms are not treated in accordance with
 their relative sizes. (Voronoi cells are defined by boundary planes halfway between the atoms.)
 However, the CHANGES in charge, comparing 'Initial' to 'SCF' for instance, do give a fair indication
 of the flow of charge caused by the relaxation from sum-of-fragments to self-consistency.

 Warning: the absolute accuracy of the VDD charges obtained using the Fuzzy Cells (Becke) integration
 scheme is much poorer than the one obtained with an 'equivalent' Voronoi integration grid. 



 =================================================================
 M U L T I P O L E   D E R I V E D   C H A R G E   A N A L Y S I S
 =================================================================

 This charge analysis uses the atomic multipoles (obtained from the fitted density) up to some level X,
 and reconstructs these multipoles exactly (up to level X) by distributing charges over all atoms.
 This is achieved by using Lagrange multipliers and a weight function to keep the multipoles local.

 Dummy atoms can be included (by setting INCDUM in MDC-block to 1) to obtain a fractional charge.
 This is generally useful and necessary only for small symmetrical molecules, when there are not
 enough degrees of freedom to reconstruct the multipoles.

 Since the atomic multipoles are reconstructed up to level X,
 the molecular multipoles are represented also up to level X.
 The recommended level is to reconstruct up to quadrupole : -> MDC-q charges.

 See: M. Swart, P.Th. van Duijnen, J.G. Snijders, J.Comput.Chem., (2001), p. 79-88.

 ------------------------------------------------------------- 
 Atomic electronic multipole moments from SCF equations (a.u.)
 ------------------------------------------------------------- 

   atom        charge        dip-x     dip-y     dip-z      quad-xx   quad-xy   quad-xz   quad-yy   quad-yz   quad-zz
 --------------------------------------------------------------------------------------------------------------------
    1 F     -0.402334     0.152257  0.022314  0.107029     0.252773  0.049896  0.239416 -0.247127  0.035121 -0.005646
    2 H     -0.032346    -0.165339 -0.024276 -0.116311     0.028844  0.005760  0.027064 -0.028207  0.003817 -0.000637
    3 Cl    -0.565320    -0.510085 -0.074772 -0.358613     0.779147  0.153948  0.738081 -0.761925  0.108167 -0.017222

 --------------------------------------- 
 Multipole derived atomic charges (a.u.)
 --------------------------------------- 

 The MDC-m charges are just the Monopole terms in the multipole expansion, while for the MDC-d charges
 also the Dipoles are reconstructed. The usually preferred charges are the MDC-q charges.
 These reconstruct the Monopoles, Dipoles and Quadrupoles (both atomic AND molecular).

        Atom    Level:     MDC-m        MDC-d        MDC-q
 ---------------------------------------------------------
     1     F           -0.402334    -0.376032    -0.584444
     2     H           -0.032346     0.109133     0.429779
     3     Cl          -0.565320    -0.733101    -0.845335

 ------------------------------------------------ 
 Average absolute deviations in atomic multipoles
 ------------------------------------------------ 

 Stated here are the average differences between the atomic multipoles
 and the reconstructed atomic multipoles (from the distributed charges).
 If these values are not zero, this means there are not enough degrees of freedom,
 to be able to reconstruct the atomic multipoles. (This usually happens only
 for small and/or highly symmetric molecules). If this is the case, one could add
 dummy atoms as extra point charges (and setting INCDUM in MDC-block to 1).

 Level:                                 MDC-d        MDC-q
 ---------------------------------------------------------
 Charge   (a.u.)                       0.0000       0.0000
 Dipole   (Debye)                      0.0000       0.0000
 Quad.    (a.u.)                       0.1959       0.0780

 --------------------------------------- 
 Represented molecular multipole moments
 --------------------------------------- 

 Given here are the Molecular multipole moments from the atomic charges, and from the Fit Density.
 Note that the atomic charges represent the latter, NOT the ones from the Exact density.

            Q (a.u.)             Dipole moment (Debye)                                          Quadrupole moment (a.u.)
                                 x         y         z              xx        xy        xz        yy        yz        zz
------------------------------------------------------------------------------------------------------------------------
MDC-m        -1.0000       11.1932   -2.0306   -4.5078        -20.9405    4.2579    6.8278   13.9938   -2.8418    6.9467
MDC-d        -1.0000        9.8633   -2.2256   -5.4428        -15.8230    4.0771    7.5754   12.4192   -3.5292    3.4038
MDC-q        -1.0000        9.8633   -2.2256   -5.4428        -16.8827    3.7631    6.0696   13.4553   -3.7500    3.4274
 
Fit.Dens.    -1.0000        9.8634   -2.2256   -5.4429        -16.3069    3.8294    6.3862   12.8922   -3.7039    3.4147



 =============
 Dipole Moment  ***  (Debye)  ***
 =============
  
 Vector   :         9.85722454     -2.22643251     -5.44721181
 Magnitude:        11.48015653

 This molecular dipole moment is calculated with analytic integration
 ************************************************************************************
 Since the molecule is NOT NEUTRAL, the dipole moment depends on the choice of origin
 ************************************************************************************



 =========================================
 Quadrupole Moment (Buckingham convention)  ***  (a.u.)  ***
 =========================================
  
      quad-xx        quad-xy        quad-xz        quad-yy        quad-yz        quad-zz
    -16.28575110     3.93222947     6.88851001    12.88746365    -3.63370165     3.39828745

 This molecular quadrupole moment is calculated with analytic integration
1



                                             *************************
                                             *  SFO MO coefficients  *
                                             *************************
  


                                       === A ===
 MOs expanded in CFs+SFOs
 ========================

 The SFOs have been characterized in an earlier part of output.
 To deduce the bonding / antibonding nature of SFO combinations in an MO, consider the products
 of the coefficients AND THE OVERLAP between the SFOs (may be NEGATIVE). The SFO overlap matrix
 is printed later, in the SFO Populations section.

 (The CF coefficients are not printed)

 MOs :      1        2        3        4        5        6        7        8        9       10
 occup:   2.00     2.00     2.00     2.00     2.00     2.00     2.00     2.00     2.00     2.00
 CF+SFO
     1   0.0000   1.0000  -0.0000  -0.0000   0.0000   0.0000  -0.0000   0.0005  -0.0003  -0.0000
     2  -0.0000   0.0001   0.0008   0.0000  -0.0000  -0.0000  -0.9962  -0.0354  -0.0163   0.0000
     3   0.0000  -0.0001  -0.0009   0.0002   0.0000   0.0000  -0.0291  -0.0945   0.9673  -0.0000
     4  -0.0000   0.0000   0.0000  -0.0000  -0.0000   0.0000   0.0000   0.0000  -0.0000  -0.9960
     5  -0.0000  -0.0000   0.0000   0.0000   0.0000   0.0000   0.0000   0.0000  -0.0000  -0.0487
     6  -0.0001   0.0001   0.0028  -0.0004  -0.0000  -0.0000   0.0097   0.0256   0.0348  -0.0000
     7   0.0000  -0.0001  -0.0007   0.0003   0.0000   0.0000  -0.0066  -0.0088   0.0019   0.0000
     8   0.0000  -0.0001  -0.0011  -0.0002   0.0000   0.0000  -0.0026   0.0178   0.0072  -0.0000
     9  -0.0000  -0.0000   0.0000   0.0000  -0.0000   0.0000  -0.0000   0.0000  -0.0000  -0.0096
    10   0.0000   0.0000   0.0000   0.0000   0.0000   0.0000  -0.0000   0.0000  -0.0000   0.0035
    11   0.0000  -0.0000  -0.0000  -0.0000  -0.0000   0.0001   0.0000  -0.0000   0.0000  -0.0122
    12  -0.0000   0.0000   0.0000  -0.0000   0.0001   0.0000   0.0000  -0.0000   0.0000   0.0078
    13   0.0000  -0.0001  -0.0002   0.0001   0.0000   0.0000   0.0002   0.0021  -0.0115   0.0000
    14  -0.0000  -0.0001   0.0001   0.0002  -0.0000  -0.0000  -0.0050  -0.0070  -0.0047   0.0000
    15  -0.0000  -0.0001   0.0001   0.0003  -0.0000   0.0000  -0.0018   0.0001   0.0010   0.0000
    16  -0.0000  -0.0000   0.0000   0.0000  -0.0000  -0.0000  -0.0000  -0.0000   0.0000  -0.0000
    17   0.0000   0.0000  -0.0000  -0.0000  -0.0000   0.0000   0.0000  -0.0000   0.0000   0.0000
    18  -0.0000  -0.0000  -0.0000  -0.0000  -0.0000   0.0001   0.0000  -0.0000   0.0000   0.0023
    19   0.0000   0.0000  -0.0000   0.0000  -0.0001  -0.0000   0.0000   0.0000  -0.0000   0.0006
    20   0.0000  -0.0001  -0.0002   0.0000   0.0000   0.0000  -0.0016   0.0047   0.0002   0.0000
    21  -0.0000   0.0000   0.0000   0.0000   0.0000  -0.0000  -0.0000   0.0000  -0.0000   0.0000
    22   0.0000   0.0000  -0.0000  -0.0000   0.0000   0.0000   0.0000  -0.0000   0.0000   0.0000
    23  -0.0000   0.0001   0.0001   0.0000  -0.0000   0.0000   0.0015   0.0001  -0.0010   0.0000
    24  -0.0000   0.0000   0.0000  -0.0000   0.0000   0.0000  -0.0000  -0.0000  -0.0000  -0.0000
    25   0.0000  -0.0000  -0.0000  -0.0000  -0.0000   0.0000   0.0000  -0.0000   0.0000  -0.0002
    26  -0.0000   0.0000   0.0000   0.0000   0.0000  -0.0000   0.0000   0.0000  -0.0000  -0.0000
    27  -0.0000  -0.0000   0.0000   0.0000   0.0000   0.0000   0.0000   0.0000   0.0000   0.0000
    28   0.0000   0.0000  -0.0002  -0.0000   0.0000   0.0000   0.0005   0.0016  -0.0018  -0.0000
    29   0.0000  -0.0000  -0.0000  -0.0000  -0.0000   0.0000  -0.0000  -0.0000  -0.0000   0.0000
    30  -0.0000   0.0000   0.0000  -0.0000   0.0000   0.0000  -0.0000  -0.0000   0.0000   0.0000
    31  -0.0000   0.0000   0.0000   0.0000  -0.0000  -0.0000  -0.0000   0.0000  -0.0000   0.0020
    32  -0.0000  -0.0000   0.0000   0.0000  -0.0000   0.0000  -0.0000   0.0000  -0.0000   0.0021
    33  -0.0000   0.0000   0.0001   0.0000  -0.0000   0.0000  -0.0001   0.0008  -0.0008  -0.0000
    34  -0.0000  -0.0000   0.0000  -0.0000   0.0000   0.0000  -0.0000  -0.0000  -0.0000  -0.0004
    35   0.0000   0.0000  -0.0000   0.0000   0.0000  -0.0000  -0.0000   0.0000  -0.0000  -0.0010
    36   0.0000   0.0001  -0.0001   0.0000   0.0000   0.0000  -0.0002   0.0009   0.0012   0.0000
    37  -0.0000  -0.0002   0.0000   0.0000   0.0000   0.0000  -0.0001   0.0000  -0.0000  -0.0000
    38  -1.0000   0.0000  -0.0000   0.0000  -0.0000  -0.0000   0.0002   0.0003  -0.0005  -0.0000
    39  -0.0000  -0.0000   0.9996  -0.0010   0.0000   0.0000  -0.0016  -0.0017   0.0049   0.0000
    40  -0.0000   0.0000  -0.0006  -0.5772  -0.1222   0.8074   0.0001   0.0006  -0.0018   0.0003
    41  -0.0000   0.0000  -0.0008  -0.7796  -0.2119  -0.5894   0.0001   0.0008  -0.0024  -0.0001
    42   0.0000  -0.0000   0.0002   0.2431  -0.9696   0.0270  -0.0000  -0.0003   0.0008   0.0005
    43   0.0001  -0.0002  -0.0024   0.0003   0.0000  -0.0000  -0.0232   0.9779   0.1582   0.0000
    44  -0.0000   0.0001   0.0008  -0.0001   0.0001   0.0001   0.0119  -0.0137   0.1028   0.0046
    45   0.0000  -0.0001  -0.0006   0.0001  -0.0000   0.0002  -0.0097   0.0112  -0.0838   0.0234
    46  -0.0000   0.0000   0.0003  -0.0000  -0.0002   0.0000   0.0044  -0.0050   0.0378   0.0395
    47  -0.0001   0.0001   0.0016  -0.0002  -0.0000  -0.0000   0.0067   0.0086   0.0051   0.0000
    48   0.0000  -0.0000  -0.0004   0.0001  -0.0001   0.0000  -0.0009  -0.0026   0.0042   0.0020
    49   0.0000  -0.0000  -0.0005   0.0001   0.0000  -0.0001  -0.0010  -0.0031   0.0052  -0.0016
    50   0.0000  -0.0000  -0.0010   0.0002   0.0001   0.0001  -0.0022  -0.0065   0.0108  -0.0000
    51  -0.0000   0.0000   0.0000  -0.0001   0.0000   0.0000   0.0012  -0.0018   0.0046  -0.0010
    52   0.0000  -0.0000  -0.0000   0.0001   0.0000   0.0000  -0.0023   0.0033  -0.0088  -0.0001
    53   0.0000  -0.0000  -0.0000   0.0001   0.0000   0.0000  -0.0010   0.0015  -0.0039  -0.0009
    54  -0.0000   0.0000   0.0000  -0.0002   0.0001  -0.0000   0.0030  -0.0043   0.0114   0.0032
    55   0.0000  -0.0000  -0.0000   0.0002   0.0000  -0.0000  -0.0030   0.0044  -0.0116   0.0031
    56   0.0000   0.0000  -0.0000  -0.0000  -0.0000  -0.0000   0.0001  -0.0002   0.0003  -0.0001
    57  -0.0000  -0.0000   0.0000   0.0001   0.0000  -0.0000  -0.0004   0.0007  -0.0015   0.0001
    58  -0.0000  -0.0000   0.0000   0.0000   0.0000  -0.0001  -0.0001   0.0001  -0.0002   0.0005
    59   0.0000   0.0000  -0.0000  -0.0000   0.0000  -0.0000   0.0002  -0.0003   0.0008   0.0004
    60   0.0000   0.0000  -0.0000  -0.0000   0.0000  -0.0000   0.0001  -0.0002   0.0005   0.0002
    61   0.0000   0.0000  -0.0000  -0.0000  -0.0000  -0.0000   0.0003  -0.0004   0.0010  -0.0004
    62   0.0000   0.0000  -0.0000  -0.0002   0.0000   0.0000   0.0010  -0.0016   0.0035   0.0001
    63   0.0000   0.0000  -0.0010  -0.0001   0.0000  -0.0000   0.0013  -0.0022   0.0003  -0.0000
    64  -0.0000  -0.0000   0.0000   0.0001  -0.0005   0.0000  -0.0003   0.0000  -0.0002   0.0001
    65  -0.0000  -0.0000   0.0001   0.0005   0.0001  -0.0003  -0.0014   0.0001  -0.0007  -0.0001
    66   0.0000   0.0000  -0.0001  -0.0004  -0.0001  -0.0004   0.0011  -0.0001   0.0006  -0.0001
    67  -0.0001  -0.0000   0.0002  -0.0000   0.0000   0.0000   0.0001   0.0002  -0.0000  -0.0000
    68   0.0000   0.0000  -0.0000  -0.0000  -0.0005  -0.0001   0.0000   0.0000  -0.0000   0.0000
    69  -0.0000  -0.0000   0.0000   0.0004  -0.0001   0.0003  -0.0000  -0.0000   0.0000   0.0000
    70  -0.0000  -0.0000   0.0000   0.0003   0.0001  -0.0004  -0.0000  -0.0000   0.0000  -0.0000
    71  -0.0001  -0.0000  -0.0000   0.0000  -0.0000  -0.0000  -0.0000  -0.0000   0.0000   0.0000

 MOs :     11       12       13       14       15       16       17       18       19       20
 occup:   2.00     2.00     2.00     2.00     0.00     0.00     0.00     0.00     0.00     0.00
 CF+SFO
     1  -0.0000   0.0038  -0.0000  -0.0000  -0.0016  -0.0113   0.0031  -0.0000   0.0000   0.0148
     2   0.0000  -0.0892   0.0000   0.0000   0.0295   0.1974  -0.0432   0.0000  -0.0001  -0.1863
     3   0.0000   0.2520  -0.0000  -0.0001  -0.0799  -0.2839   0.0613   0.0000   0.0001   0.1210
     4  -0.0487  -0.0000   0.0573  -0.0552   0.0000   0.0000   0.0000  -0.0411  -0.0545   0.0000
     5   0.9960  -0.0000  -0.0553  -0.0573  -0.0000   0.0000  -0.0000   0.0545  -0.0411   0.0000
     6   0.0000   0.1304   0.0000  -0.0000   0.7800   1.2837  -0.3336  -0.0001  -0.0001  -0.0234
     7  -0.0000  -0.0156  -0.0000  -0.0000   0.6691  -0.8717   0.1852   0.0001  -0.0001  -0.2523
     8  -0.0000   0.1003  -0.0000  -0.0000  -0.1199  -0.5718  -0.8445  -0.0001  -0.0001  -0.0761
     9   0.0035   0.0000  -0.0045   0.0105   0.0000   0.0000  -0.0000   0.0442   0.1769  -0.0000
    10   0.0096   0.0000   0.0105   0.0045   0.0000   0.0000   0.0000  -0.1769   0.0442  -0.0000
    11   0.0078  -0.0000   0.0019  -0.0102  -0.0000  -0.0000   0.0000   0.0006   0.0213  -0.0000
    12   0.0122  -0.0000  -0.0102  -0.0019   0.0000   0.0000   0.0000  -0.0213   0.0006   0.0000
    13  -0.0000   0.0038  -0.0000  -0.0000   0.0108  -0.0455   0.0143  -0.0000   0.0000   0.0444
    14  -0.0000  -0.0266  -0.0000   0.0000  -0.0079   0.0582  -0.0329  -0.0000   0.0000   0.0268
    15  -0.0000   0.0126  -0.0000  -0.0000   0.0040  -0.0568   0.0047  -0.0000   0.0000   0.0934
    16   0.0000  -0.0000  -0.0000   0.0000   0.0000  -0.0000   0.0000   0.0000   0.0000  -0.0000
    17  -0.0000  -0.0000   0.0000   0.0000  -0.0000   0.0000  -0.0000  -0.0000   0.0000  -0.0001
    18  -0.0006  -0.0000   0.0004  -0.0008  -0.0000  -0.0000   0.0000   0.0058   0.0164  -0.0000
    19   0.0023   0.0000   0.0008   0.0004   0.0000  -0.0000  -0.0000   0.0164  -0.0058   0.0000
    20  -0.0000   0.0153  -0.0000  -0.0000  -0.0049  -0.0363   0.0132  -0.0000   0.0000   0.0238
    21   0.0000   0.0000  -0.0000  -0.0000   0.0000   0.0000  -0.0000   0.0000  -0.0000  -0.0000
    22   0.0000  -0.0000   0.0000  -0.0000   0.0000   0.0000   0.0000  -0.0000  -0.0000  -0.0000
    23   0.0000   0.0019  -0.0000  -0.0000  -0.0022  -0.0088   0.0007  -0.0000   0.0000   0.0108
    24   0.0002  -0.0000  -0.0002  -0.0002  -0.0000  -0.0000   0.0000  -0.0022   0.0020  -0.0000
    25  -0.0000  -0.0000   0.0002  -0.0002  -0.0000  -0.0000   0.0000   0.0020   0.0022  -0.0000
    26   0.0000   0.0000   0.0000  -0.0000   0.0000  -0.0000  -0.0000  -0.0000  -0.0000   0.0000
    27  -0.0000   0.0000   0.0000   0.0000  -0.0000  -0.0000  -0.0000  -0.0000   0.0000   0.0000
    28   0.0000   0.0029  -0.0000  -0.0000  -0.0029  -0.0045  -0.0003  -0.0000   0.0000   0.0053
    29  -0.0000  -0.0000   0.0000   0.0000  -0.0000  -0.0000   0.0000  -0.0000   0.0000   0.0000
    30  -0.0000  -0.0000   0.0000   0.0000   0.0000   0.0000   0.0000  -0.0000  -0.0000  -0.0000
    31   0.0021   0.0000  -0.0007   0.0000  -0.0000  -0.0000  -0.0000   0.0029   0.0005   0.0000
    32  -0.0020   0.0000   0.0000   0.0007   0.0000   0.0000  -0.0000  -0.0005   0.0029  -0.0000
    33  -0.0000   0.0025   0.0000  -0.0000  -0.0006  -0.0095   0.0034  -0.0000   0.0000   0.0044
    34  -0.0010  -0.0000  -0.0005  -0.0002   0.0000   0.0000  -0.0000  -0.0028   0.0007  -0.0000
    35   0.0004   0.0000  -0.0002   0.0005   0.0000   0.0000  -0.0000  -0.0007  -0.0028   0.0000
    36  -0.0000   0.0042  -0.0000  -0.0000  -0.0021  -0.0081  -0.0007  -0.0000   0.0000   0.0091
    37   0.0000   0.0002  -0.0000  -0.0000  -0.0002  -0.0007   0.0002  -0.0000   0.0000   0.0009
    38   0.0000   0.0004   0.0000   0.0000   0.0041   0.0243   0.0030  -0.0000   0.0000   0.0015
    39  -0.0000  -0.0033  -0.0000  -0.0000  -0.0336  -0.1962  -0.0206   0.0000  -0.0000  -0.0109
    40  -0.0004   0.0010   0.0000   0.0001   0.0040   0.0194  -0.0075   0.0001  -0.0007  -0.0013
    41   0.0004   0.0013  -0.0000  -0.0001   0.0054   0.0261  -0.0101  -0.0004   0.0004  -0.0018
    42   0.0003  -0.0004  -0.0001   0.0000  -0.0017  -0.0082   0.0032  -0.0008  -0.0003   0.0006
    43  -0.0000  -0.0382  -0.0000  -0.0000  -0.2081  -0.9397   0.0015   0.0000   0.0000  -0.0348
    44  -0.0304  -0.6966  -0.4107  -0.5207   0.1837   0.4162  -0.3010  -0.0036   0.0033  -0.0561
    45  -0.0282   0.5671  -0.0971  -0.7850  -0.1496  -0.3390   0.2452  -0.0016   0.0056   0.0457
    46   0.0202  -0.2563   0.9015  -0.3218   0.0675   0.1531  -0.1107   0.0062   0.0034  -0.0206
    47   0.0000   0.0051   0.0000   0.0000  -0.0318   0.3024   0.0572  -0.0002   0.0001   0.2595
    48   0.0013  -0.0122   0.0208  -0.0050  -0.0118  -0.1498   0.0361   0.8231   0.3430   0.3291
    49   0.0017  -0.0149   0.0016   0.0207  -0.0144  -0.1826   0.0442   0.2012  -0.8399   0.4016
    50  -0.0013  -0.0310  -0.0090  -0.0080  -0.0299  -0.3799   0.0919  -0.4213   0.2689   0.8348
    51   0.0015  -0.0030   0.0005   0.0020  -0.0053   0.0017   0.0677  -0.0057   0.0135   0.0090
    52   0.0031   0.0056   0.0025   0.0025   0.0101  -0.0033  -0.1281  -0.0199   0.0143  -0.0170
    53   0.0025   0.0025   0.0013   0.0027   0.0045  -0.0015  -0.0575  -0.0123   0.0174  -0.0076
    54   0.0019  -0.0073   0.0041  -0.0012  -0.0132   0.0043   0.1667  -0.0272  -0.0126   0.0221
    55  -0.0007   0.0074   0.0019  -0.0031   0.0133  -0.0044  -0.1691  -0.0099  -0.0238  -0.0224
    56  -0.0003  -0.0004  -0.0012  -0.0006  -0.0001   0.0003  -0.0009   0.0018  -0.0005  -0.0017
    57   0.0001   0.0016   0.0004  -0.0001   0.0006  -0.0015   0.0039  -0.0005  -0.0002   0.0073
    58  -0.0005   0.0002  -0.0001  -0.0030   0.0001  -0.0002   0.0006   0.0007  -0.0040   0.0010
    59   0.0002  -0.0008   0.0019  -0.0006  -0.0003   0.0008  -0.0020  -0.0024  -0.0012  -0.0038
    60  -0.0002  -0.0006   0.0000  -0.0010  -0.0002   0.0005  -0.0014   0.0002  -0.0014  -0.0026
    61  -0.0004  -0.0011  -0.0022  -0.0001  -0.0004   0.0010  -0.0026   0.0031   0.0003  -0.0048
    62   0.0001  -0.0039   0.0005   0.0001  -0.0014   0.0035  -0.0095  -0.0007   0.0001  -0.0176
    63   0.0000  -0.0003  -0.0000   0.0000   0.0077   0.0599   0.0165  -0.0000   0.0000   0.0023
    64   0.0001   0.0005  -0.0032   0.0007  -0.0003  -0.0069   0.0009   0.0030   0.0012   0.0027
    65   0.0001   0.0023   0.0000  -0.0022  -0.0014  -0.0295   0.0039   0.0003  -0.0021   0.0115
    66   0.0001  -0.0019  -0.0009  -0.0025   0.0011   0.0240  -0.0031   0.0013  -0.0022  -0.0094
    67   0.0000  -0.0000  -0.0000  -0.0000   0.0006   0.0049   0.0007  -0.0000  -0.0000  -0.0001
    68   0.0000   0.0000   0.0002  -0.0000  -0.0000   0.0001  -0.0000   0.0004   0.0001  -0.0001
    69  -0.0000  -0.0002   0.0000  -0.0001   0.0001  -0.0006   0.0002  -0.0000   0.0003   0.0009
    70   0.0000  -0.0001   0.0000   0.0002   0.0001  -0.0004   0.0002   0.0001  -0.0003   0.0006
    71  -0.0000  -0.0000  -0.0000  -0.0000  -0.0002  -0.0014  -0.0002   0.0000  -0.0000  -0.0001

 MOs :     21       22       23       24       25       26       27       28       29       30
 occup:   0.00     0.00     0.00     0.00     0.00     0.00     0.00     0.00     0.00     0.00
 CF+SFO
     1   0.0000   0.0000   0.0188   0.0000  -0.0000   0.0000  -0.0000   0.0153   0.0127   0.0000
     2  -0.0000  -0.0000  -0.3192  -0.0000   0.0000  -0.0000   0.0000  -0.2756  -0.2237  -0.0000
     3   0.0000   0.0000   0.4008   0.0000   0.0000   0.0000  -0.0000   0.3982   0.2962   0.0001
     4   0.0009   0.0005  -0.0000  -0.0000  -0.0000  -0.0146  -0.0042  -0.0000  -0.0000  -0.0292
     5  -0.0005   0.0009  -0.0000  -0.0000   0.0000  -0.0042   0.0146  -0.0000  -0.0000  -0.0206
     6  -0.0001  -0.0002  -1.2563  -0.0000  -0.0000  -0.0000   0.0000  -1.1062  -0.7372  -0.0001
     7   0.0000   0.0001   0.2925   0.0000   0.0000   0.0000  -0.0000   0.2754   0.1568   0.0000
     8   0.0000   0.0000   0.6267   0.0000  -0.0000  -0.0000   0.0000   0.1032  -0.2055  -0.0000
     9   0.3745   0.5340  -0.0001  -0.0000   0.0000  -0.6793   0.0825   0.0000   0.0000  -0.3490
    10  -0.5340   0.3745  -0.0000  -0.0000   0.0000   0.0825   0.6794   0.0000   0.0000  -0.0762
    11  -0.0337  -0.0808  -0.0000  -0.0000   0.0000  -0.4743   0.1664   0.0001  -0.0002   0.8511
    12   0.0808  -0.0337   0.0000  -0.0000   0.0000   0.1664   0.4742  -0.0001   0.0000  -0.0013
    13   0.0000   0.0000  -0.1187  -0.0000  -0.0000   0.0001  -0.0000   0.7689  -0.6068  -0.0001
    14  -0.0000  -0.0000  -0.0834   0.0000  -0.0000  -0.0000   0.0000  -0.3938  -0.0676  -0.0000
    15  -0.0000  -0.0000   0.2129   0.0000  -0.0000  -0.0000  -0.0000   0.0405  -0.0378   0.0000
    16   0.0000   0.0000   0.0000  -0.0110  -0.0070  -0.0000  -0.0000   0.0000  -0.0000   0.0000
    17  -0.0000   0.0000  -0.0002   0.0070  -0.0110  -0.0000  -0.0000  -0.0000   0.0000   0.0000
    18  -0.0139  -0.0163   0.0000  -0.0000   0.0000  -0.0361   0.0009  -0.0000   0.0000  -0.0892
    19  -0.0163   0.0139  -0.0000   0.0000  -0.0000  -0.0009  -0.0361  -0.0000  -0.0000   0.0285
    20   0.0000   0.0000   0.0597   0.0000   0.0000   0.0000  -0.0000   0.0496   0.0208   0.0000
    21   0.0000  -0.0000  -0.0000  -0.0010   0.0103   0.0000   0.0000  -0.0000   0.0000  -0.0000
    22  -0.0000   0.0000  -0.0000   0.0103   0.0010  -0.0000  -0.0000  -0.0000  -0.0000   0.0000
    23  -0.0000   0.0000   0.0230   0.0000  -0.0000  -0.0000   0.0000   0.0126   0.0162   0.0000
    24   0.0027  -0.0054  -0.0000  -0.0000   0.0000  -0.0018   0.0046  -0.0000  -0.0000  -0.0053
    25  -0.0054  -0.0027  -0.0000   0.0000   0.0000  -0.0046  -0.0018  -0.0000   0.0000  -0.0062
    26   0.0000   0.0000   0.0000  -0.0000   0.0000  -0.0000   0.0000  -0.0000   0.0000   0.0000
    27   0.0000  -0.0000   0.0000  -0.0000   0.0000   0.0000  -0.0000   0.0000   0.0000  -0.0000
    28  -0.0000   0.0000   0.0003   0.0000   0.0000  -0.0000   0.0000  -0.0013   0.0097   0.0000
    29  -0.0000   0.0000   0.0000  -0.0002  -0.0041   0.0000  -0.0000   0.0000   0.0000   0.0000
    30  -0.0000   0.0000  -0.0000   0.0041  -0.0002   0.0000  -0.0000  -0.0000  -0.0000  -0.0000
    31   0.0015  -0.0003   0.0000  -0.0000  -0.0000  -0.0019  -0.0033   0.0000  -0.0000  -0.0004
    32   0.0003   0.0015  -0.0000  -0.0000  -0.0000  -0.0033   0.0019   0.0000   0.0000  -0.0022
    33   0.0000   0.0000   0.0220   0.0000  -0.0000   0.0000  -0.0000   0.0160   0.0059   0.0000
    34   0.0021  -0.0014  -0.0000  -0.0000   0.0000  -0.0002  -0.0014  -0.0000  -0.0000   0.0009
    35   0.0014   0.0021   0.0000  -0.0000  -0.0000  -0.0014   0.0002   0.0000  -0.0000  -0.0046
    36   0.0000   0.0000   0.0088   0.0000  -0.0000   0.0000   0.0000   0.0081   0.0116   0.0000
    37   0.0000   0.0000   0.0013   0.0000  -0.0000   0.0000   0.0000   0.0011   0.0010   0.0000
    38  -0.0000  -0.0000  -0.0200  -0.0000  -0.0000  -0.0000  -0.0000  -0.0163  -0.0032  -0.0000
    39   0.0000   0.0000   0.1613   0.0000   0.0000   0.0000   0.0000   0.1316   0.0282   0.0000
    40  -0.0006  -0.0039  -0.0181  -0.0000  -0.0000  -0.0002   0.0001  -0.0144  -0.0080   0.0064
    41  -0.0010   0.0029  -0.0244  -0.0000   0.0000   0.0001  -0.0001  -0.0194  -0.0108  -0.0038
    42  -0.0047  -0.0001   0.0076   0.0000  -0.0000  -0.0002  -0.0002   0.0060   0.0034   0.0031
    43   0.0000   0.0001   0.8019   0.0000  -0.0000   0.0000   0.0000   0.6601   0.2252   0.0001
    44  -0.0442   0.0895  -0.3977  -0.0000   0.0000  -0.0088   0.0221  -0.3558  -0.2915  -0.0845
    45   0.0102   0.1186   0.3240   0.0000   0.0000  -0.0226   0.0170   0.2899   0.2375  -0.1460
    46   0.1428   0.0192  -0.1463   0.0000   0.0000  -0.0261  -0.0222  -0.1309  -0.1072  -0.0940
    47  -0.0001  -0.0001  -1.4040  -0.0000   0.0000  -0.0000   0.0000  -0.9214  -0.5047  -0.0001
    48  -0.2968  -0.0083   0.2093   0.0000   0.0000   0.1305   0.1371   0.1768   0.1713   0.0749
    49   0.0377   0.2852   0.2552  -0.0000   0.0000  -0.1512   0.1037   0.2155   0.2088  -0.1698
    50   0.0989  -0.1337   0.5312   0.0000  -0.0000   0.0213  -0.1039   0.4485   0.4345   0.0522
    51  -0.0082   0.2548   0.1000  -0.8558  -0.2408   0.1524  -0.1462  -0.1027  -0.1725   0.1854
    52  -0.2339   0.3576  -0.1891   0.2797  -0.5404   0.0907  -0.3422   0.1942   0.3261   0.1915
    53  -0.0906   0.3592  -0.0849  -0.0298   0.7981   0.1712  -0.2548   0.0871   0.1463   0.2370
    54  -0.5203  -0.0347   0.2462   0.1360   0.0525  -0.3096  -0.3013  -0.2528  -0.4245  -0.1864
    55  -0.3082  -0.3251  -0.2497  -0.4104   0.0933  -0.3710  -0.0098   0.2565   0.4307  -0.3349
    56   0.0082  -0.0062  -0.0045   0.0029   0.0003  -0.0010  -0.0120   0.0002   0.0101   0.0181
    57  -0.0031  -0.0003   0.0191   0.0013  -0.0021   0.0027   0.0025  -0.0008  -0.0431   0.0102
    58  -0.0041  -0.0217   0.0027  -0.0010   0.0009   0.0222  -0.0134  -0.0001  -0.0062   0.1535
    59  -0.0147  -0.0015  -0.0098   0.0022   0.0009   0.0129   0.0117   0.0004   0.0221   0.0501
    60  -0.0018  -0.0072  -0.0067  -0.0002  -0.0031   0.0077  -0.0041   0.0003   0.0150   0.0521
    61   0.0161  -0.0043  -0.0127   0.0004   0.0001  -0.0089  -0.0175   0.0006   0.0286  -0.0160
    62  -0.0034   0.0017  -0.0460  -0.0004  -0.0006   0.0011   0.0043   0.0020   0.1038  -0.0021
    63  -0.0000  -0.0000  -0.0983  -0.0000  -0.0000  -0.0000   0.0000  -0.0947  -0.0384  -0.0000
    64  -0.0073  -0.0000   0.0108   0.0000   0.0000   0.0075   0.0082   0.0083   0.0033   0.0015
    65   0.0010   0.0047   0.0462  -0.0000   0.0000  -0.0063   0.0036   0.0354   0.0139  -0.0024
    66  -0.0008   0.0057  -0.0375  -0.0000   0.0000  -0.0056   0.0068  -0.0288  -0.0113  -0.0026
    67  -0.0000  -0.0000  -0.0086  -0.0000  -0.0000  -0.0000   0.0000  -0.0076  -0.0031  -0.0000
    68  -0.0004   0.0001  -0.0002   0.0000   0.0000   0.0003   0.0005  -0.0001  -0.0001   0.0000
    69  -0.0001  -0.0002   0.0017   0.0000   0.0000   0.0003  -0.0001   0.0013   0.0008   0.0001
    70   0.0001   0.0004   0.0012  -0.0000  -0.0000  -0.0004   0.0003   0.0009   0.0005  -0.0002
    71   0.0000   0.0000   0.0013   0.0000   0.0000   0.0000   0.0000   0.0011   0.0003   0.0000

 MOs :     31       32       33       34       35       36       37       38       39       40
 occup:   0.00     0.00     0.00     0.00     0.00     0.00     0.00     0.00     0.00     0.00
 CF+SFO
     1   0.0000   0.0065  -0.0000   0.0000  -0.0000   0.0000   0.0000  -0.0000   0.0000   0.0000
     2  -0.0000  -0.1321   0.0000  -0.0000   0.0000  -0.0000  -0.0000   0.0000  -0.0000   0.0000
     3   0.0000   0.2149  -0.0000   0.0000  -0.0000   0.0000   0.0000  -0.0000   0.0000  -0.0000
     4   0.0206  -0.0000   0.0000   0.0000  -0.0000   0.0000  -0.0000   0.0000  -0.0429   0.0310
     5  -0.0291  -0.0000   0.0000  -0.0000   0.0000  -0.0000   0.0000   0.0000   0.0310   0.0429
     6  -0.0000  -0.7347   0.0000  -0.0000  -0.0000  -0.0000   0.0000   0.0000   0.0000  -0.0000
     7   0.0000   0.2913   0.0000   0.0000   0.0000   0.0000   0.0000  -0.0000  -0.0000   0.0000
     8  -0.0000   0.2628   0.0000   0.0000   0.0000  -0.0000  -0.0000  -0.0000  -0.0000   0.0001
     9   0.0762  -0.0000   0.0000   0.0000   0.0000   0.0000  -0.0000   0.0000  -0.1347   0.2232
    10  -0.3490  -0.0000  -0.0000  -0.0000   0.0000  -0.0000   0.0000   0.0000   0.2232   0.1347
    11   0.0014   0.0000  -0.0000   0.0000  -0.0000   0.0000   0.0000  -0.0000   0.0860  -0.2539
    12   0.8511  -0.0000   0.0000   0.0000  -0.0000   0.0000  -0.0000  -0.0000  -0.2540  -0.0860
    13   0.0001   0.3310   0.0000   0.0000   0.0000  -0.0000  -0.0000  -0.0000  -0.0000   0.0001
    14  -0.0000   0.8917   0.0000   0.0000   0.0000   0.0000   0.0000   0.0000  -0.0000   0.0000
    15  -0.0000  -0.2689  -0.0003   0.0008  -0.0000  -0.0000   0.0000   0.0003  -0.0000   0.0001
    16   0.0000   0.0000  -0.8707  -0.3440   0.0001  -0.0003  -0.3481   0.0559   0.0000   0.0000
    17   0.0000   0.0002  -0.3440   0.8707  -0.0001  -0.0000   0.0559   0.3481  -0.0000  -0.0000
    18   0.0285  -0.0000   0.0000   0.0000   0.0000   0.0000  -0.0000   0.0000  -0.2161   0.2917
    19   0.0892   0.0000  -0.0000   0.0000  -0.0000   0.0000  -0.0000  -0.0001  -0.2917  -0.2161
    20  -0.0000   0.0565  -0.0000  -0.0000   0.0000   0.0000  -0.0000   0.0000   0.0000  -0.0000
    21   0.0000  -0.0000   0.0061  -0.0054  -0.0000  -0.0000  -0.0212   0.0657   0.0000  -0.0000
    22  -0.0000   0.0000   0.0054   0.0061   0.0000  -0.0000  -0.0657  -0.0212   0.0000   0.0000
    23   0.0000   0.0065   0.0000   0.0000  -0.0000   0.0000   0.0000   0.0000  -0.0000   0.0000
    24  -0.0062  -0.0000   0.0000  -0.0000   0.0000  -0.0000   0.0000   0.0000   0.0091   0.0156
    25   0.0053   0.0000  -0.0000   0.0000   0.0000   0.0000  -0.0000  -0.0000  -0.0156   0.0091
    26  -0.0000   0.0000  -0.0000   0.0000  -0.0015  -0.0003  -0.0000   0.0000   0.0000   0.0000
    27  -0.0000   0.0000  -0.0000  -0.0000  -0.0003   0.0015  -0.0000   0.0000   0.0000   0.0000
    28  -0.0000   0.0011  -0.0000  -0.0000  -0.0000  -0.0000  -0.0000   0.0000   0.0000   0.0000
    29  -0.0000   0.0000  -0.0049   0.0031  -0.0000   0.0000   0.0078  -0.0157  -0.0000   0.0000
    30  -0.0000   0.0000   0.0031   0.0049   0.0000  -0.0000  -0.0157  -0.0078  -0.0000   0.0000
    31   0.0022  -0.0000  -0.0000  -0.0000  -0.0000   0.0000   0.0000   0.0000   0.0041   0.0006
    32  -0.0004   0.0000  -0.0000   0.0000  -0.0000   0.0000   0.0000  -0.0000   0.0006  -0.0041
    33   0.0000   0.0141  -0.0000   0.0000   0.0000   0.0000  -0.0000  -0.0000  -0.0000  -0.0000
    34   0.0046  -0.0000   0.0000  -0.0000   0.0000  -0.0000   0.0000   0.0000   0.0061   0.0036
    35   0.0009  -0.0000  -0.0000   0.0000  -0.0000  -0.0000   0.0000  -0.0000   0.0036  -0.0061
    36   0.0000  -0.0070  -0.0000  -0.0000  -0.0000   0.0000  -0.0000   0.0000   0.0000  -0.0000
    37   0.0000   0.0003  -0.0000   0.0000  -0.0000   0.0000  -0.0000  -0.0000   0.0000   0.0000
    38  -0.0000  -0.0171  -0.0000  -0.0000  -0.0000   0.0000   0.0000   0.0000   0.0000  -0.0000
    39   0.0000   0.1364   0.0000   0.0000   0.0000  -0.0000  -0.0000  -0.0000  -0.0000   0.0000
    40   0.0015  -0.0116   0.0000  -0.0000   0.0000   0.0000   0.0000   0.0000   0.0000  -0.0005
    41  -0.0034  -0.0157  -0.0000  -0.0000   0.0000  -0.0000   0.0000   0.0000   0.0001   0.0003
    42  -0.0072   0.0049   0.0000   0.0000   0.0000  -0.0000   0.0000  -0.0000   0.0006  -0.0000
    43   0.0000   0.6258   0.0000   0.0000   0.0000   0.0000  -0.0000  -0.0000  -0.0000   0.0001
    44  -0.0972  -0.2066   0.0000  -0.0000   0.0000  -0.0000   0.0000   0.0000   0.0107   0.0184
    45  -0.0469   0.1683  -0.0000   0.0000  -0.0000   0.0000   0.0000  -0.0000  -0.0004   0.0254
    46   0.1602  -0.0760   0.0000  -0.0000  -0.0000   0.0000  -0.0000   0.0000  -0.0302   0.0062
    47  -0.0000  -0.6831   0.0000  -0.0000  -0.0000  -0.0000  -0.0000   0.0000   0.0000  -0.0000
    48  -0.1655   0.0432  -0.0000   0.0000   0.0000  -0.0000   0.0000   0.0000   0.0717  -0.0070
    49  -0.0461   0.0527  -0.0000   0.0000   0.0000   0.0000   0.0000   0.0000  -0.0044   0.0696
    50   0.0874   0.1097  -0.0000   0.0000  -0.0000   0.0000  -0.0000  -0.0000  -0.0261  -0.0307
    51   0.0847  -0.0182   0.0172   0.0136   0.0000  -0.0000  -0.0007  -0.0001  -0.0016  -0.0159
    52   0.2830   0.0345   0.0067  -0.0134   0.0000  -0.0000   0.0000   0.0005  -0.0161  -0.0213
    53   0.1778   0.0155  -0.0155   0.0122  -0.0000   0.0000   0.0002  -0.0006  -0.0072  -0.0220
    54   0.3730  -0.0449  -0.0030  -0.0020  -0.0000   0.0000   0.0001   0.0000  -0.0323   0.0044
    55   0.1270   0.0455   0.0041   0.0095  -0.0000   0.0000  -0.0003  -0.0002  -0.0178   0.0216
    56   0.0704   0.0088   0.1509   0.1708  -0.5238  -0.1559  -0.6402  -0.2063   0.3195   0.2089
    57  -0.0195  -0.0377  -0.0738   0.1804   0.4033  -0.5609  -0.0838  -0.5689  -0.1143   0.0178
    58   0.0323  -0.0054   0.0068  -0.1064   0.0584  -0.2156   0.1432   0.2803  -0.0989   0.8171
    59  -0.0923   0.0194   0.1609   0.0973   0.3334   0.3604  -0.5549  -0.0043  -0.5434   0.0928
    60   0.0080   0.0132  -0.2078   0.1333  -0.1926   0.4995   0.3259  -0.6511  -0.0484   0.2723
    61   0.1173   0.0250   0.0233   0.0254   0.6414   0.2094  -0.0972  -0.0292   0.6101   0.1187
    62  -0.0268   0.0909  -0.0555   0.0050   0.0023  -0.4375   0.1337  -0.0962  -0.1294  -0.0558
    63  -0.0000  -0.1117  -0.0000  -0.0000  -0.0000  -0.0000   0.0000  -0.0000  -0.0000  -0.0000
    64  -0.0035  -0.0006   0.0000  -0.0000   0.0000  -0.0000   0.0000   0.0000   0.0280  -0.0020
    65  -0.0005  -0.0027   0.0000  -0.0000   0.0000  -0.0000  -0.0000   0.0000  -0.0027   0.0182
    66  -0.0016   0.0022   0.0000  -0.0000  -0.0000  -0.0000   0.0000   0.0000   0.0048   0.0219
    67  -0.0000  -0.0076   0.0000  -0.0000  -0.0000  -0.0000   0.0000   0.0000   0.0000  -0.0000
    68  -0.0002   0.0000   0.0000  -0.0000  -0.0000  -0.0000   0.0000   0.0000   0.0006   0.0001
    69   0.0000  -0.0004  -0.0000  -0.0000  -0.0000   0.0000  -0.0000  -0.0000   0.0001  -0.0004
    70  -0.0000  -0.0003  -0.0000  -0.0000   0.0000  -0.0000   0.0000   0.0000  -0.0000   0.0005
    71   0.0000   0.0011   0.0000   0.0000   0.0000  -0.0000  -0.0000  -0.0000  -0.0000   0.0000

 MOs :     41       42       43       44       45       46       47       48       49       50
 occup:   0.00     0.00     0.00     0.00     0.00     0.00     0.00     0.00     0.00     0.00
 CF+SFO
     1   0.0066   0.0208   0.0000  -0.0000   0.0056   0.0000   0.0000   0.0117   0.0100   0.0000
     2  -0.1290  -0.3714  -0.0000   0.0000  -0.0963  -0.0000  -0.0000  -0.2468  -0.0859  -0.0000
     3   0.1690   0.5233   0.0000  -0.0000   0.1267   0.0000   0.0000   0.3870  -0.0308   0.0000
     4   0.0000  -0.0000   0.0569   0.0072   0.0000  -0.0125   0.0163  -0.0000   0.0000   0.0000
     5   0.0000  -0.0000   0.0072  -0.0569  -0.0000   0.0163   0.0125  -0.0000   0.0000  -0.0000
     6  -0.1358  -1.4228  -0.0001   0.0000  -0.3466  -0.0001  -0.0000  -1.1034   0.0520  -0.0000
[...]
   69   -8.15718139194309E-17 -9.31637139124902E-16 -1.74103651841181E-16  6.54633648450222E-17
   70   -6.23685182139918E-17 -2.69917636554423E-16  3.95380315520408E-16 -2.51429024898230E-16
   71   -5.94142790522056E-16 -1.28543009569881E-15 -6.87384177355810E-16  9.55832635263221E-16

 column          53                    54                    55                    56
 row
   53    9.99999999999997E-01
   54   -1.40917059786435E-16  1.00000000000000E+00
   55    1.00320512336034E-15 -4.93419244027851E-16  1.00000000000000E+00
   56    4.80047882660821E-16  6.70542912433128E-17  4.51939650171558E-16  1.00000000000000E+00
   57   -3.59298101630804E-16 -1.91536569277520E-16 -3.53452899315369E-16  5.84262505225637E-16
   58    5.43268784026269E-17 -1.87205362254686E-16 -1.76639076223942E-16  2.98786355737810E-17
   59    3.93632674791986E-16 -2.00575959306830E-16  2.15626649518575E-16  1.76836037026778E-16
   60   -9.69470964209868E-16 -5.58990526164309E-16  2.42961355638537E-16  3.97254102119425E-16
   61    4.50957032395739E-17  3.16422418806424E-16  6.39833388823289E-16  5.53738844136355E-16
   62    1.97646032637608E-16 -3.06391563477463E-16  6.55768460841306E-16 -2.72274750575620E-16
   63   -8.32322420180216E-16 -1.01751908019644E-15  5.69606363622467E-16  2.15520121890568E-17
   64    8.38134336747802E-17  2.71700005633683E-16  6.33733639872314E-16  1.93586614003002E-15
   65   -1.90900050487438E-19  2.43486396951827E-16 -4.14347553731359E-16 -8.38888196070858E-17
   66    3.11967528429679E-16  1.78231190453592E-16  1.95438029502353E-17  4.05583235004692E-15
   67   -6.80220131506611E-16 -3.40735731933751E-16  1.16819607711761E-16  5.42455648940517E-17
   68   -8.52508174842797E-16 -5.17139316454744E-16 -4.06096910194620E-16  5.71919885225382E-16
   69    3.29432289010879E-16  1.11145725750842E-15 -4.54583101033596E-16 -2.79093339331237E-16
   70   -1.81284797168003E-16 -4.51741411374676E-16 -3.56528131839715E-16  3.65829896941882E-16
   71    1.05167610731094E-15 -1.31340251174894E-15  1.75066124791234E-15 -2.39208880568192E-16

 column          57                    58                    59                    60
 row
   57    1.00000000000000E+00
   58    2.90849139206974E-16  1.00000000000000E+00
   59   -2.68549906646457E-16 -3.93216774997439E-16  1.00000000000000E+00
   60   -1.03338135039438E-15 -9.34872460049098E-17  2.31929714338783E-17  9.99999999999999E-01
   61    7.28098205629017E-16  4.05608925745593E-16 -8.51184563439982E-16 -7.16532298297782E-16
   62    1.29731592671248E-16  1.87153934781642E-16  2.85575953791815E-16 -6.04462053952113E-16
   63    2.38379847071067E-16 -8.69135874966207E-17  4.31586474152997E-16  4.37212996384252E-17
   64    9.07813702208664E-15  6.27157285995999E-16 -4.31522589339928E-16 -7.49810895997701E-16
   65    7.30014710316408E-16  3.79685496456945E-16 -7.52747592313056E-17 -6.56301323974468E-16
   66    5.06348990209451E-16 -2.06533578776233E-16 -3.21122313463163E-16 -8.93488760414038E-16
   67   -5.13629503088897E-16 -1.71559528827099E-16  1.37707969586644E-17 -9.32756916681172E-17
   68   -2.29317883613713E-15 -4.05562286407525E-16  4.49846502718717E-16  1.85718078030272E-15
   69    3.84172428501898E-16  2.67940615333418E-16 -3.46112194157108E-16 -5.12281979548934E-16
   70   -9.36087079652861E-16 -4.22885708705409E-16  1.55225219740794E-16  9.24066775541371E-16
   71   -5.67335891807352E-16 -1.25083049386937E-16  2.47442040815504E-16  1.67414367958918E-16

 column          61                    62                    63                    64
 row
   61    9.99999999999999E-01
   62    1.05396399624103E-15  1.00000000000000E+00
   63   -1.95339561922235E-17  8.55139264317761E-16  1.00000000000001E+00
   64    4.01338279096946E-16  2.70856043180863E-16  8.68404859062947E-16  1.00000000000000E+00
   65   -2.65466213718806E-16  4.41632390786552E-16  1.45830697913457E-15  1.64276110889341E-16
   66   -5.81285359778328E-17  6.14238647195665E-16 -1.24633529001829E-15  6.97884844802921E-16
   67    6.76201489567481E-16  5.76998208394919E-16  1.77834355517804E-14 -5.26363531720123E-16
   68   -7.40387482405929E-16 -9.73536709121799E-16 -8.87402537520440E-17  4.45841654843483E-16
   69    2.42925952308320E-16 -4.45707995691384E-16  1.21866822934565E-15  1.04611427722103E-15
   70   -5.93424546287454E-16 -9.02319899452332E-16  5.59047250901995E-16 -1.32365955134460E-15
   71    6.29054100476090E-16  8.49580822359641E-16 -6.79664657887713E-15 -7.81167665275806E-16

 column          65                    66                    67                    68
 row
   65    9.99999999999999E-01
   66    1.70536531402497E-16  1.00000000000000E+00
   67    5.75291225247965E-16 -8.29239749647803E-16  1.00000000000005E+00
   68   -6.92354990206772E-16 -1.09031719449931E-15 -1.52167351391867E-15  1.00000000000000E+00
   69    7.99541080451173E-16 -1.08593181376380E-15  2.35681348331881E-15 -1.08404261265407E-15
   70    2.18442830250893E-15 -2.32048487548578E-16  1.26515339749097E-15  2.47273321116834E-15
   71   -2.39131631163403E-15  1.78264521200067E-15 -4.27620178850008E-14 -2.01891997043957E-16

 column          69                    70                    71
 row
   69    1.00000000000000E+00
   70    4.82546199721302E-17  1.00000000000000E+00
   71    6.71554825637521E-16  4.47233396150271E-16  1.00000000000003E+00


 SFO contributions (%) per orbital
 (multiplication by the orbital occupation yields the SFO Gross Populations)

 Orb.:        5      6      7      8      9     10     11     12     13     14     15     16     17     18
 occup:     2.00   2.00   2.00   2.00   2.00   2.00   2.00   2.00   2.00   2.00   0.00   0.00   0.00   0.00
 CF+SFO     ----   ----   ----   ----   ----   ----   ----   ----   ----   ----   ----   ----   ----   ----
 ------
      2:    0.00   0.00  99.57   0.04   0.04   0.00  -0.00   0.12  -0.00   0.00  -0.00   0.06   0.00   0.00
      3:    0.00   0.00   0.07   1.63  94.40   0.00   0.00   3.10   0.00   0.00   0.22   0.17   0.10   0.00
      4:    0.00   0.00   0.00   0.00   0.00  99.36   0.24   0.00   0.19   0.18  -0.00  -0.00   0.00   0.00
      5:    0.00   0.00   0.00   0.00   0.00   0.24  99.36   0.00   0.18   0.19   0.00  -0.00   0.00   0.01
      6:    0.00   0.00  -0.01   1.13   0.19   0.00   0.00   5.63   0.00   0.00  47.43  48.86   7.12   0.00
      7:    0.00   0.00  -0.00   0.22  -0.00   0.00  -0.00   0.16  -0.00  -0.00  49.51  48.19   3.19   0.00
      8:   -0.00  -0.00  -0.00  -0.40  -0.04   0.00  -0.00   2.55   0.00   0.00   1.28  20.31  69.91   0.00
     10:    0.00   0.00   0.00   0.00   0.00   0.00   0.02   0.00   0.18   0.03   0.00   0.00   0.00   6.94
     15:   -0.00   0.00  -0.00  -0.00   0.00   0.00   0.00  -0.36  -0.00  -0.00   0.04  -1.29  -0.03   0.00
     40:    1.49  65.19  -0.00   0.00  -0.00   0.00   0.00  -0.00   0.00   0.00   0.00  -0.00  -0.00   0.00
     41:    4.49  34.74  -0.00   0.00  -0.00   0.00   0.00  -0.00   0.00   0.00   0.00  -0.00   0.00   0.00
     42:   94.02   0.07  -0.00   0.00  -0.00   0.00   0.00  -0.00   0.00   0.00   0.00  -0.00   0.00   0.00
     43:   -0.00   0.00   0.09  97.19   1.53   0.00   0.00   0.09  -0.00  -0.00   0.09   0.24   0.00   0.00
     44:    0.00   0.00   0.09   0.04   2.06   0.00   0.16  49.18  16.88  27.14   0.58   0.63   2.82  -0.00
     45:    0.00   0.00   0.06   0.03   1.37   0.10   0.14  32.60   0.94  61.68   0.38   0.41   1.87  -0.00
     46:    0.00   0.00   0.01   0.01   0.28   0.27   0.07   6.66  81.35  10.36   0.08   0.08   0.38  -0.01
     47:    0.00   0.00   0.07  -0.01   0.07   0.00  -0.00   0.01  -0.00  -0.00   1.13 -19.65   0.17   0.00
     48:    0.00   0.00   0.01  -0.00  -0.02  -0.01  -0.00   0.02   0.05   0.00  -0.11   0.07  -0.06  70.13
     49:    0.00   0.00   0.01  -0.00  -0.03  -0.01  -0.01   0.04   0.00   0.05  -0.17   0.11  -0.09   4.19
     50:    0.00   0.00   0.04  -0.00  -0.13  -0.00  -0.00   0.16   0.01   0.01  -0.73   0.47  -0.40  18.37
     52:    0.00   0.00   0.00   0.00   0.04   0.00   0.01   0.01   0.00   0.00   0.03  -0.01   3.08   0.06
     54:    0.00   0.00   0.01   0.01   0.07   0.01   0.00   0.01   0.00   0.00   0.05  -0.02   5.22   0.11
     55:    0.00   0.00   0.01   0.01   0.07   0.01   0.00   0.01   0.00   0.00   0.05  -0.02   5.37   0.01


 Summation over all MOs, multiplied by occupation: Total SFO Gross Populations in this Irrep
 ===========================================================================================

     2.00    2.00    1.98    2.00    2.00    0.14    0.01    0.04    0.00    0.00    0.00    0.00
     0.00    0.01   -0.01    0.00   -0.00    0.00    0.00   -0.00    0.00   -0.00   -0.00    0.00
     0.00    0.00    0.00    0.00    0.00    0.00   -0.00   -0.00   -0.00   -0.00   -0.00   -0.00
    -0.00    2.00    2.00    2.00    2.00    2.00    1.98    1.91    1.94    1.98    0.00    0.00
     0.00    0.00    0.00    0.00    0.00    0.00    0.00    0.00    0.00    0.00    0.00    0.00
     0.00    0.00   -0.00    0.00   -0.00   -0.00   -0.00    0.00   -0.00   -0.00   -0.00



 List of all MOs, ordered by energy, with the most significant SFO gross populations
 ===================================================================================

 Each percentage contribution in the table below corresponds to the indicated SFO.
 In general, a SFO may be a linear combination of several Fragment Orbitals on the same,
 or on symmetry-related Fragments. Only the first 'member' of such a combination is
 specified here. A full definition of all SFOs is given in an earlier part of the output.
 The numbering of the SFOs in this table does NOT include the Core Orbitals, and starts
 from one for each symmetry representation, as in the SFO definition list earlier.

       E(eV)  Occ       MO           %     SFO (first member)   E(eV)  Occ   Fragment
 -------------------------------------------------------------------------------------

     -12.382  2.00     8 A         97.19%     6 A             -10.473  2.00     2 Cl
                                    1.63%     3 A             -12.987  2.00     1 FH
                                    1.13%     6 A              -1.444  0.00     1 FH
      -6.865  2.00     9 A         94.40%     3 A             -12.987  2.00     1 FH
                                    2.06%     7 A               0.909  2.00     2 Cl
                                    1.53%     6 A             -10.473  2.00     2 Cl
                                    1.37%     8 A               0.909  2.00     2 Cl
      -3.512  2.00    10 A         99.36%     4 A              -9.457  2.00     1 FH
                                    0.27%     9 A               0.909  2.00     2 Cl
      -3.511  2.00    11 A         99.36%     5 A              -9.457  2.00     1 FH
                                    0.24%     4 A              -9.457  2.00     1 FH
      -1.111  2.00    12 A         49.18%     7 A               0.909  2.00     2 Cl
                                   32.60%     8 A               0.909  2.00     2 Cl
                                    6.66%     9 A               0.909  2.00     2 Cl
                                    5.63%     6 A              -1.444  0.00     1 FH
                                    3.10%     3 A             -12.987  2.00     1 FH
                                    2.55%     8 A               4.761  0.00     1 FH
      -0.697  2.00    13 A         81.35%     9 A               0.909  2.00     2 Cl
                                   16.88%     7 A               0.909  2.00     2 Cl
      -0.697  2.00    14 A         61.68%     8 A               0.909  2.00     2 Cl
                                   27.14%     7 A               0.909  2.00     2 Cl
                                   10.36%     9 A               0.909  2.00     2 Cl
       5.269  0.00    15 A         49.51%     7 A               1.901  0.00     1 FH
                                   47.43%     6 A              -1.444  0.00     1 FH
                                    1.28%     8 A               4.761  0.00     1 FH
                                    1.13%    10 A              12.914  0.00     2 Cl
       7.097  0.00    16 A         48.86%     6 A              -1.444  0.00     1 FH
                                   48.19%     7 A               1.901  0.00     1 FH
                                   20.31%     8 A               4.761  0.00     1 FH
                                  -19.65%    10 A              12.914  0.00     2 Cl
                                   -1.29%    15 A              30.834  0.00     1 FH
      10.253  0.00    17 A         69.91%     8 A               4.761  0.00     1 FH
                                    7.12%     6 A              -1.444  0.00     1 FH
                                    5.37%    18 A              20.162  0.00     2 Cl
                                    5.22%    17 A              20.162  0.00     2 Cl
                                    3.19%     7 A               1.901  0.00     1 FH
                                    3.08%    15 A              20.162  0.00     2 Cl
                                    2.82%     7 A               0.909  2.00     2 Cl
                                    1.87%     8 A               0.909  2.00     2 Cl



 =======================================================================
 Electrostatic potential at the Nuclei due to electrons and other nuclei
 =======================================================================
  
         Atom                  Potential
         ----                  ---------
     1)   F                  26.83267230
     2)   H                   1.16519641
     3)   Cl                 64.71257340
 
 
 ========================
 No memory problems found
 ========================
 
 Maximum number of active allocate calls:         546
 
 *******************************************************************************

                             A D F   E X I T
 NORMAL TERMINATION



 =================
 Timing Statistics
 =================
  
 Total Used :                     CPU=        4.38      System=        0.16     Elapsed=        4.83

 Calls  Section                     ( Mean, Percentage )
 ---------------------------------------------------------------------------------------------------
     3  ><      ................      0.00    0.02             0.00    0.00             0.00    0.04
     1  INIT    ................      0.45   10.25             0.02   14.02             0.47    9.84
     1  GEOMET  ................      0.03    0.71             0.00    3.05             0.24    4.89
     1  FRAGM   ................      0.01    0.21             0.01    4.88             0.03    0.57
     1  INPUTA  ................      0.00    0.00             0.00    0.00             0.00    0.01
     1  ATDEN   ................      0.00    0.11             0.00    0.00             0.00    0.10
     1  MAINSY  ................      0.01    0.14             0.00    1.83             0.01    0.24
     1  SYMFIT  ................      0.00    0.07             0.00    0.00             0.00    0.05
     1  CORORT  ................      0.00    0.00             0.00    0.00             0.00    0.01
     1  SYMORB  ................      0.00    0.05             0.00    0.61             0.00    0.07
     1  CLSMAT  ................      0.01    0.25             0.00    0.00             0.01    0.23
     1  ORTHON  ................      0.01    0.14             0.00    0.61             0.01    0.13
     1  GENPT   ................      0.10    2.33             0.00    1.83             0.11    2.20
     1  PTBAS   ................      0.02    0.52             0.00    0.61             0.02    0.49
    11  FOCKY   ................      0.10   23.89             0.00    8.54             0.10   22.09
    11  FOCKTR  ................      0.00    0.30             0.00    0.61             0.00    0.39
    11  SDIIS   ................      0.00    0.94             0.00    1.83             0.00    0.85
     1  COREPS  ................      0.08    1.85             0.00    0.61             0.08    1.71
     1  TOTEN   ................      0.23    5.32             0.01    3.66             0.24    5.00
     1  POPAN   ................      0.00    0.07             0.00    0.61             0.01    0.17
     1  DEBYE   ................      0.00    0.05             0.00    0.00             0.00    0.03
     1  INPUTE  ................      0.00    0.00             0.00    0.00             0.00    0.03
     1  SYMORE  ................      0.00    0.02             0.00    0.00             0.00    0.02
     1  METS    ................      0.00    0.02             0.00    0.00             0.00    0.02
     1  CETS    ................      0.00    0.09             0.00    1.83             0.02    0.33
     1  POPUL   ................      2.28   52.03             0.09   53.66             2.41   49.88
     1  EXIT PROCEDURE .........      0.03    0.64             0.00    1.22             0.03    0.63


 Currently Open Files (EXIT00)
 ====================

 Unit    Access Format  Status   Type       Ident (file)
 -------------------------------------------------------
   3      SEQ    FORM   TRANSP  NORMAL      LOGFILE
                                          ( logfile )


 Buffered I/O statistics
 =======================
 Memory available:                     67108864
 Number of records fitting in memory:     16131
 Input :   1.6% of                        40462  *4k bytes
 Output:  12.1% of                         3211  *4k bytes
 Records from serial files evicted:           0
                    others evicted:           0
 Hash table lookups:     113546 with          0 conflicts (  0.00%)

 ***************************************************************************************************
 (LOGFILE)
 <May09-2019> <17:23:36>  ADF 2017  RunTime: May09-2019 17:23:36  Nodes: 1  Procs: 12
 <May09-2019> <17:23:36>  *** (NO TITLE) ***
 <May09-2019> <17:23:36>  RunType   : SINGLE POINT
 <May09-2019> <17:23:36>  Net Charge: -1 (Nuclei minus Electrons)
 <May09-2019> <17:23:36>  Symmetry  : NOSYM
 <May09-2019> <17:23:36>  >>>> FRAGM
  Coordinates
    Atom         X           Y           Z   (Angstrom)
    1.F        -3.680414    0.224820   -0.010605
    2.H        -2.860915    0.344970    0.565513
    3.Cl       -1.339166    0.568079    1.635321
 <May09-2019> <17:23:37>  >>>> CORORT
 <May09-2019> <17:23:37>  >>>> CLSMAT
 <May09-2019> <17:23:37>  >>>> ORTHON
 <May09-2019> <17:23:37>  >>>> GENPT
 <May09-2019> <17:23:37>  Block Length= 128
 <May09-2019> <17:23:37>  >>>> PTBAS
 <May09-2019> <17:23:37>  >>>> CYCLE
 <May09-2019> <17:23:37>              |Error|         MaxErr       Wt(A-DIIS)
 <May09-2019> <17:23:37>      1      0.44318278      0.17599305
 <May09-2019> <17:23:37>      2      0.17669416      0.05536568    100.0
 <May09-2019> <17:23:37>      3      0.07649949      0.02278765    100.0
 <May09-2019> <17:23:37>      4      0.15115551      0.04733532    100.0
 <May09-2019> <17:23:37>      5      0.01718741      0.00755186      6.6
 <May09-2019> <17:23:37>      6      0.00746524      0.00216910      1.2
 <May09-2019> <17:23:37>      7      0.00047277      0.00014423      0.0
 <May09-2019> <17:23:38>      8      0.00006633      0.00001495      0.0
 <May09-2019> <17:23:38>      9      0.00003587      0.00001058      0.0
 <May09-2019> <17:23:38>     10      0.00000287      0.00000094      0.0
 <May09-2019> <17:23:38>  SCF converged
 <May09-2019> <17:23:38>     11      0.00000054      0.00000018      0.0
 <May09-2019> <17:23:38>  >>>> TOTEN
 <May09-2019> <17:23:38>  >>>> POPAN
 <May09-2019> <17:23:38>  >>>> DEBYE
 <May09-2019> <17:23:38>  >>>> AMETS
 <May09-2019> <17:23:41>   Bond Energy          -0.04802854 a.u.
 <May09-2019> <17:23:41>   Bond Energy          -1.30692303 eV
 <May09-2019> <17:23:41>   Bond Energy         -30.14       kcal/mol
 <May09-2019> <17:23:41>  >>>> POPUL
 <May09-2019> <17:23:41>  NORMAL TERMINATION
 <May09-2019> <17:23:41>  END
