

 Parallel Execution: Process Information
 ==============================================================================
 Rank   Node Name                              NodeID   MyNodeRank  NodeMaster
    0   BAZIS-cn023                               0          0          0
    1   BAZIS-cn023                               0          1         -1
    2   BAZIS-cn023                               0          2         -1
    3   BAZIS-cn023                               0          3         -1
    4   BAZIS-cn023                               0          4         -1
    5   BAZIS-cn023                               0          5         -1
    6   BAZIS-cn023                               0          6         -1
    7   BAZIS-cn023                               0          7         -1
    8   BAZIS-cn023                               0          8         -1
    9   BAZIS-cn023                               0          9         -1
   10   BAZIS-cn023                               0         10         -1
   11   BAZIS-cn023                               0         11         -1
 ==============================================================================


May use up to 30771MB of RAM as shared memory on node 0


XC
    GGA BP86
END

SCF
    iterations 250
END

EPRINT
    SFO Eig Ovl
END

ZLMFIT
    Quality normal
END

BECKEGRID
    Quality good
End

SYMMETRY nosym
CHARGE -1

ATOMS
1.Cl       -3.938910    0.122429   -0.171821 f=ClH
2.H        -2.751120    0.354958    0.644643 f=ClH
3.Br       -1.190466    0.660481    1.717407 f=Br
END

Fragments
ClH /home/tcst25/advanced_comp_chemistry/exercise2/hydrogen/ClHBr/frag1_ClH.t21
Br /home/tcst25/advanced_comp_chemistry/exercise2/hydrogen/ClHBr/frag2_Br.t21
End
end input

 *******************************************************************************
 *                                                                             *
 *  -------------------------------------                                      *
 *   Amsterdam Density Functional  (ADF)         2017                          *
 *  -------------------------------------                                      *
 *                                               r58813 2017-04-12             *
 *                                                                             *
 *                                                                             *
 *                              =================                              *
 *                              |               |                              *
 *                              |     A D F     |                              *
 *                              |               |                              *
 *                              =================                              *
 *                                                                             *
 *                                                                             *
 *   Online information and documentation:  https://www.scm.com/support/       *
 *   E-mail:  support@scm.com   info@scm.com                                   *
 *                                                                             *
 *   Scientific publications using ADF results must be properly referenced     *
 *   See the User Manuals (or the web site) for recommended citations          *
 *   The terms and conditions of the End User License Agreement apply to       *
 *   the use of ADF, https://www.scm.com/license-terms/                        *
 *                                                                             *
 **********************  x86_64_linux_intel / intelmpi  ************************
 
 Licensed to: VU/FEW (+ SARA) / ALGEMEEN / Amsterdam / THE NETHERLANDS
 SCM User ID: u7668
  
 ADF 2017  RunTime: May09-2019 17:23:36  Nodes: 1  Procs: 12

 Temporary files are created in /local/datastore0/tcst25/189813/kid_0.ooXTEZ


Communication costs MPI_COMM_WORLD:      3.848 usec per message,   0.0181 usec per 8-byte item
Communication costs for intra-node:      3.861 usec per message,   0.0178 usec per 8-byte item

 *** (NO TITLE) ***



 ===========================
 A T T A C H E D   F I L E S
 ===========================
  



 ===============================
 M O D E L   P A R A M E T E R S
 ===============================
  
 DENSITY FUNCTIONAL POTENTIAL (scf)
    LDA:                               VWN                                      
    Gradient Corrections:              Becke88 Perdew86                        == Not Default ==

 SPIN  (restricted / unrestr.)
    Molecule:                          Restricted                               
    Fragments:                         Restricted                               

 OTHER ASPECTS
    Relativistic Corrections:          ---                                      

    Nuclear Charge Density Model:      Point Charge Nuclei                      
    Core Treatment:                    Frozen Orbital(s)                        

    Hyperfine or Zeeman Interaction:   ---                                      


 Fragment File(s)
 ----------------
 ClH:
         file : /home/tcst25/advanced_comp_chemistry/exercise2/hydrogen/ClHBr/frag1_ClH.t21
         jobid: ADF 2017  RunTime: May09-2019 17:12:33  Nodes: 1  Procs: 12
         title: *** (NO TITLE) ***
 Br:
         file : /home/tcst25/advanced_comp_chemistry/exercise2/hydrogen/ClHBr/frag2_Br.t21
         jobid: ADF 2017  RunTime: May09-2019 17:12:32  Nodes: 1  Procs: 12
         title: *** (NO TITLE) ***



                                        ************************************
                                        *  R U N   T Y P E : SINGLE POINT  *
                                        ************************************
  



 ===============
 G E O M E T R Y  ***  Linear Molecule  ***
 ===============
  

 ATOMS
 =====                            X Y Z                    CHARGE
                                (Angstrom)             Nucl     +Core       At.Mass
                       --------------------------    ----------------       -------
    1  Cl             -3.9389    0.1224   -0.1718     17.00     17.00       34.9689
    2  H              -2.7511    0.3550    0.6446      1.00      1.00        1.0078
    3  Br             -1.1905    0.6605    1.7174     35.00     35.00       78.9183


 FRAGMENTS
 =========                                     Atoms in this Fragment     Cart. coord.s (Angstrom)
                                               -------------------------------------------------------
    1  ClH                                               1  Cl          -3.9389    0.1224   -0.1718
                                                         2  H           -2.7511    0.3550    0.6446
    2  Br                                                3  Br          -1.1905    0.6605    1.7174


 Interatomic Distance Matrix (Angstrom)
 --------------------------------------

   1)     0.000
   2)     1.460   0.000
   3)     3.378   1.918   0.000

 Min. Distance =    1.4600
 Max. Distance =    3.3783



 =====================================
 S Y M M E T R Y ,   E L E C T R O N S
 =====================================
  
 Symmetry: NOSYM

 Irreducible Representations, including subspecies
 -------------------------------------------------
 A


 Configuration of Valence Electrons
 ==================================
 ( determined in the SCF procedure )

 Total:   54

 Net Charge: -1 (Nuclei minus Electrons)

 Aufbau principle for MO occupations will be applied through SCF cycle no.     125
 Thereafter, the program will assign electrons to MOs that are spatially
 similar to the occupied MOs in a "reference" cycle ("KeepOrbitals").
 The reference cycle is always the PREVIOUS cycle: it will evolve with
 the SCF procedure.
1
 ***************************************************************************************************



                                      ****************************************
                                      *  B U I L D : (Fragments, Functions)  *
                                      ****************************************
  

 The individual fragments are copies of the corresponding 'Master' fragments defined on the fragment files.
 However, they may have been rotated (and translated) with respect to the Master. The local coordinate axes
 of each fragment (which define for instance the spatial orientation in the current molecule of a fragment
 P:x orbital) are not necessarily those of the molecule.
 The local frame (if different from the molecular one) is printed to enable an interpretation of the expan-
 sion of an MO in Fragment Orbitals.



                                             *************************
                                             *  Fragment Type : ClH  *
                                             *************************
  

 Fragment no.    1   (in the list of all fragments)
 -----------------
 The local coordinate frame is identical to the molecular frame.

 Check Atomic Coordinates:

                  Master (on file)          After Computed Tranformation               As specified on Input
           ----------------------------     ----------------------------     ---------------------------------
     1)    -3.93891   0.12243  -0.17182     -3.93891   0.12243  -0.17182       1  -3.93891   0.12243  -0.17182
     2)    -2.75112   0.35496   0.64464     -2.75112   0.35496   0.64464       2  -2.75112   0.35496   0.64464



                                              ************************
                                              *  Fragment Type : Br  *
                                              ************************
  

 Fragment no.    2   (in the list of all fragments)
 -----------------
 The local coordinate frame is identical to the molecular frame.

 Check Atomic Coordinates:

                  Master (on file)          After Computed Tranformation               As specified on Input
           ----------------------------     ----------------------------     ---------------------------------
     1)    -1.19047   0.66048   1.71741     -1.19047   0.66048   1.71741       3  -1.19047   0.66048   1.71741



 =======
 S F O s  ***  (Symmetrized Fragment Orbitals)  ***
 =======
  
 SFOs are linear combinations of (valence) Fragment Orbitals (FOs), such that the SFOs transform as the
 irreducible representations of the (molecular) symmetry group. Each SFO is therefore characterized by
 an irrep of the molecule and by a few (or only one) generating FOs.
 The SFOs constitute a symmetry-adapted basis for the Fock matrix. The MO eigenvector coefficients in
 this basis provide a direct interpretation of the MOs in terms of Frontier Orbital Theory.

 The SFOs are combined with auxiliary Core Functions (CFs) to ensure orthogonalization on the (frozen)
 Core Orbitals (COs). The Core-orthogonalized SFOs (CSFOs) constitute the true Fock basis.

 The FOs, and hence also the (C)SFOs are combinations of the elementary basis functions (BAS). The basis
 functions that participate in the description of the SFOs depend on the irrep. The indices of the
 involved functions are printed below for each irrep.
 (The complete list of primitive basis functions is printed in another section)

 Total nr. of (C)SFOs (summation over all irreps) :   101

 NOTE: a (C)SFO that is defined as a combination of more than one FO is usually NOT normalized.



                                       === A ===
 Nr. of SFOs :  101
 Cartesian basis functions that participate in this irrep (total number =   113) :
      1     2     3     4    11    12    13     5     8    14
     17    20     6     9    15    18    21     7    10    16
     19    22    23    24    25    26    27    28    29    30
     31    32    33    34    35    36    37    38    39    40
     41    42    43    44    45    46    47    48    49    50
     51    52    53    60    61    86    87    88    54    57
     62    65    89    92    95    55    58    63    66    90
     93    96    56    59    64    67    91    94    97    68
     74    80    98    69    75    81    99    70    76    82
    100    71    77    83   101    72    78    84   102    73
     79    85   103   104   105   106   107   108   109   110
    111   112   113

    SFO  (index         Fragment          Generating    Expansion in Fragment Orbitals
  indx  incl.CFs)   Occup   Orb.Energy   FragmentType  Coeff.   Orbital     on Fragment
 --------------------------------------------------------------------------------------
     1       1      2.000    -100.734 au  ClH           1.00      1 A               1
                        (   -2741.102 eV)
     2       2      2.000      -9.186 au  ClH           1.00      2 A               1
                        (    -249.967 eV)
     3       3      2.000      -7.016 au  ClH           1.00      3 A               1
                        (    -190.905 eV)
     4       4      2.000      -7.004 au  ClH           1.00      4 A               1
                        (    -190.592 eV)
     5       5      2.000      -7.004 au  ClH           1.00      5 A               1
                        (    -190.592 eV)
     6       6      2.000      -0.749 au  ClH           1.00      6 A               1
                        (     -20.373 eV)
     7       7      2.000      -0.408 au  ClH           1.00      7 A               1
                        (     -11.096 eV)
     8       8      2.000      -0.286 au  ClH           1.00      8 A               1
                        (      -7.792 eV)
     9       9      2.000      -0.286 au  ClH           1.00      9 A               1
                        (      -7.792 eV)
    10      10       --        -0.084 au  ClH           1.00     10 A               1
                        (      -2.272 eV)
    11      11       --         0.063 au  ClH           1.00     11 A               1
                        (       1.708 eV)
    12      12       --         0.209 au  ClH           1.00     12 A               1
                        (       5.680 eV)
    13      13       --         0.232 au  ClH           1.00     13 A               1
                        (       6.305 eV)
    14      14       --         0.232 au  ClH           1.00     14 A               1
                        (       6.305 eV)
    15      15       --         0.295 au  ClH           1.00     15 A               1
                        (       8.034 eV)
    16      16       --         0.295 au  ClH           1.00     16 A               1
                        (       8.035 eV)
    17      17       --         0.343 au  ClH           1.00     17 A               1
                        (       9.339 eV)
    18      18       --         0.418 au  ClH           1.00     18 A               1
                        (      11.362 eV)
    19      19       --         0.418 au  ClH           1.00     19 A               1
                        (      11.362 eV)
    20      20       --         0.546 au  ClH           1.00     20 A               1
                        (      14.866 eV)
    21      21       --         0.697 au  ClH           1.00     21 A               1
                        (      18.968 eV)
    22      22       --         0.697 au  ClH           1.00     22 A               1
                        (      18.968 eV)
    23      23       --         1.048 au  ClH           1.00     23 A               1
                        (      28.516 eV)
    24      24       --         1.182 au  ClH           1.00     24 A               1
                        (      32.168 eV)
    25      25       --         1.182 au  ClH           1.00     25 A               1
                        (      32.168 eV)
    26      26       --         1.218 au  ClH           1.00     26 A               1
                        (      33.146 eV)
    27      27       --         1.218 au  ClH           1.00     27 A               1
                        (      33.146 eV)
    28      28       --         1.362 au  ClH           1.00     28 A               1
                        (      37.064 eV)
    29      29       --         1.380 au  ClH           1.00     29 A               1
                        (      37.541 eV)
    30      30       --         1.380 au  ClH           1.00     30 A               1
                        (      37.542 eV)
    31      31       --         2.013 au  ClH           1.00     31 A               1
                        (      54.784 eV)
    32      32       --         2.114 au  ClH           1.00     32 A               1
                        (      57.525 eV)
    33      33       --         2.114 au  ClH           1.00     33 A               1
                        (      57.526 eV)
    34      34       --         2.173 au  ClH           1.00     34 A               1
                        (      59.143 eV)
    35      35       --         2.584 au  ClH           1.00     35 A               1
                        (      70.302 eV)
    36      36       --         2.773 au  ClH           1.00     36 A               1
                        (      75.449 eV)
    37      37       --         2.773 au  ClH           1.00     37 A               1
                        (      75.452 eV)
    38      38       --         3.388 au  ClH           1.00     38 A               1
                        (      92.179 eV)
    39      39       --         3.388 au  ClH           1.00     39 A               1
                        (      92.180 eV)
    40      40       --         4.140 au  ClH           1.00     40 A               1
                        (     112.644 eV)
    41      41       --        13.193 au  ClH           1.00     41 A               1
                        (     358.993 eV)
    42      42       --        18.892 au  ClH           1.00     42 A               1
                        (     514.070 eV)
    43      43       --        18.892 au  ClH           1.00     43 A               1
                        (     514.073 eV)
    44      44       --        19.441 au  ClH           1.00     44 A               1
                        (     529.004 eV)
    45      45       --       216.398 au  ClH           1.00     45 A               1
                        (    5888.492 eV)
    46      46      2.000    -480.688 au  Br            1.00      1 A               2
                        (  -13080.195 eV)
    47      47      2.000     -61.445 au  Br            1.00      2 A               2
                        (   -1672.008 eV)
    48      48      2.000     -55.375 au  Br            1.00      3 A               2
                        (   -1506.824 eV)
    49      49      2.000     -55.375 au  Br            1.00      4 A               2
                        (   -1506.824 eV)
    50      50      2.000     -55.375 au  Br            1.00      5 A               2
                        (   -1506.824 eV)
    51      51      2.000      -8.066 au  Br            1.00      6 A               2
                        (    -219.480 eV)
    52      52      2.000      -5.966 au  Br            1.00      7 A               2
                        (    -162.330 eV)
    53      53      2.000      -5.966 au  Br            1.00      8 A               2
                        (    -162.330 eV)
    54      54      2.000      -5.966 au  Br            1.00      9 A               2
                        (    -162.330 eV)
    55      55      2.000      -2.173 au  Br            1.00     10 A               2
                        (     -59.143 eV)
    56      56      2.000      -2.173 au  Br            1.00     11 A               2
                        (     -59.143 eV)
    57      57      2.000      -2.173 au  Br            1.00     12 A               2
                        (     -59.143 eV)
    58      58      2.000      -2.173 au  Br            1.00     13 A               2
                        (     -59.143 eV)
    59      59      2.000      -2.173 au  Br            1.00     14 A               2
                        (     -59.143 eV)
    60      60      2.000      -0.386 au  Br            1.00     15 A               2
                        (     -10.500 eV)
    61      61      2.000       0.016 au  Br            1.00     16 A               2
                        (       0.447 eV)
    62      62      2.000       0.016 au  Br            1.00     17 A               2
                        (       0.447 eV)
    63      63      2.000       0.016 au  Br            1.00     18 A               2
                        (       0.447 eV)
    64      64       --         0.352 au  Br            1.00     19 A               2
                        (       9.589 eV)
    65      65       --         0.352 au  Br            1.00     20 A               2
                        (       9.589 eV)
    66      66       --         0.352 au  Br            1.00     21 A               2
                        (       9.589 eV)
    67      67       --         0.501 au  Br            1.00     22 A               2
                        (      13.634 eV)
    68      68       --         0.551 au  Br            1.00     23 A               2
                        (      15.005 eV)
    69      69       --         0.551 au  Br            1.00     24 A               2
                        (      15.005 eV)
    70      70       --         0.551 au  Br            1.00     25 A               2
                        (      15.005 eV)
    71      71       --         0.551 au  Br            1.00     26 A               2
                        (      15.005 eV)
    72      72       --         0.551 au  Br            1.00     27 A               2
                        (      15.005 eV)
    73      73       --         1.141 au  Br            1.00     28 A               2
                        (      31.038 eV)
    74      74       --         1.141 au  Br            1.00     29 A               2
                        (      31.038 eV)
    75      75       --         1.141 au  Br            1.00     30 A               2
                        (      31.038 eV)
    76      76       --         1.141 au  Br            1.00     31 A               2
                        (      31.038 eV)
    77      77       --         1.141 au  Br            1.00     32 A               2
                        (      31.038 eV)
    78      78       --         1.141 au  Br            1.00     33 A               2
                        (      31.038 eV)
    79      79       --         1.141 au  Br            1.00     34 A               2
                        (      31.038 eV)
    80      80       --         1.505 au  Br            1.00     35 A               2
                        (      40.949 eV)
    81      81       --         1.505 au  Br            1.00     36 A               2
                        (      40.949 eV)
    82      82       --         1.505 au  Br            1.00     37 A               2
                        (      40.949 eV)
    83      83       --         2.776 au  Br            1.00     38 A               2
                        (      75.551 eV)
    84      84       --         3.002 au  Br            1.00     39 A               2
                        (      81.690 eV)
    85      85       --         3.002 au  Br            1.00     40 A               2
                        (      81.690 eV)
    86      86       --         3.002 au  Br            1.00     41 A               2
                        (      81.690 eV)
    87      87       --         3.002 au  Br            1.00     42 A               2
                        (      81.690 eV)
    88      88       --         3.002 au  Br            1.00     43 A               2
                        (      81.690 eV)
    89      89       --         9.163 au  Br            1.00     44 A               2
                        (     249.341 eV)
    90      90       --         9.163 au  Br            1.00     45 A               2
                        (     249.341 eV)
    91      91       --         9.163 au  Br            1.00     46 A               2
                        (     249.341 eV)
    92      92       --        14.623 au  Br            1.00     47 A               2
                        (     397.911 eV)
    93      93       --        20.941 au  Br            1.00     48 A               2
                        (     569.821 eV)
    94      94       --        20.941 au  Br            1.00     49 A               2
                        (     569.821 eV)
    95      95       --        20.941 au  Br            1.00     50 A               2
                        (     569.821 eV)
    96      96       --        20.941 au  Br            1.00     51 A               2
                        (     569.821 eV)
    97      97       --        20.941 au  Br            1.00     52 A               2
                        (     569.821 eV)
    98      98       --       101.209 au  Br            1.00     53 A               2
                        (    2754.029 eV)
    99      99       --       101.209 au  Br            1.00     54 A               2
                        (    2754.029 eV)
   100     100       --       101.209 au  Br            1.00     55 A               2
                        (    2754.029 eV)
   101     101       --       746.807 au  Br            1.00     56 A               2
                        (   20321.657 eV)



 ================================
 (Slater-type)  F U N C T I O N S  ***  (Basis and Fit)  ***
 ================================
  

 Atom Type    1  (Cl)
 ==============

 Valence Basis Sets:  14
 -----------------------
   1 S   20.300000
   1 S   15.250000
   2 S    6.250000
   2 S    4.450000
   2 P    8.850000
   2 P    5.050000
   3 S    3.450000
   3 S    2.300000
   3 S    1.600000
   3 P    3.350000
   3 P    2.050000
   3 P    1.200000
   3 D    2.000000
   4 F    2.000000

 Atom Type    2  (H)
 ==============

 Valence Basis Sets:   5
 -----------------------
   1 S    0.690000
   1 S    0.920000
   1 S    1.580000
   2 P    1.250000
   3 D    2.500000

 Atom Type    3  (Br)
 ==============

 Valence Basis Sets:  20
 -----------------------
   1 S   41.300000
   1 S   32.800000
   2 S   13.900000
   2 P   19.450000
   2 P   13.100000
   3 S    7.200000
   3 S    4.950000
   3 P    7.900000
   3 P    5.050000
   3 D   10.900000
   3 D    6.050000
   3 D    3.500000
   4 S    4.500000
   4 S    2.800000
   4 S    1.800000
   4 P    3.250000
   4 P    1.950000
   4 P    1.200000
   4 D    1.800000
   4 F    1.800000


 BAS: List of all Elementary Cartesian Basis Functions
 =====================================================

 The numbering in the list below (to the right of the function characteristics) is referred
 to in print-outs of MO eigenvectors and Mulliken populations in the BAS representation
 (as contrasted to the SFO representation).

 Notes:
 1. The functions are characterized by a polynomial prefactor (powers of x,y,z and r) and
    an exponential decay factor alpha.
 2. Since the basis sets are specific for an atom TYPE, the individual functions occur on
    all atoms of that type.
 3. The word 'Core' in the left margin signals that it is a Core Function (CF) : not a
    degree of freedom in the valence set, but only used to ensure orthogonalization of
    the other valence basis functions on the frozen Core Orbitals.


 (power of) X  Y  Z  R     Alpha  on Atom
            ==========     =====     ==========

 Cl                                   1
                                  ---------------------------------------------------------------------------
            0  0  0  0    20.300      1
            0  0  0  0    15.250      2
            0  0  0  1     6.250      3
            0  0  0  1     4.450      4
            1  0  0  0     8.850      5
            0  1  0  0     8.850      6
            0  0  1  0     8.850      7
            1  0  0  0     5.050      8
            0  1  0  0     5.050      9
            0  0  1  0     5.050     10
            0  0  0  2     3.450     11
            0  0  0  2     2.300     12
            0  0  0  2     1.600     13
            1  0  0  1     3.350     14
            0  1  0  1     3.350     15
            0  0  1  1     3.350     16
            1  0  0  1     2.050     17
            0  1  0  1     2.050     18
            0  0  1  1     2.050     19
            1  0  0  1     1.200     20
            0  1  0  1     1.200     21
            0  0  1  1     1.200     22
            2  0  0  0     2.000     23
            1  1  0  0     2.000     24
            1  0  1  0     2.000     25
            0  2  0  0     2.000     26
            0  1  1  0     2.000     27
            0  0  2  0     2.000     28
            3  0  0  0     2.000     29
            2  1  0  0     2.000     30
            2  0  1  0     2.000     31
            1  2  0  0     2.000     32
            1  1  1  0     2.000     33
            1  0  2  0     2.000     34
            0  3  0  0     2.000     35
            0  2  1  0     2.000     36
            0  1  2  0     2.000     37
            0  0  3  0     2.000     38

 H                                    2
                                  ---------------------------------------------------------------------------
            0  0  0  0     0.690     39
            0  0  0  0     0.920     40
            0  0  0  0     1.580     41
            1  0  0  0     1.250     42
            0  1  0  0     1.250     43
            0  0  1  0     1.250     44
            2  0  0  0     2.500     45
            1  1  0  0     2.500     46
            1  0  1  0     2.500     47
            0  2  0  0     2.500     48
            0  1  1  0     2.500     49
            0  0  2  0     2.500     50

 Br                                   3
                                  ---------------------------------------------------------------------------
            0  0  0  0    41.300     51
            0  0  0  0    32.800     52
            0  0  0  1    13.900     53
            1  0  0  0    19.450     54
            0  1  0  0    19.450     55
            0  0  1  0    19.450     56
            1  0  0  0    13.100     57
            0  1  0  0    13.100     58
            0  0  1  0    13.100     59
            0  0  0  2     7.200     60
            0  0  0  2     4.950     61
            1  0  0  1     7.900     62
            0  1  0  1     7.900     63
            0  0  1  1     7.900     64
            1  0  0  1     5.050     65
            0  1  0  1     5.050     66
            0  0  1  1     5.050     67
            2  0  0  0    10.900     68
            1  1  0  0    10.900     69
            1  0  1  0    10.900     70
            0  2  0  0    10.900     71
            0  1  1  0    10.900     72
            0  0  2  0    10.900     73
            2  0  0  0     6.050     74
            1  1  0  0     6.050     75
            1  0  1  0     6.050     76
            0  2  0  0     6.050     77
            0  1  1  0     6.050     78
            0  0  2  0     6.050     79
            2  0  0  0     3.500     80
            1  1  0  0     3.500     81
            1  0  1  0     3.500     82
            0  2  0  0     3.500     83
            0  1  1  0     3.500     84
            0  0  2  0     3.500     85
            0  0  0  3     4.500     86
            0  0  0  3     2.800     87
            0  0  0  3     1.800     88
            1  0  0  2     3.250     89
            0  1  0  2     3.250     90
            0  0  1  2     3.250     91
            1  0  0  2     1.950     92
            0  1  0  2     1.950     93
            0  0  1  2     1.950     94
            1  0  0  2     1.200     95
            0  1  0  2     1.200     96
            0  0  1  2     1.200     97
            2  0  0  1     1.800     98
            1  1  0  1     1.800     99
            1  0  1  1     1.800    100
            0  2  0  1     1.800    101
            0  1  1  1     1.800    102
            0  0  2  1     1.800    103
            3  0  0  0     1.800    104
            2  1  0  0     1.800    105
            2  0  1  0     1.800    106
            1  2  0  0     1.800    107
            1  1  1  0     1.800    108
            1  0  2  0     1.800    109
            0  3  0  0     1.800    110
            0  2  1  0     1.800    111
            0  1  2  0     1.800    112
            0  0  3  0     1.800    113

 Total number of charge fitting functions (nprimf)       326
 Total number of Cartesian basis functions (naos)        113
 Total number of Cartesian core functions  (ncos)          0

1
 ***************************************************************************************************



                                              ***********************
                                              *  T E C H N I C A L  *
                                              ***********************
  



 =============================================================
 P A R A L L E L I Z A T I O N  and  V E C T O R I Z A T I O N
 =============================================================
  
 Nr of parallel processes:                               12
 Maximum vector length in NumInt loops:                 128

 IO buffersize (Mb):                                     64.000000



 =====================
 S C F   U P D A T E S
 =====================
  
 Max. nr. of cycles:                               250
 Convergence criterion:                              0.0000010000
   secondary criterion:                              0.0010000000

 Mix parameter (when DIIS does not apply):           0.2000000000
 Mixed ADIIS+DIIS will be used
    Max number of expansion vectors:                10
    Pure ADIIS when Max([F,P]) is above              0.1000000000
    Pure DIIS when Max([F,P]) is below               0.0010000000
 Automatic ElectronSmearing (in case of problematic SCF convergence) disabled



 =================
 P R E C I S I O N  ***  (General: NumInt, NeglectFunctionTails, ...)  ***
 =================
  

 NumInt:           Target precision:                 6.0000000000
 -------           Initial precision:                6.0000000000
                   Min. precision (optimization):    6.0000000000

 Neglect Functions:          Basis functions:        0.1000000000E-07
 ------------------          Fit functions:          0.1000000000E-07



 ===========================
 L I N E A R   S C A L I N G
 ===========================
  

 Cut-off radii density fit:                        0.1000000000E-09
 Overlap cut-off criterion AO matrix elements:     0.1000000000E-07
 Cut-offs for Coulomb potential and fitted density:0.1000000000E-09
 Cut-off criterion for Coulomb multipole terms:    0.1000000000E-09
 Progressive Convergence parameter:                 0.000000000    
1
 ***************************************************************************************************



                                            ***************************
                                            *  C O M P U T A T I O N  *
                                            ***************************
  

 Number of elements of the density matrix on this node (used, total):      2016      6441



 ===========================================
 Numerical Integration : Fuzzy Cells (Becke)
 ===========================================
  
 Becke grid quality: GOOD           
  
 Lebedev angular grid order:             min:  11 max:  31
 Nr. of radial points:                   min:  54 max:  90

 Total nr. of points:      48350
 Nr. of blocks:              378
 Block length:               128
 Nr. of dummy points:         34


 Test of Precision of the Numerical Integration Grid
 ===================================================

 Integral of the Total Core Density:                   0.00000000000000



 ========================
 Density Fitting (zlmFit)
 ========================
  
 ZlmFit Fit Quality: NORMAL         
  
 Max L-expansion:                        min:   6 max:   7
 Nr. of radial interpolation points:     min:  39 max:  72



 =====
 S C F  ***  ScaSCF  ***
 =====
  
 Initial density matrix is calculated as sum of fragments

 CYCLE    1
 SCF Error: norm([F,P])=      0.726866015079, max([F,P])=      0.374925910124
 orbitals (Q,E):
 ---------------
 A :18...37          ( 2.00    -2.2221)  ( 2.00    -2.2221)  ( 2.00    -0.6008)  ( 2.00    -0.4386)
                     ( 2.00    -0.2487)  ( 2.00    -0.1457)  ( 2.00    -0.1457)  ( 2.00    -0.0490)
                     ( 2.00    -0.0244)  ( 2.00    -0.0244)  ( 0.00     0.1587)  ( 0.00     0.2112)
                     ( 0.00     0.3201)  ( 0.00     0.3211)  ( 0.00     0.3211)  ( 0.00     0.3612)
                     ( 0.00     0.3912)  ( 0.00     0.3912)  ( 0.00     0.4273)  ( 0.00     0.4273)

 CYCLE    2
   MIX coefficients:  0.8000  0.2000
 SCF Error: norm([F,P])=      0.228105441421, max([F,P])=      0.064323043366
 orbitals (Q,E):
 ---------------
 A :18...28          ( 2.00    -2.2384)  ( 2.00    -2.2384)  ( 2.00    -0.5773)  ( 2.00    -0.4509)
                     ( 2.00    -0.2327)  ( 2.00    -0.1238)  ( 2.00    -0.1238)  ( 2.00    -0.0549)
                     ( 2.00    -0.0360)  ( 2.00    -0.0359)  ( 0.00     0.1619)

 CYCLE    3
  SDIIS (wt  0.000): -0.7545  1.7545
 A-DIIS (wt  1.000):  0.0000  1.0000
  DIIS coefficients:  0.0000  1.0000
 SCF Error: norm([F,P])=      0.108803608254, max([F,P])=      0.035126360178
 orbitals (Q,E):
 ---------------
 A :18...28          ( 2.00    -2.2634)  ( 2.00    -2.2634)  ( 2.00    -0.5215)  ( 2.00    -0.4755)
                     ( 2.00    -0.1972)  ( 2.00    -0.0723)  ( 2.00    -0.0723)  ( 2.00    -0.0624)
                     ( 2.00    -0.0583)  ( 2.00    -0.0583)  ( 0.00     0.1696)

 CYCLE    4
  SDIIS (wt  0.000):  0.4573 -0.0096  0.5524
 A-DIIS (wt  1.000):  0.0000  0.6607  0.3393
  DIIS coefficients:  0.0000  0.6607  0.3393
 SCF Error: norm([F,P])=      0.187668130976, max([F,P])=      0.053513081204
 orbitals (Q,E):
 ---------------
 A :18...28          ( 2.00    -2.2402)  ( 2.00    -2.2402)  ( 2.00    -0.5459)  ( 2.00    -0.4604)
                     ( 2.00    -0.2102)  ( 2.00    -0.0933)  ( 2.00    -0.0933)  ( 2.00    -0.0571)
                     ( 2.00    -0.0474)  ( 2.00    -0.0474)  ( 0.00     0.1681)

 CYCLE    5
  SDIIS (wt  0.947): -0.1255  0.4474  0.0324  0.6457
 A-DIIS (wt  0.053):  0.0000  0.0000  0.0000  1.0000
  DIIS coefficients: -0.1189  0.4239  0.0307  0.6643
 SCF Error: norm([F,P])=      0.029903035757, max([F,P])=      0.006210593563
 orbitals (Q,E):
 ---------------
 A :18...28          ( 2.00    -2.2436)  ( 2.00    -2.2436)  ( 2.00    -0.5498)  ( 2.00    -0.4600)
                     ( 2.00    -0.2135)  ( 2.00    -0.0971)  ( 2.00    -0.0971)  ( 2.00    -0.0573)
                     ( 2.00    -0.0466)  ( 2.00    -0.0466)  ( 0.00     0.1673)

 CYCLE    6
  SDIIS (wt  0.995): -0.0538  0.1578 -0.0112  0.2884  0.6189
 A-DIIS (wt  0.005):  0.0000  0.0000  0.0000  0.0000  1.0000
  DIIS coefficients: -0.0535  0.1569 -0.0112  0.2868  0.6209
 SCF Error: norm([F,P])=      0.007108826223, max([F,P])=      0.001537223830
 orbitals (Q,E):
 ---------------
 A :18...28          ( 2.00    -2.2429)  ( 2.00    -2.2429)  ( 2.00    -0.5501)  ( 2.00    -0.4597)
                     ( 2.00    -0.2135)  ( 2.00    -0.0974)  ( 2.00    -0.0974)  ( 2.00    -0.0571)
                     ( 2.00    -0.0463)  ( 2.00    -0.0463)  ( 0.00     0.1674)

 CYCLE    7
  SDIIS (wt  1.000): -0.0051  0.0371  0.0021  0.0984  0.2549  0.6126
  DIIS coefficients: -0.0051  0.0371  0.0021  0.0984  0.2549  0.6126
 SCF Error: norm([F,P])=      0.001473113590, max([F,P])=      0.000381532849
 orbitals (Q,E):
 ---------------
 A :18...28          ( 2.00    -2.2429)  ( 2.00    -2.2429)  ( 2.00    -0.5503)  ( 2.00    -0.4597)
                     ( 2.00    -0.2136)  ( 2.00    -0.0976)  ( 2.00    -0.0976)  ( 2.00    -0.0572)
                     ( 2.00    -0.0463)  ( 2.00    -0.0462)  ( 0.00     0.1674)

 CYCLE    8
  SDIIS (wt  1.000):  0.0006  0.0043  0.0011  0.0157  0.0397  0.2450  0.6937
  DIIS coefficients:  0.0006  0.0043  0.0011  0.0157  0.0397  0.2450  0.6937
 SCF Error: norm([F,P])=      0.000382831569, max([F,P])=      0.000121229470
 orbitals (Q,E):
 ---------------
 A :18...28          ( 2.00    -2.2428)  ( 2.00    -2.2428)  ( 2.00    -0.5502)  ( 2.00    -0.4596)
                     ( 2.00    -0.2136)  ( 2.00    -0.0975)  ( 2.00    -0.0975)  ( 2.00    -0.0571)
                     ( 2.00    -0.0462)  ( 2.00    -0.0462)  ( 0.00     0.1674)

 CYCLE    9
  SDIIS (wt  1.000): -0.0007  0.0025 -0.0001  0.0056  0.0162  0.1013  0.3180  0.5572
  DIIS coefficients: -0.0007  0.0025 -0.0001  0.0056  0.0162  0.1013  0.3180  0.5572
 SCF Error: norm([F,P])=      0.000118430753, max([F,P])=      0.000027731961
 orbitals (Q,E):
 ---------------
 A :18...28          ( 2.00    -2.2429)  ( 2.00    -2.2429)  ( 2.00    -0.5502)  ( 2.00    -0.4596)
                     ( 2.00    -0.2136)  ( 2.00    -0.0975)  ( 2.00    -0.0975)  ( 2.00    -0.0571)
                     ( 2.00    -0.0462)  ( 2.00    -0.0462)  ( 0.00     0.1674)

 CYCLE   10
  SDIIS (wt  1.000): -0.0001  0.0003 -0.0000  0.0006  0.0015  0.0153  0.0568  0.1222  0.8035
  DIIS coefficients: -0.0001  0.0003 -0.0000  0.0006  0.0015  0.0153  0.0568  0.1222  0.8035
 SCF Error: norm([F,P])=      0.000013278434, max([F,P])=      0.000002241122
 orbitals (Q,E):
 ---------------
 A :18...28          ( 2.00    -2.2429)  ( 2.00    -2.2429)  ( 2.00    -0.5502)  ( 2.00    -0.4596)
                     ( 2.00    -0.2136)  ( 2.00    -0.0975)  ( 2.00    -0.0975)  ( 2.00    -0.0571)
                     ( 2.00    -0.0462)  ( 2.00    -0.0462)  ( 0.00     0.1674)

 CYCLE   11
  SDIIS (wt  1.000): -0.0000 -0.0000 -0.0000  0.0000 -0.0001  0.0018  0.0113  0.0326  0.3267  0.6277
  DIIS coefficients: -0.0000 -0.0000 -0.0000  0.0000 -0.0001  0.0018  0.0113  0.0326  0.3267  0.6277
 SCF Error: norm([F,P])=      0.000006511361, max([F,P])=      0.000001630696
 orbitals (Q,E):
 ---------------
 A :18...28          ( 2.00    -2.2429)  ( 2.00    -2.2429)  ( 2.00    -0.5502)  ( 2.00    -0.4596)
                     ( 2.00    -0.2136)  ( 2.00    -0.0975)  ( 2.00    -0.0975)  ( 2.00    -0.0571)
                     ( 2.00    -0.0462)  ( 2.00    -0.0462)  ( 0.00     0.1674)

 CYCLE   12
  SDIIS (wt  1.000): -0.0000 -0.0000  0.0000  0.0000  0.0001  0.0016  0.0057  0.0513  0.1108  0.8304
  DIIS coefficients: -0.0000 -0.0000  0.0000  0.0000  0.0001  0.0016  0.0057  0.0513  0.1108  0.8304
 SCF Error: norm([F,P])=      0.000000461941, max([F,P])=      0.000000141318
 orbitals (Q,E):
 ---------------
 A :18...28          ( 2.00    -2.2429)  ( 2.00    -2.2429)  ( 2.00    -0.5502)  ( 2.00    -0.4596)
                     ( 2.00    -0.2136)  ( 2.00    -0.0975)  ( 2.00    -0.0975)  ( 2.00    -0.0571)
                     ( 2.00    -0.0462)  ( 2.00    -0.0462)  ( 0.00     0.1674)

 SCF CONVERGED

 CYCLE   13
1
 ***************************************************************************************************



                                                *******************
                                                *  R E S U L T S  *
                                                *******************
  
 *** Setting up for NEW gradients in Focky
 *** Using FIT density in Focky

 Orbital Energies, per Irrep and Spin:
 ======================================
                        Occup              E (au)              E (eV)       Diff (eV) with prev. cycle
                        -----      --------------------        ------       --------------------------
 A
              18        2.000     -0.22428634411363E+01       -61.031               3.52E-07
              19        2.000     -0.22428602896209E+01       -61.031               3.52E-07
              20        2.000     -0.55023710622914E+00       -14.973               2.74E-07
              21        2.000     -0.45961901612974E+00       -12.507               3.15E-07
              22        2.000     -0.21360331946042E+00        -5.812               3.94E-07
              23        2.000     -0.97533653652256E-01        -2.654               2.04E-07
              24        2.000     -0.97526234868834E-01        -2.654               2.04E-07
              25        2.000     -0.57142405120250E-01        -1.555               3.02E-07
              26        2.000     -0.46222562590501E-01        -1.258               2.45E-07
              27        2.000     -0.46211200747179E-01        -1.257               2.45E-07
              28        0.000      0.16739475183516E+00         4.555
              29        0.000      0.22341613731541E+00         6.079
              30        0.000      0.31165981305347E+00         8.481
              31        0.000      0.31520242171468E+00         8.577
              32        0.000      0.31520385617080E+00         8.577
              33        0.000      0.38862980520121E+00        10.575
              34        0.000      0.40292056876615E+00        10.964
              35        0.000      0.40293224376571E+00        10.964
              36        0.000      0.44532401535740E+00        12.118
              37        0.000      0.44533687880566E+00        12.118
  
 HOMO :       27 A                -0.46211200747179E-01
 LUMO :       28 A                 0.16739475183516E+00
  


 All Electron Calculation, thus no Orbital Energies of the Core Orbitals are calculated


 Fit test: (difference of exact and fit density, squared integrated, result summed over spins)
         Sum-of-Fragments:                             0.00085482670386
         Orthogonalized Fragments:                     0.00086652679449
         SCF:                                          0.00086727369102



 ==========================
 Electron Density at Nuclei
 ==========================
  
 The electron density is calculated at points on a small sphere around the center of a nucleus.
 The printed electron density is the average electron density on these points.
 The radius of the sphere is the printed approximate finite nuclear radius.

         Atom        Nuclear Radius (Angstrom)             Electron Density (a.u.)
         ----        -------------------------             -----------------------
     1)   Cl                0.0000426624                             3210.24745
     2)   H                 0.0000181514                                0.33805
     3)   Br                0.0000536685                            29312.60115



 =======================================
 M U L L I K E N   P O P U L A T I O N S
 =======================================
  
 The survey below gives for each atom:
 a) the total charge (Z minus electrons)
 b) the net spin polarization (nr of electrons spin-A minus spin-B)
 c) for each spin the atomic electron valence density (integrated) per L-value.

 Atom              Charge    Spin density          S         P         D         F
 ----              ------    ------------       ------    ------    ------    ------
 1 Cl             -0.4184                       5.9254   11.4649    0.0241    0.0041
 2 H               0.1410                       0.7038    0.1493    0.0059    0.0000
 3 Br             -0.7225                       7.9803   17.7226   10.0160    0.0037

 Populations of individual BAS functions
 ----------------------------------------
 1 Cl           0.5055  1.4530  1.7102  0.2604  0.7250  0.7282  0.7268  1.2738  1.2695  1.2715
                0.5857  1.0363  0.3743  0.2587  0.2998  0.2813  1.0016  1.0848  1.0472  0.4083
                0.5838  0.5045  0.0129  0.0016  0.0141 -0.0051  0.0008 -0.0002  0.0077  0.0055
                0.0095 -0.0075  0.0004  0.0008 -0.0064 -0.0045  0.0012 -0.0027
 2 H           -0.2733  0.7367  0.2404  0.0711  0.0297  0.0484  0.0052  0.0011  0.0020 -0.0033
                0.0005  0.0004
 3 Br           0.3611  1.5681  2.0732  0.7130  0.7131  0.7131  1.2651  1.2648  1.2649  1.4361
                0.5990  1.1354  1.1380  1.1368  0.8925  0.8900  0.8912  0.2677  0.4014  0.4015
                0.2676  0.4015  0.2676  0.7758  1.1648  1.1646  0.7773  1.1650  0.7766  0.2903
                0.4336  0.4340  0.2879  0.4334  0.2890  0.2636  1.1908  0.4882  0.5712  0.6095
                0.5922  0.9166  0.9645  0.9429  0.3323  0.4040  0.3716  0.0081  0.0014  0.0091
               -0.0028  0.0007  0.0001  0.0058  0.0042  0.0072 -0.0054  0.0004  0.0005 -0.0048
               -0.0033  0.0009 -0.0018

 Gross Charges per Atom (Z minus electrons)
 ==========================================
            -0.4184    0.1410   -0.7225
 Net Total: -1.00000000


 Atom-Atom Population Matrix (off-diagonal elements not doubled)
 ===============================================================

     1 :    17.2500
     2 :     0.2727    0.4044
     3 :    -0.1042    0.1820   35.6448


 Frag-Frag Population Matrix (off-diagonal elements not doubled)
 ===============================================================

     1 :    18.1997
     2 :     0.0778   35.6448



 =================================================
 H I R S H F E L D   C H A R G E   A N A L Y S I S
 =================================================
  
 For each fragment: the (numerical) integral of rho(scf) * rho(fragment)/rho(sum-of-fragments)
 (nuclear charges are included, electrons are counted negative)

 The fragments and their ordering are defined in the early G E O M E T R Y output section.
 If you use single-atom fragments, this usually implies that all atoms of the same
 chemical type are grouped together. This may not be the order in which you listed them
 in the input file!

    1  ClH                      -0.1914
    2  Br                       -0.8086

 Sum of these charges (accuracy NumInt/Tails) =          -1.00000100



 =============================
 V O R O N O I   C H A R G E S
 =============================
  
 For each atom: the (numerical) integral of the total electronic charge density in its Voronoi cell,
 i.e. the region of space that is closer to that atom than to any other atom.
 (cf. Wigner-Seitz cells in crystals)

 Within the Voronoi cell the subintegrals over the atomic sphere and the remaining part are evaluated
 separately to give the numbers of electrons (negative charge) in these regions.
 The net total charge in the cell (including the nuclear charge) is also given.

 Values are provided for
    a) the Initial (sum-of-fragments) density
    b) the Orthogonalized-Fragments density
    c) the SCF density
    d) the Voronoi Deformation Density (VDD): the difference SCF-Initial for the complete atomic cell
 ---------------------------------------------------------------------------------------------------
 Total NetCharge:              -1.000                     -1.000                     -1.000    0.000
 (accuracy NumInt/Tails)

 Remark: the 'NetTotal' Voronoi charges often do not match the Mulliken and/or Hirshfeld charges very
 well. This is caused by the fact that chemically different atoms are not treated in accordance with
 their relative sizes. (Voronoi cells are defined by boundary planes halfway between the atoms.)
 However, the CHANGES in charge, comparing 'Initial' to 'SCF' for instance, do give a fair indication
 of the flow of charge caused by the relaxation from sum-of-fragments to self-consistency.

 Warning: the absolute accuracy of the VDD charges obtained using the Fuzzy Cells (Becke) integration
 scheme is much poorer than the one obtained with an 'equivalent' Voronoi integration grid. 



 =================================================================
 M U L T I P O L E   D E R I V E D   C H A R G E   A N A L Y S I S
 =================================================================

 This charge analysis uses the atomic multipoles (obtained from the fitted density) up to some level X,
 and reconstructs these multipoles exactly (up to level X) by distributing charges over all atoms.
 This is achieved by using Lagrange multipliers and a weight function to keep the multipoles local.

 Dummy atoms can be included (by setting INCDUM in MDC-block to 1) to obtain a fractional charge.
 This is generally useful and necessary only for small symmetrical molecules, when there are not
 enough degrees of freedom to reconstruct the multipoles.

 Since the atomic multipoles are reconstructed up to level X,
 the molecular multipoles are represented also up to level X.
 The recommended level is to reconstruct up to quadrupole : -> MDC-q charges.

 See: M. Swart, P.Th. van Duijnen, J.G. Snijders, J.Comput.Chem., (2001), p. 79-88.

 ------------------------------------------------------------- 
 Atomic electronic multipole moments from SCF equations (a.u.)
 ------------------------------------------------------------- 

   atom        charge        dip-x     dip-y     dip-z      quad-xx   quad-xy   quad-xz   quad-yy   quad-yz   quad-zz
 --------------------------------------------------------------------------------------------------------------------
    1 Cl    -0.153484     0.592757  0.116036  0.407464     0.935470  0.245903  0.863624 -0.876899  0.169080 -0.058571
    2 H     -0.430888    -0.069770 -0.013697 -0.047986     0.144039  0.037586  0.133097 -0.134628  0.025966 -0.009411
    3 Br    -0.415629    -0.678967 -0.132907 -0.466689     1.132206  0.297725  1.045129 -1.061302  0.204574 -0.070904

 --------------------------------------- 
 Multipole derived atomic charges (a.u.)
 --------------------------------------- 

 The MDC-m charges are just the Monopole terms in the multipole expansion, while for the MDC-d charges
 also the Dipoles are reconstructed. The usually preferred charges are the MDC-q charges.
 These reconstruct the Monopoles, Dipoles and Quadrupoles (both atomic AND molecular).

        Atom    Level:     MDC-m        MDC-d        MDC-q
 ---------------------------------------------------------
     1     Cl          -0.153484    -0.365643    -0.570330
     2     H           -0.430888    -0.004367     0.356103
     3     Br          -0.415629    -0.629990    -0.785773

 ------------------------------------------------ 
 Average absolute deviations in atomic multipoles
 ------------------------------------------------ 

 Stated here are the average differences between the atomic multipoles
 and the reconstructed atomic multipoles (from the distributed charges).
 If these values are not zero, this means there are not enough degrees of freedom,
 to be able to reconstruct the atomic multipoles. (This usually happens only
 for small and/or highly symmetric molecules). If this is the case, one could add
 dummy atoms as extra point charges (and setting INCDUM in MDC-block to 1).

 Level:                                 MDC-d        MDC-q
 ---------------------------------------------------------
 Charge   (a.u.)                       0.0000       0.0000
 Dipole   (Debye)                      0.0000       0.0000
 Quad.    (a.u.)                       0.3920       0.1646

 --------------------------------------- 
 Represented molecular multipole moments
 --------------------------------------- 

 Given here are the Molecular multipole moments from the atomic charges, and from the Fit Density.
 Note that the atomic charges represent the latter, NOT the ones from the Exact density.

            Q (a.u.)             Dipole moment (Debye)                                          Quadrupole moment (a.u.)
                                 x         y         z              xx        xy        xz        yy        yz        zz
------------------------------------------------------------------------------------------------------------------------
MDC-m        -1.0000       10.9742   -2.1434   -4.6361        -19.3119    4.4009    8.0888   12.7938   -3.0362    6.5181
MDC-d        -1.0000       10.5778   -2.2211   -4.9086        -19.7231    3.6207    5.6153   14.1198   -3.7920    5.6033
MDC-q        -1.0000       10.5778   -2.2211   -4.9086        -21.4999    2.9200    3.1550   15.7852   -4.2737    5.7147
 
Fit.Dens.    -1.0000       10.5778   -2.2211   -4.9086        -20.2906    3.1062    3.8088   14.6519   -4.1458    5.6387



 =============
 Dipole Moment  ***  (Debye)  ***
 =============
  
 Vector   :        10.56930871     -2.22263243     -4.91438544
 Magnitude:        11.86598355

 This molecular dipole moment is calculated with analytic integration
 ************************************************************************************
 Since the molecule is NOT NEUTRAL, the dipole moment depends on the choice of origin
 ************************************************************************************



 =========================================
 Quadrupole Moment (Buckingham convention)  ***  (a.u.)  ***
 =========================================
  
      quad-xx        quad-xy        quad-xz        quad-yy        quad-yz        quad-zz
    -20.26399354     3.39404958     4.82555375    14.64675785    -3.95226865     5.61723569

 This molecular quadrupole moment is calculated with analytic integration
1



                                             *************************
                                             *  SFO MO coefficients  *
                                             *************************
  


                                       === A ===
 MOs expanded in CFs+SFOs
 ========================

 The SFOs have been characterized in an earlier part of output.
 To deduce the bonding / antibonding nature of SFO combinations in an MO, consider the products
 of the coefficients AND THE OVERLAP between the SFOs (may be NEGATIVE). The SFO overlap matrix
 is printed later, in the SFO Populations section.

 (The CF coefficients are not printed)

 MOs :      1        2        3        4        5        6        7        8        9       10
 occup:   2.00     2.00     2.00     2.00     2.00     2.00     2.00     2.00     2.00     2.00
 CF+SFO
     1  -0.0000   1.0000   0.0000  -0.0000   0.0000  -0.0000   0.0001  -0.0000   0.0000  -0.0000
     2  -0.0000  -0.0001   0.0000  -0.0000   0.0000  -0.0000   1.0000  -0.0002   0.0026  -0.0000
     3  -0.0000  -0.0000   0.0000  -0.0000   0.0000  -0.0000  -0.0026  -0.0001   1.0000   0.0001
     4  -0.0000  -0.0000   0.0000  -0.0000   0.0000   0.0000  -0.0000  -0.0000   0.0001  -0.9997
     5   0.0000  -0.0000  -0.0000   0.0000   0.0000  -0.0000  -0.0000   0.0000  -0.0000  -0.0250
     6   0.0000  -0.0000  -0.0000   0.0000  -0.0000   0.0000   0.0002   0.0029   0.0001  -0.0000
     7   0.0000   0.0000   0.0000   0.0000  -0.0000   0.0000  -0.0008   0.0046   0.0003  -0.0000
     8   0.0000   0.0000   0.0000   0.0000   0.0000   0.0000  -0.0000   0.0000  -0.0000   0.0001
     9  -0.0000   0.0000  -0.0000  -0.0000   0.0000  -0.0000   0.0000  -0.0000  -0.0000  -0.0000
    10  -0.0000  -0.0001  -0.0000  -0.0000   0.0000  -0.0000   0.0014  -0.0073  -0.0002   0.0000
    11   0.0000   0.0000  -0.0000   0.0000  -0.0000   0.0000  -0.0008   0.0043   0.0002  -0.0000
    12  -0.0000  -0.0000  -0.0000  -0.0000   0.0000  -0.0000   0.0003  -0.0021   0.0000   0.0000
    13   0.0000  -0.0000   0.0000  -0.0000  -0.0000   0.0000  -0.0000   0.0000  -0.0000  -0.0000
    14  -0.0000  -0.0000  -0.0000  -0.0000   0.0000   0.0000   0.0000  -0.0000  -0.0000  -0.0000
    15  -0.0000  -0.0000   0.0000  -0.0000   0.0000   0.0000  -0.0000  -0.0000   0.0000  -0.0001
    16  -0.0000  -0.0000   0.0000   0.0000   0.0000  -0.0000   0.0000  -0.0000   0.0000   0.0000
    17   0.0000   0.0000  -0.0000   0.0000   0.0000   0.0000  -0.0002   0.0010   0.0001  -0.0000
    18  -0.0000  -0.0000  -0.0000  -0.0000  -0.0000  -0.0000  -0.0000  -0.0000   0.0000   0.0000
    19  -0.0000  -0.0000   0.0000   0.0000  -0.0000  -0.0000   0.0000  -0.0000   0.0000   0.0000
    20   0.0000   0.0000   0.0000   0.0000  -0.0000   0.0000  -0.0005   0.0009  -0.0000  -0.0000
    21  -0.0000  -0.0000  -0.0000  -0.0000   0.0000   0.0000   0.0000  -0.0000  -0.0000   0.0000
    22  -0.0000   0.0000   0.0000  -0.0000  -0.0000   0.0000   0.0000  -0.0000   0.0000   0.0000
    23   0.0000   0.0000   0.0000   0.0000  -0.0000   0.0000  -0.0003   0.0011   0.0001  -0.0000
    24  -0.0000  -0.0000  -0.0000  -0.0000   0.0000   0.0000   0.0000  -0.0000  -0.0000  -0.0000
    25   0.0000   0.0000   0.0000   0.0000   0.0000   0.0000  -0.0000   0.0000  -0.0000   0.0000
    26  -0.0000  -0.0000  -0.0000  -0.0000  -0.0000   0.0000   0.0000  -0.0000  -0.0000   0.0000
    27   0.0000   0.0000   0.0000   0.0000   0.0000  -0.0000  -0.0000   0.0000  -0.0000  -0.0000
    28   0.0000  -0.0000  -0.0000  -0.0000   0.0000  -0.0000   0.0001  -0.0001  -0.0003   0.0000
    29   0.0000   0.0000   0.0000   0.0000  -0.0000  -0.0000  -0.0000   0.0000  -0.0000   0.0001
    30   0.0000   0.0000   0.0000   0.0000  -0.0000   0.0000  -0.0000   0.0000   0.0000  -0.0000
    31  -0.0000  -0.0000   0.0000   0.0000   0.0000  -0.0000  -0.0000  -0.0011  -0.0000   0.0000
    32   0.0000   0.0000  -0.0000   0.0000   0.0000   0.0000   0.0000   0.0000  -0.0000   0.0003
    33   0.0000   0.0000  -0.0000  -0.0000   0.0000  -0.0000  -0.0000   0.0000  -0.0000  -0.0001
    34   0.0000   0.0000  -0.0000  -0.0000  -0.0000  -0.0000  -0.0008   0.0006   0.0002  -0.0000
    35  -0.0000   0.0000   0.0000   0.0000  -0.0000   0.0000  -0.0004  -0.0000  -0.0004  -0.0000
    36  -0.0000  -0.0000  -0.0000  -0.0000  -0.0000  -0.0000   0.0000  -0.0000   0.0000  -0.0000
    37  -0.0000  -0.0000   0.0000   0.0000   0.0000   0.0000   0.0000  -0.0000  -0.0000   0.0000
    38   0.0000   0.0000  -0.0000  -0.0000   0.0000   0.0000  -0.0000   0.0000  -0.0000   0.0000
    39  -0.0000   0.0000   0.0000   0.0000  -0.0000   0.0000   0.0000  -0.0000   0.0000   0.0000
    40   0.0000   0.0000  -0.0000  -0.0000   0.0000  -0.0000   0.0000   0.0001  -0.0000  -0.0000
    41   0.0000  -0.0001  -0.0000   0.0000  -0.0000   0.0000   0.0002   0.0001   0.0000  -0.0000
    42  -0.0000  -0.0000   0.0000  -0.0000  -0.0000   0.0000   0.0000   0.0000  -0.0000   0.0000
    43  -0.0000  -0.0000   0.0000  -0.0000   0.0000   0.0000   0.0000  -0.0000   0.0000  -0.0006
    44  -0.0000  -0.0000   0.0000   0.0000   0.0000   0.0000   0.0001  -0.0000  -0.0005   0.0000
    45  -0.0000  -0.0001   0.0000  -0.0000   0.0000  -0.0000  -0.0000  -0.0000   0.0000  -0.0000
    46   1.0000  -0.0000  -0.0000  -0.0000  -0.0000   0.0000   0.0000  -0.0000  -0.0000   0.0000
    47   0.0000   0.0000   1.0000   0.0002   0.0000  -0.0000  -0.0001   0.0002   0.0000  -0.0000
    48   0.0000  -0.0000  -0.0001   0.6682   0.6191   0.4126   0.0000  -0.0000  -0.0000  -0.0000
    49  -0.0000   0.0000   0.0001  -0.5593   0.0523   0.8273  -0.0000   0.0000   0.0000  -0.0000
    50  -0.0000   0.0000   0.0001  -0.4906   0.7836  -0.3811  -0.0000   0.0000   0.0000   0.0000
    51   0.0000  -0.0000   0.0001  -0.0000  -0.0000  -0.0000   0.0004   0.9989  -0.0000   0.0000
    52  -0.0000  -0.0000  -0.0000   0.0000   0.0000   0.0000   0.0001   0.0005  -0.0000  -0.0000
    53   0.0000   0.0000   0.0000  -0.0000  -0.0000   0.0000  -0.0000  -0.0000   0.0000   0.0000
    54  -0.0000  -0.0000  -0.0000   0.0000  -0.0000  -0.0000   0.0001   0.0005  -0.0000   0.0000
    55  -0.0000  -0.0000  -0.0000   0.0000   0.0000   0.0000   0.0000   0.0001   0.0000  -0.0000
    56   0.0000   0.0000   0.0000  -0.0000  -0.0000   0.0000  -0.0000  -0.0002  -0.0000  -0.0000
    57  -0.0000  -0.0000  -0.0000   0.0000  -0.0000   0.0000   0.0000   0.0001   0.0000  -0.0000
    58   0.0000   0.0000   0.0000  -0.0000   0.0000   0.0000  -0.0000  -0.0000  -0.0000  -0.0000
    59  -0.0000  -0.0000  -0.0000   0.0000  -0.0000  -0.0000   0.0000   0.0001   0.0000   0.0000
    60   0.0000   0.0001   0.0000   0.0000  -0.0000   0.0000  -0.0015   0.0056   0.0002  -0.0000
    61  -0.0000  -0.0000  -0.0000  -0.0000   0.0000   0.0000   0.0004  -0.0023  -0.0001   0.0001
    62   0.0000   0.0000   0.0000   0.0000   0.0000   0.0000  -0.0006   0.0033   0.0001   0.0000
    63   0.0000   0.0000   0.0000   0.0000  -0.0000   0.0000  -0.0004   0.0025   0.0001   0.0000
    64  -0.0000  -0.0000   0.0000  -0.0000   0.0000  -0.0000   0.0001  -0.0032  -0.0001  -0.0001
    65  -0.0000  -0.0000   0.0000  -0.0000   0.0000  -0.0000   0.0000  -0.0005  -0.0000  -0.0000
    66   0.0000   0.0000  -0.0000   0.0000  -0.0000  -0.0000  -0.0001   0.0019   0.0001  -0.0001
    67  -0.0000  -0.0000   0.0000  -0.0000   0.0000  -0.0000   0.0011  -0.0050  -0.0002   0.0000
    68   0.0000   0.0000   0.0000   0.0000   0.0000   0.0000  -0.0000   0.0004   0.0000   0.0000
    69   0.0000   0.0000   0.0000   0.0000  -0.0000   0.0000  -0.0001   0.0010   0.0000   0.0000
    70   0.0000   0.0000   0.0000   0.0000   0.0000  -0.0000  -0.0000   0.0001   0.0000  -0.0001
    71   0.0000   0.0000   0.0000   0.0000  -0.0000  -0.0000  -0.0000   0.0004   0.0000  -0.0000
    72   0.0000   0.0000   0.0000   0.0000   0.0000  -0.0000  -0.0001   0.0018   0.0000  -0.0000
    73   0.0000   0.0000   0.0000   0.0000  -0.0000   0.0000  -0.0000   0.0004  -0.0000  -0.0000
    74  -0.0000  -0.0000  -0.0000  -0.0000  -0.0000   0.0000   0.0000  -0.0003   0.0000  -0.0000
    75  -0.0000  -0.0000  -0.0000  -0.0000   0.0000   0.0000   0.0000  -0.0002   0.0000  -0.0000
    76   0.0000   0.0000   0.0000   0.0000  -0.0000   0.0000  -0.0000   0.0004  -0.0000  -0.0000
    77   0.0000   0.0000   0.0000   0.0000   0.0000   0.0000  -0.0000   0.0001  -0.0000  -0.0000
    78   0.0000   0.0000   0.0000   0.0000   0.0000  -0.0000  -0.0000   0.0000  -0.0000   0.0000
    79  -0.0000  -0.0000  -0.0000  -0.0000  -0.0000   0.0000   0.0000  -0.0001   0.0000  -0.0000
    80  -0.0000  -0.0000  -0.0000  -0.0000  -0.0000   0.0000   0.0002  -0.0005  -0.0000  -0.0000
    81   0.0000   0.0000   0.0000   0.0000  -0.0000  -0.0000  -0.0001   0.0002   0.0000   0.0000
    82  -0.0000  -0.0000  -0.0000  -0.0000  -0.0000  -0.0000   0.0002  -0.0006  -0.0000   0.0000
    83   0.0000   0.0000   0.0000  -0.0000  -0.0000  -0.0000  -0.0000   0.0011   0.0000  -0.0000
    84   0.0000   0.0000   0.0000  -0.0000  -0.0000   0.0000  -0.0000   0.0002   0.0000  -0.0000
    85   0.0000   0.0000   0.0000  -0.0000  -0.0000   0.0000  -0.0000   0.0004   0.0000  -0.0000
    86   0.0000   0.0000   0.0000  -0.0000  -0.0000  -0.0000  -0.0000   0.0001   0.0000   0.0000
    87  -0.0000  -0.0000  -0.0000   0.0000  -0.0000   0.0000   0.0000  -0.0004  -0.0000  -0.0000
    88  -0.0000  -0.0000  -0.0000   0.0000  -0.0000  -0.0000   0.0000  -0.0003  -0.0000   0.0000
    89  -0.0000   0.0000   0.0000  -0.0000   0.0000   0.0000  -0.0000   0.0000   0.0000   0.0000
    90  -0.0000   0.0000   0.0000  -0.0000  -0.0000   0.0000  -0.0000   0.0000   0.0000  -0.0000
    91  -0.0000   0.0000   0.0000  -0.0000   0.0000  -0.0000  -0.0000   0.0000   0.0000  -0.0000
    92   0.0000  -0.0000   0.0001   0.0000   0.0000  -0.0000   0.0000  -0.0003  -0.0000   0.0000
    93  -0.0000   0.0000   0.0000  -0.0000  -0.0000   0.0000  -0.0000  -0.0000  -0.0000   0.0000
    94   0.0000  -0.0000  -0.0000   0.0000   0.0000  -0.0000   0.0000   0.0000   0.0000  -0.0000
    95   0.0000  -0.0000  -0.0000   0.0000   0.0000   0.0000   0.0000   0.0000   0.0000   0.0000
    96  -0.0000   0.0000   0.0000  -0.0000   0.0000  -0.0000  -0.0000  -0.0000  -0.0000  -0.0000
    97  -0.0000   0.0000   0.0000  -0.0000   0.0000   0.0000  -0.0000  -0.0000  -0.0000   0.0000
    98   0.0000   0.0000   0.0000  -0.0000  -0.0000   0.0001  -0.0000   0.0000   0.0000   0.0000
    99  -0.0000  -0.0000  -0.0000   0.0001  -0.0000   0.0000   0.0000  -0.0000  -0.0000   0.0000
   100  -0.0000  -0.0000  -0.0000   0.0000   0.0001   0.0000   0.0000  -0.0000  -0.0000   0.0000
   101  -0.0001  -0.0000  -0.0000   0.0000  -0.0000   0.0000   0.0000  -0.0000  -0.0000   0.0000

 MOs :     11       12       13       14       15       16       17       18       19       20
 occup:   2.00     2.00     2.00     2.00     2.00     2.00     2.00     2.00     2.00     2.00
 CF+SFO
     1   0.0000  -0.0000   0.0000  -0.0000   0.0000  -0.0000  -0.0000  -0.0000   0.0000  -0.0000
     2   0.0000  -0.0000   0.0000  -0.0000   0.0000  -0.0000  -0.0000  -0.0000   0.0000   0.0002
     3   0.0000   0.0000  -0.0000  -0.0000   0.0000  -0.0000  -0.0000  -0.0000   0.0000  -0.0002
     4  -0.0250  -0.0000  -0.0000  -0.0000  -0.0000  -0.0000   0.0000   0.0000   0.0000  -0.0000
     5   0.9997  -0.0000  -0.0000   0.0000  -0.0000  -0.0000  -0.0000  -0.0000  -0.0000   0.0000
     6  -0.0000  -0.0001   0.0000   0.0000  -0.0004   0.0000  -0.0000   0.0000  -0.0000  -0.9877
     7  -0.0000  -0.0005   0.0000   0.0000  -0.0009   0.0000  -0.0000   0.0000   0.0000   0.0187
     8  -0.0000  -0.0000  -0.0000   0.0000   0.0000   0.0000  -0.0000  -0.0000   0.0000  -0.0000
     9  -0.0001   0.0000   0.0000   0.0000   0.0000   0.0000   0.0000  -0.0000   0.0000   0.0000
    10   0.0000   0.0008  -0.0000  -0.0000   0.0013  -0.0000   0.0000  -0.0000  -0.0000  -0.0017
    11  -0.0000   0.0001  -0.0000   0.0000  -0.0000   0.0000   0.0000   0.0000  -0.0000  -0.0014
    12   0.0000   0.0003  -0.0000  -0.0000   0.0004  -0.0000   0.0000  -0.0000  -0.0000  -0.0067
    13  -0.0000   0.0000  -0.0000   0.0000  -0.0000   0.0001   0.0000  -0.0000   0.0000  -0.0000
    14   0.0000   0.0000   0.0000   0.0000  -0.0000  -0.0000   0.0001   0.0000  -0.0000  -0.0000
    15   0.0000  -0.0000  -0.0001   0.0000  -0.0000  -0.0000   0.0001   0.0000  -0.0000   0.0000
    16   0.0001  -0.0000   0.0000   0.0001  -0.0000  -0.0001  -0.0000  -0.0000  -0.0000  -0.0000
    17  -0.0000  -0.0001   0.0000   0.0000   0.0001  -0.0000   0.0000   0.0000  -0.0000   0.0099
    18  -0.0000   0.0000   0.0000   0.0000   0.0000   0.0000  -0.0000  -0.0000   0.0000   0.0000
    19  -0.0000  -0.0000  -0.0000  -0.0000  -0.0000  -0.0000  -0.0000  -0.0000  -0.0000   0.0000
    20  -0.0000  -0.0005   0.0000   0.0000  -0.0006  -0.0000  -0.0000   0.0000   0.0000   0.0004
    21  -0.0000  -0.0000  -0.0001   0.0000  -0.0000  -0.0001   0.0002   0.0000  -0.0000   0.0000
    22   0.0000  -0.0000  -0.0000  -0.0001  -0.0000   0.0002   0.0001   0.0000   0.0000   0.0000
    23  -0.0000  -0.0003   0.0000   0.0000  -0.0003   0.0000  -0.0000   0.0000   0.0000   0.0013
    24   0.0000   0.0000   0.0000  -0.0000  -0.0000  -0.0000   0.0000   0.0000  -0.0000  -0.0000
    25  -0.0000  -0.0000   0.0000  -0.0000   0.0000   0.0000   0.0000   0.0000   0.0000   0.0000
    26   0.0000   0.0000   0.0000   0.0000   0.0000  -0.0000  -0.0000   0.0000  -0.0000   0.0000
    27  -0.0000  -0.0000   0.0000  -0.0000  -0.0000   0.0000  -0.0000  -0.0000  -0.0000   0.0000
    28   0.0000   0.0001  -0.0000  -0.0000   0.0002   0.0000   0.0000  -0.0000  -0.0000  -0.0006
    29  -0.0000  -0.0000  -0.0000  -0.0000  -0.0000  -0.0000   0.0001   0.0000  -0.0000  -0.0000
    30  -0.0001  -0.0000  -0.0000   0.0000  -0.0000  -0.0001  -0.0000  -0.0000  -0.0000   0.0000
    31  -0.0000   0.0001  -0.0000  -0.0000  -0.0001  -0.0000  -0.0000  -0.0000  -0.0000  -0.0017
    32  -0.0001  -0.0000  -0.0000  -0.0000   0.0000   0.0000  -0.0000  -0.0000   0.0000  -0.0000
    33  -0.0003  -0.0000  -0.0000   0.0000   0.0000   0.0000   0.0000   0.0000   0.0000  -0.0000
    34   0.0000  -0.0000   0.0000   0.0000   0.0001   0.0000   0.0000   0.0000  -0.0000  -0.0025
    35  -0.0000  -0.0000   0.0000   0.0000  -0.0001  -0.0000  -0.0000   0.0000   0.0000  -0.0009
    36   0.0000   0.0000  -0.0000   0.0000   0.0000   0.0000  -0.0000  -0.0000   0.0000   0.0000
    37   0.0000   0.0000   0.0000   0.0000  -0.0000   0.0000  -0.0000   0.0000   0.0000   0.0000
    38  -0.0000   0.0000   0.0000  -0.0000   0.0000   0.0001  -0.0000  -0.0000   0.0000  -0.0000
    39   0.0000   0.0000   0.0000   0.0000   0.0000  -0.0000  -0.0001  -0.0000  -0.0000  -0.0000
    40  -0.0000  -0.0000  -0.0000  -0.0000   0.0001   0.0000   0.0000  -0.0000  -0.0000  -0.0002
    41   0.0000  -0.0000   0.0000   0.0000   0.0000   0.0000   0.0000   0.0000  -0.0000   0.0002
    42  -0.0006   0.0000  -0.0000   0.0000  -0.0000   0.0000   0.0000  -0.0000  -0.0000   0.0000
    43  -0.0000   0.0000   0.0000   0.0000  -0.0000  -0.0000   0.0000   0.0000   0.0000  -0.0000
    44   0.0000   0.0000  -0.0000  -0.0000  -0.0000  -0.0000  -0.0000  -0.0000   0.0000   0.0000
    45  -0.0000   0.0000  -0.0000  -0.0000   0.0000  -0.0000  -0.0000  -0.0000   0.0000  -0.0000
    46   0.0000   0.0000  -0.0000  -0.0000   0.0000  -0.0000   0.0000  -0.0000   0.0000   0.0000
    47  -0.0000  -0.0000   0.0000  -0.0000  -0.0000   0.0000  -0.0000   0.0000  -0.0000  -0.0000
    48   0.0000  -0.0000   0.0000  -0.0000   0.0000  -0.0000   0.0000   0.0000   0.0000   0.0000
    49  -0.0000   0.0000   0.0000   0.0000  -0.0000  -0.0000   0.0000   0.0000  -0.0000  -0.0000
    50   0.0000   0.0000  -0.0000  -0.0000  -0.0000  -0.0000  -0.0000   0.0000   0.0000  -0.0000
    51   0.0000  -0.0010  -0.0000  -0.0000   0.0005   0.0000   0.0000  -0.0000   0.0000   0.0004
    52  -0.0000   0.7031  -0.6849  -0.1913   0.0004  -0.0000   0.0003  -0.0000  -0.0000   0.0007
    53  -0.0000  -0.0116   0.2580  -0.9661  -0.0000   0.0005   0.0000   0.0000  -0.0000  -0.0000
    54   0.0000   0.7110   0.6815   0.1734   0.0004   0.0000  -0.0003   0.0000   0.0000   0.0007
    55   0.0000   0.0002  -0.0002   0.0000  -0.3208   0.1817  -0.4480   0.4332   0.6897   0.0006
    56  -0.0000  -0.0004  -0.0001  -0.0001   0.7903  -0.2269  -0.3137  -0.2681   0.3920  -0.0014
    57  -0.0000   0.0002  -0.0002  -0.0002  -0.4643  -0.3366  -0.5483  -0.5992  -0.1071   0.0008
    58   0.0000  -0.0000  -0.0002   0.0004   0.0696   0.8916  -0.1368  -0.4253  -0.0244  -0.0001
    59  -0.0000   0.0001   0.0003   0.0001  -0.2281  -0.0847   0.6177  -0.4480   0.5988   0.0004
    60  -0.0000  -0.0006   0.0000   0.0000   0.0001   0.0000   0.0000  -0.0000   0.0000   0.1052
    61   0.0000   0.0002  -0.0003  -0.0001   0.0002  -0.0000   0.0001  -0.0000  -0.0000  -0.0125
    62  -0.0001  -0.0003  -0.0002   0.0001  -0.0003  -0.0001   0.0000   0.0000   0.0000   0.0179
    63   0.0001  -0.0002  -0.0000  -0.0003  -0.0002   0.0001   0.0000   0.0000  -0.0000   0.0132
    64  -0.0000   0.0002  -0.0001  -0.0000   0.0004   0.0000   0.0001  -0.0000  -0.0000   0.0029
    65   0.0001   0.0000  -0.0001   0.0002   0.0001  -0.0001  -0.0000  -0.0000   0.0000   0.0004
    66  -0.0000  -0.0001  -0.0002  -0.0000  -0.0002  -0.0000   0.0001   0.0000  -0.0000  -0.0018
    67   0.0000   0.0004  -0.0000  -0.0000   0.0007  -0.0000   0.0000  -0.0000   0.0000  -0.0033
    68  -0.0001  -0.0001   0.0000  -0.0000  -0.0001   0.0002  -0.0001  -0.0001  -0.0002   0.0017
    69   0.0001  -0.0002   0.0000   0.0000  -0.0002  -0.0001  -0.0001  -0.0002  -0.0000   0.0040
    70  -0.0000  -0.0000  -0.0000  -0.0000  -0.0000   0.0000   0.0002  -0.0001   0.0000   0.0003
    71   0.0000  -0.0001  -0.0000   0.0000  -0.0001  -0.0001   0.0001   0.0001  -0.0003   0.0015
    72  -0.0000  -0.0004  -0.0000  -0.0000  -0.0004   0.0000   0.0000   0.0001   0.0001   0.0073
    73  -0.0000  -0.0002   0.0000  -0.0000   0.0001  -0.0001  -0.0000   0.0000   0.0000   0.0018
    74  -0.0000   0.0001  -0.0000  -0.0001  -0.0000  -0.0001  -0.0000  -0.0000   0.0000  -0.0013
    75   0.0000   0.0001  -0.0000   0.0000  -0.0000   0.0001  -0.0000  -0.0000   0.0001  -0.0007
    76   0.0000  -0.0002  -0.0000   0.0000   0.0001   0.0000  -0.0000  -0.0001   0.0000   0.0017
    77   0.0000  -0.0001  -0.0001  -0.0000   0.0000   0.0000  -0.0001   0.0000  -0.0000   0.0005
    78   0.0000  -0.0000   0.0000   0.0000   0.0000   0.0000   0.0000  -0.0001  -0.0001   0.0001
    79  -0.0000   0.0001  -0.0000  -0.0000  -0.0000  -0.0000  -0.0000  -0.0001   0.0000  -0.0006
    80  -0.0000   0.0004  -0.0003  -0.0002   0.0002   0.0000   0.0001   0.0000  -0.0000  -0.0008
    81  -0.0000  -0.0001   0.0002  -0.0004  -0.0001   0.0001  -0.0000   0.0000  -0.0000   0.0003
    82  -0.0000   0.0005   0.0003   0.0001   0.0002   0.0000  -0.0001   0.0000  -0.0000  -0.0010
    83  -0.0000  -0.0000  -0.0000   0.0000   0.0001   0.0000   0.0000   0.0000   0.0000  -0.0007
    84  -0.0000  -0.0000   0.0000   0.0000   0.0001  -0.0001  -0.0002   0.0003  -0.0004  -0.0001
    85  -0.0000  -0.0000   0.0000   0.0000   0.0002  -0.0002  -0.0002  -0.0002   0.0003  -0.0002
    86  -0.0000  -0.0000  -0.0000   0.0000   0.0000  -0.0002   0.0002   0.0004   0.0002  -0.0000
    87  -0.0000   0.0000   0.0000   0.0000  -0.0002  -0.0000  -0.0003   0.0002   0.0003   0.0002
    88  -0.0000   0.0000  -0.0000   0.0000  -0.0001  -0.0003   0.0000  -0.0003  -0.0002   0.0001
    89  -0.0000  -0.0001  -0.0001   0.0000   0.0000   0.0000  -0.0000  -0.0000   0.0000  -0.0000
    90   0.0000  -0.0001   0.0000  -0.0001   0.0000  -0.0000  -0.0000   0.0000   0.0000  -0.0000
    91  -0.0000  -0.0001   0.0000   0.0001   0.0000   0.0000   0.0000  -0.0000  -0.0000  -0.0000
    92   0.0000  -0.0000  -0.0000  -0.0000   0.0000  -0.0000  -0.0000  -0.0000   0.0000   0.0000
    93   0.0000   0.0000   0.0000   0.0000  -0.0002   0.0001   0.0002   0.0001  -0.0003   0.0000
    94  -0.0000  -0.0000  -0.0000  -0.0000   0.0000  -0.0002  -0.0003   0.0001  -0.0002  -0.0000
    95  -0.0000  -0.0000   0.0000  -0.0000   0.0002  -0.0002   0.0002  -0.0001  -0.0001  -0.0000
    96  -0.0000   0.0000  -0.0000  -0.0000  -0.0002  -0.0001  -0.0000  -0.0003   0.0000   0.0000
    97  -0.0000   0.0000   0.0000  -0.0000  -0.0001  -0.0003   0.0001   0.0002   0.0001   0.0000
    98   0.0000   0.0001   0.0001   0.0000  -0.0000  -0.0000  -0.0000  -0.0000  -0.0000   0.0000
    99   0.0000  -0.0001   0.0000   0.0001   0.0000  -0.0000  -0.0000   0.0000  -0.0000  -0.0000
   100  -0.0000  -0.0001   0.0001  -0.0001   0.0000   0.0000  -0.0000  -0.0000  -0.0000  -0.0000
   101   0.0000   0.0000  -0.0000  -0.0000   0.0000  -0.0000  -0.0000  -0.0000   0.0000   0.0000

 MOs :     21       22       23       24       25       26       27       28       29       30
 occup:   2.00     2.00     2.00     2.00     2.00     2.00     2.00     0.00     0.00     0.00
 CF+SFO
     1   0.0001  -0.0002  -0.0000  -0.0000  -0.0008   0.0000  -0.0000   0.0028  -0.0006  -0.0056
     2   0.0008  -0.0015  -0.0000  -0.0000  -0.0073   0.0000  -0.0000   0.0231  -0.0050  -0.0468
     3   0.0004  -0.0004  -0.0000  -0.0000  -0.0026  -0.0000  -0.0000   0.0072  -0.0019  -0.0130
     4   0.0000   0.0000  -0.0000  -0.0000  -0.0000  -0.0000  -0.0006   0.0000   0.0000  -0.0000
     5  -0.0000   0.0000  -0.0000   0.0000   0.0000  -0.0006   0.0000  -0.0000   0.0000  -0.0000
     6  -0.1320   0.0054   0.0000   0.0000   0.1167  -0.0000   0.0000  -0.2251   0.0530   0.3290
     7   0.0863  -0.9163   0.0000   0.0000   0.4086  -0.0000   0.0000  -0.4007   0.0736   0.2804
     8   0.0000  -0.0000  -0.9836  -0.1128   0.0000  -0.0673  -0.1248  -0.0000   0.0000  -0.0001
     9  -0.0000   0.0000  -0.1128   0.9836  -0.0001  -0.1249   0.0673   0.0000   0.0000  -0.0002
    10  -0.0324  -0.0233   0.0000   0.0000   0.2409   0.0000   0.0000   1.3068   0.1025  -0.1819
    11  -0.0169   0.0123  -0.0000   0.0000   0.1166  -0.0000   0.0000  -0.6384   0.9831   0.2007
    12  -0.0050   0.0142   0.0000  -0.0000  -0.0106   0.0000  -0.0000  -0.0832  -0.0696  -0.3693
    13   0.0000  -0.0000  -0.0110   0.0199  -0.0000   0.0038  -0.0004  -0.0000   0.0000   0.0005
    14  -0.0000   0.0000   0.0199   0.0110   0.0000  -0.0004  -0.0038   0.0000   0.0000  -0.0001
    15  -0.0000   0.0000  -0.0133  -0.0040   0.0000  -0.0060  -0.0185   0.0000  -0.0000  -0.0000
    16   0.0000  -0.0000  -0.0040   0.0133  -0.0000  -0.0185   0.0060   0.0000  -0.0000  -0.0001
    17  -0.0021   0.0010   0.0000  -0.0000   0.0104  -0.0000  -0.0000  -0.0672   0.0510   0.0198
    18  -0.0000   0.0000  -0.0000  -0.0000   0.0000   0.0000   0.0000  -0.0000  -0.0000  -0.0000
    19   0.0000   0.0000   0.0000  -0.0000  -0.0000  -0.0000  -0.0000   0.0000  -0.0000   0.0000
[...]
   93   -8.59834500293289E-16 -9.98326716509972E-16 -9.05995890094517E-16  1.81984254476533E-16
   94    3.77846942788939E-17 -7.88881814149699E-17  1.59219111608815E-16 -3.19657367499345E-17
   95   -4.01370598697839E-16  5.14310970873466E-16 -1.94688815625617E-16  9.20732178881599E-16
   96    6.72333553318514E-16  9.03077011249557E-16  3.34914656822423E-16 -1.46215816663050E-15
   97    2.42361457788534E-16  8.84577341842935E-16 -4.97201299076900E-16 -1.10879153894430E-16
   98    5.29593999575665E-16  1.27526887091505E-16 -4.22748390106280E-16  6.43945118359833E-17
   99    2.79165588594660E-16  4.34651069134665E-18 -1.78470298590179E-16  4.29206854201694E-16
  100   -1.86463172795712E-16 -8.49632615446516E-16  9.20763072423116E-16 -1.26137243432033E-15
  101   -8.67903839074646E-17  8.30905439938578E-16 -8.16946336967828E-17  1.06224707849267E-15

 column          89                    90                    91                    92
 row
   89    1.00000000000000E+00
   90    1.24981410230914E-15  9.99999999999999E-01
   91   -6.11034409237347E-16  7.41570694789015E-17  1.00000000000000E+00
   92   -1.18632840554036E-16  1.15210820829684E-15  7.47837895536217E-15  1.00000000000001E+00
   93    2.27064436499093E-16  5.22892605769234E-16 -8.32630475475221E-17  9.38807643600324E-17
   94   -1.58116269851804E-16  3.48641604109635E-16  1.49548934985632E-15 -8.97239723729095E-15
   95   -1.70971482820912E-17 -1.74317673244151E-16  1.87798334948601E-16 -5.55680983150929E-16
   96    3.91433575428844E-16 -6.37310663317292E-16  6.85922913172898E-17  3.51321287964045E-16
   97    3.33467360411335E-16 -4.45881553073149E-16  3.40372288624929E-16  1.66524162801133E-17
   98    3.55327164190217E-15  8.21569493251959E-16 -8.02824530879310E-16  8.84218620081050E-17
   99   -6.97572059689174E-16  1.27524740144225E-15 -2.33234661734565E-15 -1.70417351219841E-16
  100    9.27231545403942E-16 -1.81284369681063E-15 -1.66557511414709E-16 -1.43886916118186E-16
  101   -7.60974399813263E-17  1.89599854913403E-16  4.11590249729810E-16  7.89743704460166E-15

 column          93                    94                    95                    96
 row
   93    1.00000000000000E+00
   94    4.96029642820562E-17  9.99999999999999E-01
   95   -4.75485551448672E-16  5.42223047199833E-16  1.00000000000000E+00
   96   -8.34997466032931E-16 -8.13130627248376E-17 -1.13650050127805E-16  9.99999999999998E-01
   97    3.31480080496372E-16  9.55454860223107E-18 -5.64179195227560E-16 -1.51786974041546E-16
   98   -3.21344705933931E-16 -8.81339846519402E-16 -8.54613721733020E-16 -7.02307013568995E-16
   99   -2.70549215421887E-16 -6.16068048006796E-16  9.70287358387234E-17 -1.26081241815638E-15
  100    7.10831680535977E-16  2.31534779488560E-16  8.76865393062676E-16  1.61753691440171E-16
  101    2.47442040815504E-16  2.44384251875916E-16 -7.22837588396086E-16 -7.71951946809679E-17

 column          97                    98                    99                   100
 row
   97    1.00000000000000E+00
   98    8.28241155705633E-16  1.00000000000000E+00
   99    4.49727173643551E-16 -6.85062920786987E-16  1.00000000000001E+00
  100    1.97565638126693E-16  1.05014565360569E-16 -1.04059250500665E-15  1.00000000000001E+00
  101    1.68783173201681E-16  5.47860910284081E-16 -5.27843827674568E-16 -4.91597593795662E-16

 column         101
 row
  101    9.99999999999993E-01


 SFO contributions (%) per orbital
 (multiplication by the orbital occupation yields the SFO Gross Populations)

 Orb.:       18     19     20     21     22     23     24     25     26     27     28     29     30     31
 occup:     2.00   2.00   2.00   2.00   2.00   2.00   2.00   2.00   2.00   2.00   0.00   0.00   0.00   0.00
 CF+SFO     ----   ----   ----   ----   ----   ----   ----   ----   ----   ----   ----   ----   ----   ----
 ------
      6:    0.00   0.00  98.24   1.31  -0.01   0.00   0.00   0.27  -0.00   0.00  -0.00  -0.03  -0.06   0.00
      7:    0.00  -0.00  -0.00   1.70  87.08   0.00   0.00   9.36  -0.00   0.00   1.86  -0.17  -1.02  -0.00
      8:    0.00   0.00   0.00   0.00   0.00  97.16   1.28   0.00   0.33   1.13   0.00  -0.00   0.00   0.05
      9:   -0.00   0.00   0.00   0.00   0.00   1.28  97.16   0.00   1.13   0.33   0.00  -0.00   0.00   0.01
     10:    0.00  -0.00  -0.01   1.25   0.00   0.00   0.00  12.75   0.00   0.00  85.04   2.72  -3.05  -0.00
     11:   -0.00  -0.00   0.00  -0.44   0.09   0.00   0.00   1.26   0.00   0.00  16.46  88.04  -1.77   0.00
     12:    0.00  -0.00  -0.00   0.05   0.05   0.00  -0.00  -0.11   0.00  -0.00   2.34   0.20  10.15   0.00
     14:    0.00   0.00  -0.00   0.00   0.00   0.06   0.02   0.00   0.00   0.05  -0.00   0.00   0.00   8.47
     55:   18.76  47.57   0.00   0.00   0.00   0.00   0.00   0.00   0.00   0.00   0.00   0.00   0.00  -0.00
     56:    7.19  15.36   0.00   0.00   0.00   0.00   0.00   0.00   0.00   0.00   0.00   0.00   0.00  -0.00
     57:   35.90   1.15   0.00   0.00   0.00   0.00   0.00   0.00   0.00   0.00   0.00   0.00   0.00  -0.00
     58:   18.08   0.06   0.00   0.00   0.00   0.00   0.00   0.00   0.00   0.00   0.00   0.00   0.00  -0.00
     59:   20.07  35.86   0.00   0.00   0.00   0.00   0.00   0.00   0.00   0.00   0.00   0.00   0.00  -0.00
     60:    0.00   0.00   1.39  95.94   1.67   0.00   0.00   0.05  -0.00   0.00   1.12  -0.72   0.02  -0.00
     61:   -0.00   0.00   0.08   0.01   2.59   0.73   0.40  18.10   0.06  74.47   2.02   0.68   0.16   0.02
     62:   -0.00   0.00   0.17   0.03   5.33   0.66   0.09  37.27  33.37  16.40   4.15   1.39   0.32   0.01
     63:    0.00   0.00   0.09   0.02   2.92   0.09   0.99  20.41  64.49   7.05   2.28   0.76   0.18   0.00
     64:    0.00   0.00  -0.06   0.01  -0.34  -0.01  -0.01   0.47   0.00   0.04  -2.69  -0.81  67.27  23.43
     65:    0.00   0.00  -0.00   0.00  -0.01  -0.02  -0.03   0.01   0.16   0.00  -0.06  -0.02   1.50   0.70
     66:   -0.00   0.00  -0.02   0.00  -0.13  -0.02  -0.01   0.17   0.00   0.12  -0.99  -0.30  24.79  66.90
     67:    0.00   0.00   0.03  -0.00   0.02  -0.00   0.00   0.04  -0.00   0.00 -10.55  -1.97   0.90  -0.00
     69:    0.00   0.00   0.02   0.00   0.14   0.00   0.01  -0.00   0.00   0.00   0.10   1.98  -0.02   0.01
     72:    0.00   0.00   0.07   0.01   0.46   0.00   0.00  -0.01   0.00   0.00   0.32   6.66  -0.06   0.00


 Summation over all MOs, multiplied by occupation: Total SFO Gross Populations in this Irrep
 ===========================================================================================

     2.00    2.00    2.00    2.00    2.00    2.00    1.96    2.00    2.00    0.28    0.02   -0.00
     0.00    0.00    0.01    0.01    0.00    0.00    0.00    0.01    0.00    0.00   -0.01    0.00
     0.00   -0.00    0.00    0.00    0.00    0.00   -0.00    0.00    0.00    0.00   -0.00    0.00
     0.00    0.00    0.00   -0.00    0.00   -0.00   -0.00    0.00    0.00    2.00    2.00    2.00
     2.00    2.00    2.00    2.00    2.00    2.00    2.00    2.00    2.00    2.00    2.00    1.98
     1.93    1.87    1.92    0.00    0.00    0.00    0.00    0.00    0.00    0.00    0.00    0.01
     0.00    0.00    0.00    0.00    0.00    0.00    0.00   -0.00    0.00   -0.00   -0.00   -0.00
    -0.00   -0.00   -0.00   -0.00   -0.00   -0.00   -0.00    0.00   -0.00    0.00   -0.00   -0.00
    -0.00    0.00    0.00    0.00   -0.00



 List of all MOs, ordered by energy, with the most significant SFO gross populations
 ===================================================================================

 Each percentage contribution in the table below corresponds to the indicated SFO.
 In general, a SFO may be a linear combination of several Fragment Orbitals on the same,
 or on symmetry-related Fragments. Only the first 'member' of such a combination is
 specified here. A full definition of all SFOs is given in an earlier part of the output.
 The numbering of the SFOs in this table does NOT include the Core Orbitals, and starts
 from one for each symmetry representation, as in the SFO definition list earlier.

       E(eV)  Occ       MO           %     SFO (first member)   E(eV)  Occ   Fragment
 -------------------------------------------------------------------------------------

     -14.973  2.00    20 A         98.24%     6 A             -20.373  2.00     1 ClH
                                    1.39%    15 A             -10.500  2.00     2 Br
     -12.507  2.00    21 A         95.94%    15 A             -10.500  2.00     2 Br
                                    1.70%     7 A             -11.096  2.00     1 ClH
                                    1.31%     6 A             -20.373  2.00     1 ClH
                                    1.25%    10 A              -2.272  0.00     1 ClH
      -5.812  2.00    22 A         87.08%     7 A             -11.096  2.00     1 ClH
                                    5.33%    17 A               0.447  2.00     2 Br
                                    2.92%    18 A               0.447  2.00     2 Br
                                    2.59%    16 A               0.447  2.00     2 Br
                                    1.67%    15 A             -10.500  2.00     2 Br
      -2.654  2.00    23 A         97.16%     8 A              -7.792  2.00     1 ClH
                                    1.28%     9 A              -7.792  2.00     1 ClH
      -2.654  2.00    24 A         97.16%     9 A              -7.792  2.00     1 ClH
                                    1.28%     8 A              -7.792  2.00     1 ClH
      -1.555  2.00    25 A         37.27%    17 A               0.447  2.00     2 Br
                                   20.41%    18 A               0.447  2.00     2 Br
                                   18.10%    16 A               0.447  2.00     2 Br
                                   12.75%    10 A              -2.272  0.00     1 ClH
                                    9.36%     7 A             -11.096  2.00     1 ClH
                                    1.26%    11 A               1.708  0.00     1 ClH
      -1.258  2.00    26 A         64.49%    18 A               0.447  2.00     2 Br
                                   33.37%    17 A               0.447  2.00     2 Br
                                    1.13%     9 A              -7.792  2.00     1 ClH
      -1.257  2.00    27 A         74.47%    16 A               0.447  2.00     2 Br
                                   16.40%    17 A               0.447  2.00     2 Br
                                    7.05%    18 A               0.447  2.00     2 Br
                                    1.13%     8 A              -7.792  2.00     1 ClH
       4.555  0.00    28 A         85.04%    10 A              -2.272  0.00     1 ClH
                                   16.46%    11 A               1.708  0.00     1 ClH
                                  -10.55%    22 A              13.634  0.00     2 Br
                                    4.15%    17 A               0.447  2.00     2 Br
                                   -2.69%    19 A               9.589  0.00     2 Br
                                    2.34%    12 A               5.680  0.00     1 ClH
                                    2.28%    18 A               0.447  2.00     2 Br
                                    2.02%    16 A               0.447  2.00     2 Br
                                    1.86%     7 A             -11.096  2.00     1 ClH
                                    1.12%    15 A             -10.500  2.00     2 Br
       6.079  0.00    29 A         88.04%    11 A               1.708  0.00     1 ClH
                                    6.66%    27 A              15.005  0.00     2 Br
                                    2.72%    10 A              -2.272  0.00     1 ClH
                                    1.98%    24 A              15.005  0.00     2 Br
                                   -1.97%    22 A              13.634  0.00     2 Br
                                    1.39%    17 A               0.447  2.00     2 Br
       8.481  0.00    30 A         67.27%    19 A               9.589  0.00     2 Br
                                   24.79%    21 A               9.589  0.00     2 Br
                                   10.15%    12 A               5.680  0.00     1 ClH
                                   -3.05%    10 A              -2.272  0.00     1 ClH
                                   -1.77%    11 A               1.708  0.00     1 ClH
                                    1.50%    20 A               9.589  0.00     2 Br
                                   -1.02%     7 A             -11.096  2.00     1 ClH
       8.577  0.00    31 A         66.90%    21 A               9.589  0.00     2 Br
                                   23.43%    19 A               9.589  0.00     2 Br
                                    8.47%    14 A               6.305  0.00     1 ClH
       8.577  0.00    32 A         88.87%    20 A               9.589  0.00     2 Br
                                    8.46%    13 A               6.305  0.00     1 ClH
                                    2.15%    19 A               9.589  0.00     2 Br



 =======================================================================
 Electrostatic potential at the Nuclei due to electrons and other nuclei
 =======================================================================
  
         Atom                  Potential
         ----                  ---------
     1)   Cl                 64.63123149
     2)   H                   1.14858018
     3)   Br                176.19641841
 
 
 ========================
 No memory problems found
 ========================
 
 Maximum number of active allocate calls:         606
 
 *******************************************************************************

                             A D F   E X I T
 NORMAL TERMINATION



 =================
 Timing Statistics
 =================
  
 Total Used :                     CPU=        5.33      System=        0.18     Elapsed=        5.79

 Calls  Section                     ( Mean, Percentage )
 ---------------------------------------------------------------------------------------------------
     3  ><      ................      0.00    0.00             0.00    0.56             0.00    0.02
     1  INIT    ................      0.46    8.57             0.03   15.56             0.49    8.48
     1  GEOMET  ................      0.03    0.54             0.01    5.00             0.25    4.25
     1  FRAGM   ................      0.01    0.24             0.01    3.33             0.03    0.55
     1  INPUTA  ................      0.00    0.00             0.00    0.00             0.00    0.01
     1  ATDEN   ................      0.00    0.09             0.00    0.00             0.00    0.08
     1  MAINSY  ................      0.01    0.13             0.01    3.33             0.02    0.30
     1  SYMFIT  ................      0.00    0.06             0.00    0.00             0.00    0.04
     1  CORORT  ................      0.00    0.00             0.00    0.00             0.00    0.01
     1  SYMORB  ................      0.00    0.06             0.00    0.56             0.00    0.06
     1  CLSMAT  ................      0.01    0.13             0.00    0.00             0.01    0.13
     1  ORTHON  ................      0.01    0.17             0.00    0.00             0.01    0.16
     1  GENPT   ................      0.12    2.23             0.00    1.67             0.12    2.12
     1  PTBAS   ................      0.03    0.56             0.00    1.11             0.03    0.55
    13  FOCKY   ................      0.11   27.20             0.00    9.44             0.11   25.40
    13  FOCKTR  ................      0.00    0.38             0.00    0.00             0.00    0.43
    13  SDIIS   ................      0.00    0.86             0.00    2.22             0.00    0.84
     1  COREPS  ................      0.09    1.78             0.00    0.00             0.10    1.66
     1  TOTEN   ................      0.28    5.33             0.01    3.89             0.29    5.04
     1  POPAN   ................      0.00    0.08             0.00    0.00             0.01    0.14
     1  DEBYE   ................      0.00    0.09             0.00    0.00             0.00    0.08
     1  INPUTE  ................      0.00    0.00             0.00    0.00             0.00    0.02
     1  SYMORE  ................      0.00    0.02             0.00    0.00             0.00    0.02
     1  METS    ................      0.00    0.02             0.00    0.00             0.00    0.01
     1  CETS    ................      0.01    0.15             0.00    1.67             0.02    0.40
     1  POPUL   ................      2.71   50.81             0.09   49.44             2.82   48.65
     1  EXIT PROCEDURE .........      0.03    0.49             0.00    2.22             0.03    0.53


 Currently Open Files (EXIT00)
 ====================

 Unit    Access Format  Status   Type       Ident (file)
 -------------------------------------------------------
   3      SEQ    FORM   TRANSP  NORMAL      LOGFILE
                                          ( logfile )


 Buffered I/O statistics
 =======================
 Memory available:                     67108864
 Number of records fitting in memory:     16131
 Input :   1.3% of                        47135  *4k bytes
 Output:  13.2% of                         3708  *4k bytes
 Records from serial files evicted:           0
                    others evicted:           0
 Hash table lookups:     133341 with          0 conflicts (  0.00%)

 ***************************************************************************************************
 (LOGFILE)
 <May09-2019> <17:23:36>  ADF 2017  RunTime: May09-2019 17:23:36  Nodes: 1  Procs: 12
 <May09-2019> <17:23:36>  *** (NO TITLE) ***
 <May09-2019> <17:23:36>  RunType   : SINGLE POINT
 <May09-2019> <17:23:36>  Net Charge: -1 (Nuclei minus Electrons)
 <May09-2019> <17:23:36>  Symmetry  : NOSYM
 <May09-2019> <17:23:36>  >>>> FRAGM
  Coordinates
    Atom         X           Y           Z   (Angstrom)
    1.Cl       -3.938910    0.122429   -0.171821
    2.H        -2.751120    0.354958    0.644643
    3.Br       -1.190466    0.660481    1.717407
 <May09-2019> <17:23:36>  >>>> CORORT
 <May09-2019> <17:23:36>  >>>> CLSMAT
 <May09-2019> <17:23:36>  >>>> ORTHON
 <May09-2019> <17:23:36>  >>>> GENPT
 <May09-2019> <17:23:36>  Block Length= 128
 <May09-2019> <17:23:37>  >>>> PTBAS
 <May09-2019> <17:23:37>  >>>> CYCLE
 <May09-2019> <17:23:37>              |Error|         MaxErr       Wt(A-DIIS)
 <May09-2019> <17:23:37>      1      0.72686602      0.37492591
 <May09-2019> <17:23:37>      2      0.22810544      0.06432304    100.0
 <May09-2019> <17:23:37>      3      0.10880361      0.03512636    100.0
 <May09-2019> <17:23:37>      4      0.18766813      0.05351308    100.0
 <May09-2019> <17:23:37>      5      0.02990304      0.00621059      5.3
 <May09-2019> <17:23:37>      6      0.00710883      0.00153722      0.5
 <May09-2019> <17:23:37>      7      0.00147311      0.00038153      0.0
 <May09-2019> <17:23:38>      8      0.00038283      0.00012123      0.0
 <May09-2019> <17:23:38>      9      0.00011843      0.00002773      0.0
 <May09-2019> <17:23:38>     10      0.00001328      0.00000224      0.0
 <May09-2019> <17:23:38>     11      0.00000651      0.00000163      0.0
 <May09-2019> <17:23:38>     12      0.00000046      0.00000014      0.0
 <May09-2019> <17:23:38>  SCF converged
 <May09-2019> <17:23:38>     13      0.00000004      0.00000001      0.0
 <May09-2019> <17:23:38>  >>>> TOTEN
 <May09-2019> <17:23:38>  >>>> POPAN
 <May09-2019> <17:23:38>  >>>> DEBYE
 <May09-2019> <17:23:38>  >>>> AMETS
 <May09-2019> <17:23:41>   Bond Energy          -0.04773501 a.u.
 <May09-2019> <17:23:41>   Bond Energy          -1.29893566 eV
 <May09-2019> <17:23:41>   Bond Energy         -29.95       kcal/mol
 <May09-2019> <17:23:41>  >>>> POPUL
 <May09-2019> <17:23:41>  NORMAL TERMINATION
 <May09-2019> <17:23:41>  END
