

 Parallel Execution: Process Information
 ==============================================================================
 Rank   Node Name                              NodeID   MyNodeRank  NodeMaster
    0   BAZIS-cn022                               0          0          0
    1   BAZIS-cn022                               0          1         -1
    2   BAZIS-cn022                               0          2         -1
    3   BAZIS-cn022                               0          3         -1
    4   BAZIS-cn022                               0          4         -1
    5   BAZIS-cn022                               0          5         -1
    6   BAZIS-cn022                               0          6         -1
    7   BAZIS-cn022                               0          7         -1
    8   BAZIS-cn022                               0          8         -1
    9   BAZIS-cn022                               0          9         -1
   10   BAZIS-cn022                               0         10         -1
   11   BAZIS-cn022                               0         11         -1
 ==============================================================================


May use up to 30771MB of RAM as shared memory on node 0


XC
    GGA BP86
END

SCF
    iterations 250
END

EPRINT
    SFO Eig Ovl
END

ZLMFIT
    Quality normal
END

BECKEGRID
    Quality good
End

SYMMETRY nosym
CHARGE -1

ATOMS
1.F        -4.906172    3.066843   -0.043381 f=FF
2.F        -3.964580    1.437625    0.073519 f=FF
3.Cl       -5.904628    4.794451   -0.167340 f=Cl
END

Fragments
FF /home/tcst25/advanced_comp_chemistry/exercise2/halogen/FFCl/frag1_FF.t21
Cl /home/tcst25/advanced_comp_chemistry/exercise2/halogen/FFCl/frag2_Cl.t21
End
end input

 *******************************************************************************
 *                                                                             *
 *  -------------------------------------                                      *
 *   Amsterdam Density Functional  (ADF)         2017                          *
 *  -------------------------------------                                      *
 *                                               r58813 2017-04-12             *
 *                                                                             *
 *                                                                             *
 *                              =================                              *
 *                              |               |                              *
 *                              |     A D F     |                              *
 *                              |               |                              *
 *                              =================                              *
 *                                                                             *
 *                                                                             *
 *   Online information and documentation:  https://www.scm.com/support/       *
 *   E-mail:  support@scm.com   info@scm.com                                   *
 *                                                                             *
 *   Scientific publications using ADF results must be properly referenced     *
 *   See the User Manuals (or the web site) for recommended citations          *
 *   The terms and conditions of the End User License Agreement apply to       *
 *   the use of ADF, https://www.scm.com/license-terms/                        *
 *                                                                             *
 **********************  x86_64_linux_intel / intelmpi  ************************
 
 Licensed to: VU/FEW (+ SARA) / ALGEMEEN / Amsterdam / THE NETHERLANDS
 SCM User ID: u7668
  
 ADF 2017  RunTime: May09-2019 17:12:18  Nodes: 1  Procs: 12

 Temporary files are created in /local/datastore0/tcst25/189790/kid_0.al6BRY


Communication costs MPI_COMM_WORLD:      3.828 usec per message,   0.0178 usec per 8-byte item
Communication costs for intra-node:      3.866 usec per message,   0.0178 usec per 8-byte item

 *** (NO TITLE) ***



 ===========================
 A T T A C H E D   F I L E S
 ===========================
  



 ===============================
 M O D E L   P A R A M E T E R S
 ===============================
  
 DENSITY FUNCTIONAL POTENTIAL (scf)
    LDA:                               VWN                                      
    Gradient Corrections:              Becke88 Perdew86                        == Not Default ==

 SPIN  (restricted / unrestr.)
    Molecule:                          Restricted                               
    Fragments:                         Restricted                               

 OTHER ASPECTS
    Relativistic Corrections:          ---                                      

    Nuclear Charge Density Model:      Point Charge Nuclei                      
    Core Treatment:                    Frozen Orbital(s)                        

    Hyperfine or Zeeman Interaction:   ---                                      


 Fragment File(s)
 ----------------
 FF:
         file : /home/tcst25/advanced_comp_chemistry/exercise2/halogen/FFCl/frag1_FF.t21
         jobid: ADF 2017  RunTime: May09-2019 16:32:33  Nodes: 1  Procs: 12
         title: *** (NO TITLE) ***
 Cl:
         file : /home/tcst25/advanced_comp_chemistry/exercise2/halogen/FFCl/frag2_Cl.t21
         jobid: ADF 2017  RunTime: May09-2019 16:32:34  Nodes: 1  Procs: 12
         title: *** (NO TITLE) ***



                                        ************************************
                                        *  R U N   T Y P E : SINGLE POINT  *
                                        ************************************
  



 ===============
 G E O M E T R Y  ***  Linear Molecule  ***
 ===============
  

 ATOMS
 =====                            X Y Z                    CHARGE
                                (Angstrom)             Nucl     +Core       At.Mass
                       --------------------------    ----------------       -------
    1  F              -4.9062    3.0668   -0.0434      9.00      9.00       18.9984
    2  F              -3.9646    1.4376    0.0735      9.00      9.00       18.9984
    3  Cl             -5.9046    4.7945   -0.1673     17.00     17.00       34.9689


 FRAGMENTS
 =========                                     Atoms in this Fragment     Cart. coord.s (Angstrom)
                                               -------------------------------------------------------
    1  FF                                                1  F           -4.9062    3.0668   -0.0434
                                                         2  F           -3.9646    1.4376    0.0735
    2  Cl                                                3  Cl          -5.9046    4.7945   -0.1673


 Interatomic Distance Matrix (Angstrom)
 --------------------------------------

   1)     0.000
   2)     1.885   0.000
   3)     1.999   3.885   0.000

 Min. Distance =    1.8854
 Max. Distance =    3.8846



 =====================================
 S Y M M E T R Y ,   E L E C T R O N S
 =====================================
  
 Symmetry: NOSYM

 Irreducible Representations, including subspecies
 -------------------------------------------------
 A


 Configuration of Valence Electrons
 ==================================
 ( determined in the SCF procedure )

 Total:   36

 Net Charge: -1 (Nuclei minus Electrons)

 Aufbau principle for MO occupations will be applied through SCF cycle no.     125
 Thereafter, the program will assign electrons to MOs that are spatially
 similar to the occupied MOs in a "reference" cycle ("KeepOrbitals").
 The reference cycle is always the PREVIOUS cycle: it will evolve with
 the SCF procedure.
1
 ***************************************************************************************************



                                      ****************************************
                                      *  B U I L D : (Fragments, Functions)  *
                                      ****************************************
  

 The individual fragments are copies of the corresponding 'Master' fragments defined on the fragment files.
 However, they may have been rotated (and translated) with respect to the Master. The local coordinate axes
 of each fragment (which define for instance the spatial orientation in the current molecule of a fragment
 P:x orbital) are not necessarily those of the molecule.
 The local frame (if different from the molecular one) is printed to enable an interpretation of the expan-
 sion of an MO in Fragment Orbitals.



                                              ************************
                                              *  Fragment Type : FF  *
                                              ************************
  

 Fragment no.    1   (in the list of all fragments)
 -----------------
 The local coordinate frame is identical to the molecular frame.

 Check Atomic Coordinates:

                  Master (on file)          After Computed Tranformation               As specified on Input
           ----------------------------     ----------------------------     ---------------------------------
     1)    -4.90617   3.06684  -0.04338     -4.90617   3.06684  -0.04338       1  -4.90617   3.06684  -0.04338
     2)    -3.96458   1.43762   0.07352     -3.96458   1.43763   0.07352       2  -3.96458   1.43763   0.07352



                                              ************************
                                              *  Fragment Type : Cl  *
                                              ************************
  

 Fragment no.    2   (in the list of all fragments)
 -----------------
 The local coordinate frame is identical to the molecular frame.

 Check Atomic Coordinates:

                  Master (on file)          After Computed Tranformation               As specified on Input
           ----------------------------     ----------------------------     ---------------------------------
     1)    -5.90463   4.79445  -0.16734     -5.90463   4.79445  -0.16734       3  -5.90463   4.79445  -0.16734



 =======
 S F O s  ***  (Symmetrized Fragment Orbitals)  ***
 =======
  
 SFOs are linear combinations of (valence) Fragment Orbitals (FOs), such that the SFOs transform as the
 irreducible representations of the (molecular) symmetry group. Each SFO is therefore characterized by
 an irrep of the molecule and by a few (or only one) generating FOs.
 The SFOs constitute a symmetry-adapted basis for the Fock matrix. The MO eigenvector coefficients in
 this basis provide a direct interpretation of the MOs in terms of Frontier Orbital Theory.

 The SFOs are combined with auxiliary Core Functions (CFs) to ensure orthogonalization on the (frozen)
 Core Orbitals (COs). The Core-orthogonalized SFOs (CSFOs) constitute the true Fock basis.

 The FOs, and hence also the (C)SFOs are combinations of the elementary basis functions (BAS). The basis
 functions that participate in the description of the SFOs depend on the irrep. The indices of the
 involved functions are printed below for each irrep.
 (The complete list of primitive basis functions is printed in another section)

 Total nr. of (C)SFOs (summation over all irreps) :    86

 NOTE: a (C)SFO that is defined as a combination of more than one FO is usually NOT normalized.



                                       === A ===
 Nr. of SFOs :   86
 Cartesian basis functions that participate in this irrep (total number =    98) :
      1     2     3     4     5     6     9    12     7    10
     13     8    11    14    15    16    17    18    19    20
     21    22    23    24    25    26    27    28    29    30
     31    32    33    34    35    36    39    42    37    40
     43    38    41    44    45    46    47    48    49    50
     51    52    53    54    55    56    57    58    59    60
     61    62    63    64    71    72    73    65    68    74
     77    80    66    69    75    78    81    67    70    76
     79    82    83    84    85    86    87    88    89    90
     91    92    93    94    95    96    97    98

    SFO  (index         Fragment          Generating    Expansion in Fragment Orbitals
  indx  incl.CFs)   Occup   Orb.Energy   FragmentType  Coeff.   Orbital     on Fragment
 --------------------------------------------------------------------------------------
     1       1      2.000     -24.406 au  FF            1.00      1 A               1
                        (    -664.128 eV)
     2       2      2.000     -24.406 au  FF            1.00      2 A               1
                        (    -664.128 eV)
     3       3      2.000      -1.134 au  FF            1.00      3 A               1
                        (     -30.869 eV)
     4       4      2.000      -1.081 au  FF            1.00      4 A               1
                        (     -29.403 eV)
     5       5      2.000      -0.503 au  FF            1.00      5 A               1
                        (     -13.682 eV)
     6       6      2.000      -0.428 au  FF            1.00      6 A               1
                        (     -11.658 eV)
     7       7      2.000      -0.428 au  FF            1.00      7 A               1
                        (     -11.657 eV)
     8       8      2.000      -0.392 au  FF            1.00      8 A               1
                        (     -10.678 eV)
     9       9      2.000      -0.392 au  FF            1.00      9 A               1
                        (     -10.678 eV)
    10      10       --        -0.374 au  FF            1.00     10 A               1
                        (     -10.170 eV)
    11      11       --         0.021 au  FF            1.00     11 A               1
                        (       0.580 eV)
    12      12       --         0.073 au  FF            1.00     12 A               1
                        (       1.987 eV)
    13      13       --         0.373 au  FF            1.00     13 A               1
                        (      10.143 eV)
    14      14       --         0.373 au  FF            1.00     14 A               1
                        (      10.143 eV)
    15      15       --         0.520 au  FF            1.00     15 A               1
                        (      14.143 eV)
    16      16       --         0.540 au  FF            1.00     16 A               1
                        (      14.695 eV)
    17      17       --         0.540 au  FF            1.00     17 A               1
                        (      14.695 eV)
    18      18       --         0.744 au  FF            1.00     18 A               1
                        (      20.248 eV)
    19      19       --         0.955 au  FF            1.00     19 A               1
                        (      25.999 eV)
    20      20       --         0.955 au  FF            1.00     20 A               1
                        (      26.000 eV)
    21      21       --         1.043 au  FF            1.00     21 A               1
                        (      28.384 eV)
    22      22       --         1.043 au  FF            1.00     22 A               1
                        (      28.385 eV)
    23      23       --         1.098 au  FF            1.00     23 A               1
                        (      29.872 eV)
    24      24       --         1.207 au  FF            1.00     24 A               1
                        (      32.854 eV)
    25      25       --         1.207 au  FF            1.00     25 A               1
                        (      32.854 eV)
    26      26       --         1.348 au  FF            1.00     26 A               1
                        (      36.691 eV)
    27      27       --         1.516 au  FF            1.00     27 A               1
                        (      41.247 eV)
    28      28       --         1.516 au  FF            1.00     28 A               1
                        (      41.247 eV)
    29      29       --         1.581 au  FF            1.00     29 A               1
                        (      43.020 eV)
    30      30       --         2.493 au  FF            1.00     30 A               1
                        (      67.826 eV)
    31      31       --         3.157 au  FF            1.00     31 A               1
                        (      85.902 eV)
    32      32       --         3.157 au  FF            1.00     32 A               1
                        (      85.903 eV)
    33      33       --         3.212 au  FF            1.00     33 A               1
                        (      87.396 eV)
    34      34       --         3.212 au  FF            1.00     34 A               1
                        (      87.397 eV)
    35      35       --         3.220 au  FF            1.00     35 A               1
                        (      87.630 eV)
    36      36       --         3.383 au  FF            1.00     36 A               1
                        (      92.055 eV)
    37      37       --         3.383 au  FF            1.00     37 A               1
                        (      92.055 eV)
    38      38       --         3.469 au  FF            1.00     38 A               1
                        (      94.395 eV)
    39      39       --         3.469 au  FF            1.00     39 A               1
                        (      94.395 eV)
    40      40       --         3.666 au  FF            1.00     40 A               1
                        (      99.749 eV)
    41      41       --         3.666 au  FF            1.00     41 A               1
                        (      99.749 eV)
    42      42       --         4.053 au  FF            1.00     42 A               1
                        (     110.293 eV)
    43      43       --         4.053 au  FF            1.00     43 A               1
                        (     110.294 eV)
    44      44       --         4.217 au  FF            1.00     44 A               1
                        (     114.756 eV)
    45      45       --         4.505 au  FF            1.00     45 A               1
                        (     122.592 eV)
    46      46       --         4.505 au  FF            1.00     46 A               1
                        (     122.592 eV)
    47      47       --         4.769 au  FF            1.00     47 A               1
                        (     129.767 eV)
    48      48       --         4.769 au  FF            1.00     48 A               1
                        (     129.768 eV)
    49      49       --         4.913 au  FF            1.00     49 A               1
                        (     133.685 eV)
    50      50       --         5.280 au  FF            1.00     50 A               1
                        (     143.677 eV)
    51      51       --        48.271 au  FF            1.00     51 A               1
                        (    1313.519 eV)
    52      52       --        50.186 au  FF            1.00     52 A               1
                        (    1365.640 eV)
    53      53      2.000    -100.372 au  Cl            1.00      1 A               2
                        (   -2731.270 eV)
    54      54      2.000      -8.827 au  Cl            1.00      2 A               2
                        (    -240.193 eV)
    55      55      2.000      -6.649 au  Cl            1.00      3 A               2
                        (    -180.916 eV)
    56      56      2.000      -6.649 au  Cl            1.00      4 A               2
                        (    -180.916 eV)
    57      57      2.000      -6.649 au  Cl            1.00      5 A               2
                        (    -180.916 eV)
    58      58      2.000      -0.385 au  Cl            1.00      6 A               2
                        (     -10.473 eV)
    59      59      2.000       0.033 au  Cl            1.00      7 A               2
                        (       0.909 eV)
    60      60      2.000       0.033 au  Cl            1.00      8 A               2
                        (       0.909 eV)
    61      61      2.000       0.033 au  Cl            1.00      9 A               2
                        (       0.909 eV)
    62      62       --         0.475 au  Cl            1.00     10 A               2
                        (      12.914 eV)
    63      63       --         0.489 au  Cl            1.00     11 A               2
                        (      13.299 eV)
    64      64       --         0.489 au  Cl            1.00     12 A               2
                        (      13.299 eV)
    65      65       --         0.489 au  Cl            1.00     13 A               2
                        (      13.299 eV)
    66      66       --         0.741 au  Cl            1.00     14 A               2
                        (      20.162 eV)
    67      67       --         0.741 au  Cl            1.00     15 A               2
                        (      20.162 eV)
    68      68       --         0.741 au  Cl            1.00     16 A               2
                        (      20.162 eV)
    69      69       --         0.741 au  Cl            1.00     17 A               2
                        (      20.162 eV)
    70      70       --         0.741 au  Cl            1.00     18 A               2
                        (      20.162 eV)
    71      71       --         1.518 au  Cl            1.00     19 A               2
                        (      41.294 eV)
    72      72       --         1.518 au  Cl            1.00     20 A               2
                        (      41.294 eV)
    73      73       --         1.518 au  Cl            1.00     21 A               2
                        (      41.294 eV)
    74      74       --         1.518 au  Cl            1.00     22 A               2
                        (      41.294 eV)
    75      75       --         1.518 au  Cl            1.00     23 A               2
                        (      41.294 eV)
    76      76       --         1.518 au  Cl            1.00     24 A               2
                        (      41.294 eV)
    77      77       --         1.518 au  Cl            1.00     25 A               2
                        (      41.294 eV)
    78      78       --         2.351 au  Cl            1.00     26 A               2
                        (      63.962 eV)
    79      79       --         2.448 au  Cl            1.00     27 A               2
                        (      66.612 eV)
    80      80       --         2.448 au  Cl            1.00     28 A               2
                        (      66.612 eV)
    81      81       --         2.448 au  Cl            1.00     29 A               2
                        (      66.612 eV)
    82      82       --        13.113 au  Cl            1.00     30 A               2
                        (     356.814 eV)
    83      83       --        19.210 au  Cl            1.00     31 A               2
                        (     522.735 eV)
    84      84       --        19.210 au  Cl            1.00     32 A               2
                        (     522.735 eV)
    85      85       --        19.210 au  Cl            1.00     33 A               2
                        (     522.735 eV)
    86      86       --       215.062 au  Cl            1.00     34 A               2
                        (    5852.138 eV)



 ================================
 (Slater-type)  F U N C T I O N S  ***  (Basis and Fit)  ***
 ================================
  

 Atom Type    1  (F)
 ==============

 Valence Basis Sets:  10
 -----------------------
   1 S   10.880000
   1 S    7.700000
   2 S    3.240000
   2 S    1.940000
   2 S    0.740000
   2 P    4.540000
   2 P    2.300000
   2 P    1.240000
   3 D    2.000000
   4 F    3.000000

 Atom Type    2  (Cl)
 ==============

 Valence Basis Sets:  14
 -----------------------
   1 S   20.300000
   1 S   15.250000
   2 S    6.250000
   2 S    4.450000
   2 P    8.850000
   2 P    5.050000
   3 S    3.450000
   3 S    2.300000
   3 S    1.600000
   3 P    3.350000
   3 P    2.050000
   3 P    1.200000
   3 D    2.000000
   4 F    2.000000


 BAS: List of all Elementary Cartesian Basis Functions
 =====================================================

 The numbering in the list below (to the right of the function characteristics) is referred
 to in print-outs of MO eigenvectors and Mulliken populations in the BAS representation
 (as contrasted to the SFO representation).

 Notes:
 1. The functions are characterized by a polynomial prefactor (powers of x,y,z and r) and
    an exponential decay factor alpha.
 2. Since the basis sets are specific for an atom TYPE, the individual functions occur on
    all atoms of that type.
 3. The word 'Core' in the left margin signals that it is a Core Function (CF) : not a
    degree of freedom in the valence set, but only used to ensure orthogonalization of
    the other valence basis functions on the frozen Core Orbitals.


 (power of) X  Y  Z  R     Alpha  on Atom
            ==========     =====     ==========

 F                                    1    2
                                  ---------------------------------------------------------------------------
            0  0  0  0    10.880      1   31
            0  0  0  0     7.700      2   32
            0  0  0  1     3.240      3   33
            0  0  0  1     1.940      4   34
            0  0  0  1     0.740      5   35
            1  0  0  0     4.540      6   36
            0  1  0  0     4.540      7   37
            0  0  1  0     4.540      8   38
            1  0  0  0     2.300      9   39
            0  1  0  0     2.300     10   40
            0  0  1  0     2.300     11   41
            1  0  0  0     1.240     12   42
            0  1  0  0     1.240     13   43
            0  0  1  0     1.240     14   44
            2  0  0  0     2.000     15   45
            1  1  0  0     2.000     16   46
            1  0  1  0     2.000     17   47
            0  2  0  0     2.000     18   48
            0  1  1  0     2.000     19   49
            0  0  2  0     2.000     20   50
            3  0  0  0     3.000     21   51
            2  1  0  0     3.000     22   52
            2  0  1  0     3.000     23   53
            1  2  0  0     3.000     24   54
            1  1  1  0     3.000     25   55
            1  0  2  0     3.000     26   56
            0  3  0  0     3.000     27   57
            0  2  1  0     3.000     28   58
            0  1  2  0     3.000     29   59
            0  0  3  0     3.000     30   60

 Cl                                   3
                                  ---------------------------------------------------------------------------
            0  0  0  0    20.300     61
            0  0  0  0    15.250     62
            0  0  0  1     6.250     63
            0  0  0  1     4.450     64
            1  0  0  0     8.850     65
            0  1  0  0     8.850     66
            0  0  1  0     8.850     67
            1  0  0  0     5.050     68
            0  1  0  0     5.050     69
            0  0  1  0     5.050     70
            0  0  0  2     3.450     71
            0  0  0  2     2.300     72
            0  0  0  2     1.600     73
            1  0  0  1     3.350     74
            0  1  0  1     3.350     75
            0  0  1  1     3.350     76
            1  0  0  1     2.050     77
            0  1  0  1     2.050     78
            0  0  1  1     2.050     79
            1  0  0  1     1.200     80
            0  1  0  1     1.200     81
            0  0  1  1     1.200     82
            2  0  0  0     2.000     83
            1  1  0  0     2.000     84
            1  0  1  0     2.000     85
            0  2  0  0     2.000     86
            0  1  1  0     2.000     87
            0  0  2  0     2.000     88
            3  0  0  0     2.000     89
            2  1  0  0     2.000     90
            2  0  1  0     2.000     91
            1  2  0  0     2.000     92
            1  1  1  0     2.000     93
            1  0  2  0     2.000     94
            0  3  0  0     2.000     95
            0  2  1  0     2.000     96
            0  1  2  0     2.000     97
            0  0  3  0     2.000     98

 Total number of charge fitting functions (nprimf)       276
 Total number of Cartesian basis functions (naos)         98
 Total number of Cartesian core functions  (ncos)          0

1
 ***************************************************************************************************



                                              ***********************
                                              *  T E C H N I C A L  *
                                              ***********************
  



 =============================================================
 P A R A L L E L I Z A T I O N  and  V E C T O R I Z A T I O N
 =============================================================
  
 Nr of parallel processes:                               12
 Maximum vector length in NumInt loops:                 128

 IO buffersize (Mb):                                     64.000000



 =====================
 S C F   U P D A T E S
 =====================
  
 Max. nr. of cycles:                               250
 Convergence criterion:                              0.0000010000
   secondary criterion:                              0.0010000000

 Mix parameter (when DIIS does not apply):           0.2000000000
 Mixed ADIIS+DIIS will be used
    Max number of expansion vectors:                10
    Pure ADIIS when Max([F,P]) is above              0.1000000000
    Pure DIIS when Max([F,P]) is below               0.0010000000
 Automatic ElectronSmearing (in case of problematic SCF convergence) disabled



 =================
 P R E C I S I O N  ***  (General: NumInt, NeglectFunctionTails, ...)  ***
 =================
  

 NumInt:           Target precision:                 6.0000000000
 -------           Initial precision:                6.0000000000
                   Min. precision (optimization):    6.0000000000

 Neglect Functions:          Basis functions:        0.1000000000E-07
 ------------------          Fit functions:          0.1000000000E-07



 ===========================
 L I N E A R   S C A L I N G
 ===========================
  

 Cut-off radii density fit:                        0.1000000000E-09
 Overlap cut-off criterion AO matrix elements:     0.1000000000E-07
 Cut-offs for Coulomb potential and fitted density:0.1000000000E-09
 Cut-off criterion for Coulomb multipole terms:    0.1000000000E-09
 Progressive Convergence parameter:                 0.000000000    
1
 ***************************************************************************************************



                                            ***************************
                                            *  C O M P U T A T I O N  *
                                            ***************************
  

 Number of elements of the density matrix on this node (used, total):       741      4851



 ===========================================
 Numerical Integration : Fuzzy Cells (Becke)
 ===========================================
  
 Becke grid quality: GOOD           
  
 Lebedev angular grid order:             min:  11 max:  31
 Nr. of radial points:                   min:  65 max:  80

 Total nr. of points:      45488
 Nr. of blocks:              356
 Block length:               128
 Nr. of dummy points:         80


 Test of Precision of the Numerical Integration Grid
 ===================================================

 Integral of the Total Core Density:                   0.00000000000000



 ========================
 Density Fitting (zlmFit)
 ========================
  
 ZlmFit Fit Quality: NORMAL         
  
 Max L-expansion:                        min:   7 max:   7
 Nr. of radial interpolation points:     min:  51 max:  60



 =====
 S C F  ***  ScaSCF  ***
 =====
  
 Initial density matrix is calculated as sum of fragments

 CYCLE    1
 SCF Error: norm([F,P])=      1.195164209785, max([F,P])=      0.547731076137
 orbitals (Q,E):
 ---------------
 A :9...28           ( 2.00    -0.8772)  ( 2.00    -0.4249)  ( 2.00    -0.3364)  ( 2.00    -0.2850)
                     ( 2.00    -0.2850)  ( 2.00    -0.1880)  ( 2.00    -0.1779)  ( 2.00    -0.1779)
                     ( 2.00     0.0151)  ( 2.00     0.0151)  ( 0.00     0.0648)  ( 0.00     0.1676)
                     ( 0.00     0.2643)  ( 0.00     0.4645)  ( 0.00     0.4762)  ( 0.00     0.4762)
                     ( 0.00     0.5517)  ( 0.00     0.5517)  ( 0.00     0.5876)  ( 0.00     0.6549)

 CYCLE    2
  SDIIS (wt  0.000):  0.5967  0.4033
 A-DIIS (wt  1.000):  0.8483  0.1517
  DIIS coefficients:  0.8483  0.1517
 SCF Error: norm([F,P])=      1.461696911160, max([F,P])=      0.387230713091
 orbitals (Q,E):
 ---------------
 A :9...19           ( 2.00    -0.8091)  ( 2.00    -0.4879)  ( 2.00    -0.2429)  ( 2.00    -0.1705)
                     ( 2.00    -0.1705)  ( 2.00    -0.1287)  ( 2.00    -0.1217)  ( 2.00    -0.1217)
                     ( 2.00    -0.0421)  ( 2.00    -0.0421)  ( 0.00     0.0265)

 CYCLE    3
  SDIIS (wt  0.000):  0.1860 -0.4011  1.2150
 A-DIIS (wt  1.000):  0.7355  0.0000  0.2645
  DIIS coefficients:  0.7355  0.0000  0.2645
 SCF Error: norm([F,P])=      0.723420941421, max([F,P])=      0.256307803691
 orbitals (Q,E):
 ---------------
 A :9...19           ( 2.00    -0.8074)  ( 2.00    -0.5009)  ( 2.00    -0.2458)  ( 2.00    -0.1670)
                     ( 2.00    -0.1670)  ( 2.00    -0.1211)  ( 2.00    -0.1211)  ( 2.00    -0.1178)
                     ( 2.00    -0.0552)  ( 2.00    -0.0552)  ( 0.00     0.0089)

 CYCLE    4
  SDIIS (wt  0.000): -0.6426 -0.0001  1.6426
 A-DIIS (wt  1.000):  0.0000  0.0000  1.0000
  DIIS coefficients:  0.0000  0.0000  1.0000
 SCF Error: norm([F,P])=      0.688182552792, max([F,P])=      0.299517306962
 orbitals (Q,E):
 ---------------
 A :9...19           ( 2.00    -0.6822)  ( 2.00    -0.4283)  ( 2.00    -0.2964)  ( 2.00    -0.2751)
                     ( 2.00    -0.2751)  ( 2.00    -0.0142)  ( 2.00    -0.0142)  ( 2.00     0.0016)
                     ( 2.00     0.2004)  ( 2.00     0.2272)  ( 0.00     0.2272)

 CYCLE    5
  SDIIS (wt  0.000): -0.4778  0.2299  1.1891  0.0588
 A-DIIS (wt  1.000):  0.0000  0.0000  0.9292  0.0708
  DIIS coefficients:  0.0000  0.0000  0.9292  0.0708
 SCF Error: norm([F,P])=      3.484758431332, max([F,P])=      1.041722428780
 orbitals (Q,E):
 ---------------
 A :9...19           ( 2.00    -0.6451)  ( 2.00    -0.6056)  ( 2.00    -0.2412)  ( 2.00    -0.2098)
                     ( 2.00    -0.2098)  ( 2.00    -0.0274)  ( 2.00    -0.0271)  ( 2.00    -0.0265)
                     ( 2.00     0.0628)  ( 2.00     0.0648)  ( 0.00     0.1156)

 CYCLE    6
  SDIIS (wt  0.000): -0.1989  0.1987  0.7653 -0.0202  0.2551
 A-DIIS (wt  1.000):  0.0000  0.0685  0.6331  0.0000  0.2985
  DIIS coefficients:  0.0000  0.0685  0.6331  0.0000  0.2985
 SCF Error: norm([F,P])=      1.586386886169, max([F,P])=      0.536228846196
 orbitals (Q,E):
 ---------------
 A :9...19           ( 2.00    -0.7228)  ( 2.00    -0.5472)  ( 2.00    -0.1955)  ( 2.00    -0.1280)
                     ( 2.00    -0.1280)  ( 2.00    -0.0731)  ( 2.00    -0.0730)  ( 2.00    -0.0696)
                     ( 2.00    -0.0362)  ( 2.00    -0.0361)  ( 0.00     0.0372)

 CYCLE    7
  SDIIS (wt  0.000): -0.0071 -0.6856  1.1014  0.0018  0.0384  0.5511
 A-DIIS (wt  1.000):  0.0000  0.0000  0.3624  0.0000  0.0000  0.6376
  DIIS coefficients:  0.0000  0.0000  0.3624  0.0000  0.0000  0.6376
 SCF Error: norm([F,P])=      0.540753483190, max([F,P])=      0.181748558419
 orbitals (Q,E):
 ---------------
 A :9...19           ( 2.00    -0.6940)  ( 2.00    -0.5391)  ( 2.00    -0.2734)  ( 2.00    -0.2173)
                     ( 2.00    -0.2173)  ( 2.00    -0.0938)  ( 2.00    -0.0938)  ( 2.00    -0.0636)
                     ( 2.00    -0.0124)  ( 2.00    -0.0124)  ( 0.00     0.0108)

 CYCLE    8
  SDIIS (wt  0.000): -0.1102 -0.1514  0.6703  0.0000 -0.0703  0.5238  0.1377
 A-DIIS (wt  1.000):  0.0000  0.0000  0.3749  0.0000  0.0000  0.5402  0.0849
  DIIS coefficients:  0.0000  0.0000  0.3749  0.0000  0.0000  0.5402  0.0849
 SCF Error: norm([F,P])=      1.598199400617, max([F,P])=      0.776344357216
 orbitals (Q,E):
 ---------------
 A :9...19           ( 2.00    -0.7330)  ( 2.00    -0.5286)  ( 2.00    -0.2391)  ( 2.00    -0.1720)
                     ( 2.00    -0.1720)  ( 2.00    -0.0837)  ( 2.00    -0.0837)  ( 2.00    -0.0694)
                     ( 2.00    -0.0486)  ( 2.00    -0.0486)  ( 0.00     0.0034)

 CYCLE    9
  SDIIS (wt  0.000): -0.0785  0.0303  0.3105  0.0023 -0.0498  0.3660 -0.0141  0.4334
 A-DIIS (wt  1.000):  0.0000  0.0000  0.2294  0.0000  0.0000  0.3375  0.0000  0.4330
  DIIS coefficients:  0.0000  0.0000  0.2294  0.0000  0.0000  0.3375  0.0000  0.4330
 SCF Error: norm([F,P])=      0.449097008476, max([F,P])=      0.216431674094
 orbitals (Q,E):
 ---------------
 A :9...19           ( 2.00    -0.7635)  ( 2.00    -0.5220)  ( 2.00    -0.2173)  ( 2.00    -0.1397)
                     ( 2.00    -0.1397)  ( 2.00    -0.0888)  ( 2.00    -0.0874)  ( 2.00    -0.0874)
                     ( 2.00    -0.0650)  ( 2.00    -0.0650)  ( 0.00     0.0125)

 CYCLE   10
  SDIIS (wt  0.000): -0.0426 -0.0410  0.1346  0.0000 -0.0070  0.1466 -0.0278  0.4506  0.3866
 A-DIIS (wt  1.000):  0.0000  0.0000  0.0000  0.0000  0.0000  0.0384  0.0000  0.4233  0.5383
  DIIS coefficients:  0.0000  0.0000  0.0000  0.0000  0.0000  0.0384  0.0000  0.4233  0.5383
 SCF Error: norm([F,P])=      0.339153438384, max([F,P])=      0.125327579531
 orbitals (Q,E):
 ---------------
 A :9...19           ( 2.00    -0.7349)  ( 2.00    -0.5370)  ( 2.00    -0.2161)  ( 2.00    -0.1400)
                     ( 2.00    -0.1400)  ( 2.00    -0.0846)  ( 2.00    -0.0846)  ( 2.00    -0.0742)
                     ( 2.00    -0.0489)  ( 2.00    -0.0489)  ( 0.00     0.0153)

 CYCLE   11
  SDIIS (wt  0.033): -0.0088 -0.1338  0.1530  0.0001 -0.0055 -0.0530 -0.0201  0.2318  0.4166  0.4197
 A-DIIS (wt  0.967):  0.0000  0.0000  0.0000  0.0000  0.0000  0.0000  0.0000  0.2367  0.4418  0.3215
  DIIS coefficients: -0.0003 -0.0045  0.0051  0.0000 -0.0002 -0.0018 -0.0007  0.2365  0.4410  0.3248
 SCF Error: norm([F,P])=      0.246439253247, max([F,P])=      0.096699075119
 orbitals (Q,E):
 ---------------
 A :9...19           ( 2.00    -0.7483)  ( 2.00    -0.5262)  ( 2.00    -0.2289)  ( 2.00    -0.1559)
                     ( 2.00    -0.1559)  ( 2.00    -0.0819)  ( 2.00    -0.0819)  ( 2.00    -0.0783)
                     ( 2.00    -0.0609)  ( 2.00    -0.0609)  ( 0.00     0.0053)

 CYCLE   12
  SDIIS (wt  0.639): -0.0339  0.0134 -0.0001 -0.0027 -0.0228 -0.0067  0.0443  0.2088  0.3150  0.4848
 A-DIIS (wt  0.361):  0.0000  0.0000  0.0000  0.0000  0.0000  0.0000  0.0000  0.0547  0.2320  0.7133
  DIIS coefficients: -0.0217  0.0085 -0.0000 -0.0017 -0.0146 -0.0043  0.0283  0.1532  0.2851  0.5672
 SCF Error: norm([F,P])=      0.103909240588, max([F,P])=      0.036701787900
 orbitals (Q,E):
 ---------------
 A :9...19           ( 2.00    -0.7471)  ( 2.00    -0.5300)  ( 2.00    -0.2220)  ( 2.00    -0.1464)
                     ( 2.00    -0.1464)  ( 2.00    -0.0835)  ( 2.00    -0.0835)  ( 2.00    -0.0792)
                     ( 2.00    -0.0593)  ( 2.00    -0.0593)  ( 0.00     0.0091)

 CYCLE   13
  SDIIS (wt  0.839): -0.0073  0.0000 -0.0008 -0.0072 -0.0018  0.0165  0.0276  0.0945  0.3393  0.5391
 A-DIIS (wt  0.161):  0.0000  0.0000  0.0000  0.0000  0.0000  0.0000  0.0000  0.0000  0.2053  0.7947
  DIIS coefficients: -0.0061  0.0000 -0.0006 -0.0061 -0.0015  0.0139  0.0231  0.0793  0.3177  0.5802
 SCF Error: norm([F,P])=      0.044589295025, max([F,P])=      0.016917101065
 orbitals (Q,E):
 ---------------
 A :9...19           ( 2.00    -0.7453)  ( 2.00    -0.5294)  ( 2.00    -0.2242)  ( 2.00    -0.1496)
                     ( 2.00    -0.1496)  ( 2.00    -0.0831)  ( 2.00    -0.0831)  ( 2.00    -0.0778)
                     ( 2.00    -0.0582)  ( 2.00    -0.0582)  ( 0.00     0.0081)

 CYCLE   14
  SDIIS (wt  0.900):  0.0000 -0.0002 -0.0016  0.0005 -0.0168  0.0094 -0.0029  0.0974  0.2677  0.6464
 A-DIIS (wt  0.100):  0.0000  0.0000  0.0000  0.0000  0.0000  0.0000  0.0000  0.0293  0.3386  0.6321
  DIIS coefficients:  0.0000 -0.0002 -0.0014  0.0004 -0.0151  0.0085 -0.0026  0.0906  0.2748  0.6450
 SCF Error: norm([F,P])=      0.025132793699, max([F,P])=      0.010884632172
 orbitals (Q,E):
 ---------------
 A :9...19           ( 2.00    -0.7469)  ( 2.00    -0.5288)  ( 2.00    -0.2239)  ( 2.00    -0.1490)
                     ( 2.00    -0.1490)  ( 2.00    -0.0829)  ( 2.00    -0.0829)  ( 2.00    -0.0786)
                     ( 2.00    -0.0594)  ( 2.00    -0.0594)  ( 0.00     0.0081)

 CYCLE   15
  SDIIS (wt  0.976): -0.0001 -0.0009  0.0003 -0.0054  0.0007  0.0032  0.0399  0.1601  0.3594  0.4428
 A-DIIS (wt  0.024):  0.0000  0.0000  0.0000  0.0000  0.0000  0.0000  0.0000  0.0000  0.2402  0.7598
  DIIS coefficients: -0.0001 -0.0009  0.0003 -0.0053  0.0007  0.0031  0.0390  0.1563  0.3565  0.4504
 SCF Error: norm([F,P])=      0.008982212119, max([F,P])=      0.003387929720
 orbitals (Q,E):
 ---------------
 A :9...19           ( 2.00    -0.7465)  ( 2.00    -0.5291)  ( 2.00    -0.2238)  ( 2.00    -0.1489)
                     ( 2.00    -0.1489)  ( 2.00    -0.0831)  ( 2.00    -0.0831)  ( 2.00    -0.0784)
                     ( 2.00    -0.0590)  ( 2.00    -0.0590)  ( 0.00     0.0082)

 CYCLE   16
  SDIIS (wt  1.000): -0.0003  0.0000 -0.0008 -0.0000  0.0001  0.0089  0.0378  0.0908  0.1391  0.7244
  DIIS coefficients: -0.0003  0.0000 -0.0008 -0.0000  0.0001  0.0089  0.0378  0.0908  0.1391  0.7244
 SCF Error: norm([F,P])=      0.000490134844, max([F,P])=      0.000174758767
 orbitals (Q,E):
 ---------------
 A :9...19           ( 2.00    -0.7465)  ( 2.00    -0.5291)  ( 2.00    -0.2238)  ( 2.00    -0.1490)
                     ( 2.00    -0.1490)  ( 2.00    -0.0831)  ( 2.00    -0.0831)  ( 2.00    -0.0784)
                     ( 2.00    -0.0591)  ( 2.00    -0.0591)  ( 0.00     0.0082)

 CYCLE   17
  SDIIS (wt  1.000): -0.0000  0.0000 -0.0000 -0.0000  0.0008  0.0029  0.0072  0.0157  0.1172  0.8562
  DIIS coefficients: -0.0000  0.0000 -0.0000 -0.0000  0.0008  0.0029  0.0072  0.0157  0.1172  0.8562
 SCF Error: norm([F,P])=      0.000025600412, max([F,P])=      0.000009563114
 orbitals (Q,E):
 ---------------
 A :9...19           ( 2.00    -0.7465)  ( 2.00    -0.5291)  ( 2.00    -0.2238)  ( 2.00    -0.1490)
                     ( 2.00    -0.1490)  ( 2.00    -0.0831)  ( 2.00    -0.0831)  ( 2.00    -0.0784)
                     ( 2.00    -0.0591)  ( 2.00    -0.0591)  ( 0.00     0.0082)

 CYCLE   18
  SDIIS (wt  1.000): -0.0000  0.0000 -0.0000  0.0001  0.0005  0.0027  0.0048  0.0301  0.2735  0.6884
  DIIS coefficients: -0.0000  0.0000 -0.0000  0.0001  0.0005  0.0027  0.0048  0.0301  0.2735  0.6884
 SCF Error: norm([F,P])=      0.000007004702, max([F,P])=      0.000002856708
 orbitals (Q,E):
 ---------------
 A :9...19           ( 2.00    -0.7465)  ( 2.00    -0.5291)  ( 2.00    -0.2238)  ( 2.00    -0.1490)
                     ( 2.00    -0.1490)  ( 2.00    -0.0831)  ( 2.00    -0.0831)  ( 2.00    -0.0784)
                     ( 2.00    -0.0591)  ( 2.00    -0.0591)  ( 0.00     0.0082)

 CYCLE   19
  SDIIS (wt  1.000): -0.0000 -0.0000 -0.0000  0.0001  0.0003  0.0009  0.0036  0.0379  0.1019  0.8553
  DIIS coefficients: -0.0000 -0.0000 -0.0000  0.0001  0.0003  0.0009  0.0036  0.0379  0.1019  0.8553
 SCF Error: norm([F,P])=      0.000000322644, max([F,P])=      0.000000094497
 orbitals (Q,E):
 ---------------
 A :9...19           ( 2.00    -0.7465)  ( 2.00    -0.5291)  ( 2.00    -0.2238)  ( 2.00    -0.1490)
                     ( 2.00    -0.1490)  ( 2.00    -0.0831)  ( 2.00    -0.0831)  ( 2.00    -0.0784)
                     ( 2.00    -0.0591)  ( 2.00    -0.0591)  ( 0.00     0.0082)

 SCF CONVERGED

 CYCLE   20
1
 ***************************************************************************************************



                                                *******************
                                                *  R E S U L T S  *
                                                *******************
  
 *** Setting up for NEW gradients in Focky
 *** Using FIT density in Focky

 Orbital Energies, per Irrep and Spin:
 ======================================
                        Occup              E (au)              E (eV)       Diff (eV) with prev. cycle
                        -----      --------------------        ------       --------------------------
 A
               9        2.000     -0.74646937449734E+00       -20.312              -7.59E-08
              10        2.000     -0.52912726016111E+00       -14.398               7.03E-08
              11        2.000     -0.22382932150942E+00        -6.091              -1.29E-08
              12        2.000     -0.14896669661894E+00        -4.054              -1.72E-08
              13        2.000     -0.14896489635542E+00        -4.054              -1.72E-08
              14        2.000     -0.83053506348216E-01        -2.260               3.28E-08
              15        2.000     -0.83051937329868E-01        -2.260               3.27E-08
              16        2.000     -0.78408349741365E-01        -2.134              -3.04E-08
              17        2.000     -0.59057446081611E-01        -1.607              -5.09E-08
              18        2.000     -0.59056735154189E-01        -1.607              -5.10E-08
              19        0.000      0.81877993756778E-02         0.223
              20        0.000      0.23294187046316E+00         6.339
              21        0.000      0.27239881846864E+00         7.412
              22        0.000      0.39817911854799E+00        10.835
              23        0.000      0.41612501204102E+00        11.323
              24        0.000      0.41612934012872E+00        11.323
              25        0.000      0.52929246323768E+00        14.403
              26        0.000      0.56041423046392E+00        15.250
              27        0.000      0.56041761051181E+00        15.250
              28        0.000      0.60742535395968E+00        16.529
  
 HOMO :       18 A                -0.59056735154189E-01
 LUMO :       19 A                 0.81877993756778E-02
  


 All Electron Calculation, thus no Orbital Energies of the Core Orbitals are calculated


 Fit test: (difference of exact and fit density, squared integrated, result summed over spins)
         Sum-of-Fragments:                             0.00009153748052
         Orthogonalized Fragments:                     0.00010282739407
         SCF:                                          0.00009885749291



 ==========================
 Electron Density at Nuclei
 ==========================
  
 The electron density is calculated at points on a small sphere around the center of a nucleus.
 The printed electron density is the average electron density on these points.
 The radius of the sphere is the printed approximate finite nuclear radius.

         Atom        Nuclear Radius (Angstrom)             Electron Density (a.u.)
         ----        -------------------------             -----------------------
     1)   F                 0.0000361580                              448.40982
     2)   F                 0.0000361580                              447.60677
     3)   Cl                0.0000426624                             3210.88140



 =======================================
 M U L L I K E N   P O P U L A T I O N S
 =======================================
  
 The survey below gives for each atom:
 a) the total charge (Z minus electrons)
 b) the net spin polarization (nr of electrons spin-A minus spin-B)
 c) for each spin the atomic electron valence density (integrated) per L-value.

 Atom              Charge    Spin density          S         P         D         F
 ----              ------    ------------       ------    ------    ------    ------
 1 F              -0.2158                       3.9824    5.2075    0.0242    0.0017
 2 F              -0.4787                       3.9950    5.4762    0.0068    0.0007
 3 Cl             -0.3056                       5.9831   11.2800    0.0336    0.0088

 Populations of individual BAS functions
 ----------------------------------------
 1 F            0.5754  1.4003  1.1334  0.8794 -0.0062  0.3797  0.2895  0.4242  0.9560  0.7985
                1.0337  0.4629  0.3390  0.5241 -0.0005  0.0097  0.0012  0.0172  0.0034 -0.0067
               -0.0008 -0.0018  0.0004  0.0036  0.0002 -0.0020  0.0055  0.0043 -0.0031 -0.0045
 2 F            0.5757  1.4009  1.0973  0.9114  0.0097  0.3875  0.3315  0.4151  0.9176  0.8237
                0.9640  0.5635  0.4574  0.6159 -0.0004  0.0025  0.0004  0.0063  0.0011 -0.0031
               -0.0005 -0.0010  0.0002  0.0019  0.0001 -0.0011  0.0030  0.0023 -0.0018 -0.0024
 3 Cl           0.5055  1.4529  1.7128  0.2535  0.7270  0.7219  0.7295  1.2712  1.2778  1.2680
                0.6103  1.0513  0.3969  0.2834  0.2250  0.3123  1.0271  0.8643  1.1076  0.5117
                0.3729  0.5803  0.0016  0.0111  0.0022  0.0168  0.0067 -0.0048 -0.0021 -0.0005
                0.0005  0.0079  0.0012 -0.0031  0.0096  0.0066 -0.0056 -0.0057

 Gross Charges per Atom (Z minus electrons)
 ==========================================
            -0.2158   -0.4787   -0.3056
 Net Total: -1.00000000


 Atom-Atom Population Matrix (off-diagonal elements not doubled)
 ===============================================================

     1 :     9.2406
     2 :     0.0047    9.4558
     3 :    -0.0296    0.0181   17.3170


 Frag-Frag Population Matrix (off-diagonal elements not doubled)
 ===============================================================

     1 :    18.7059
     2 :    -0.0114   17.3170



 =================================================
 H I R S H F E L D   C H A R G E   A N A L Y S I S
 =================================================
  
 For each fragment: the (numerical) integral of rho(scf) * rho(fragment)/rho(sum-of-fragments)
 (nuclear charges are included, electrons are counted negative)

 The fragments and their ordering are defined in the early G E O M E T R Y output section.
 If you use single-atom fragments, this usually implies that all atoms of the same
 chemical type are grouped together. This may not be the order in which you listed them
 in the input file!

    1  FF                       -0.5411
    2  Cl                       -0.4589

 Sum of these charges (accuracy NumInt/Tails) =          -0.99999963



 =============================
 V O R O N O I   C H A R G E S
 =============================
  
 For each atom: the (numerical) integral of the total electronic charge density in its Voronoi cell,
 i.e. the region of space that is closer to that atom than to any other atom.
 (cf. Wigner-Seitz cells in crystals)

 Within the Voronoi cell the subintegrals over the atomic sphere and the remaining part are evaluated
 separately to give the numbers of electrons (negative charge) in these regions.
 The net total charge in the cell (including the nuclear charge) is also given.

 Values are provided for
    a) the Initial (sum-of-fragments) density
    b) the Orthogonalized-Fragments density
    c) the SCF density
    d) the Voronoi Deformation Density (VDD): the difference SCF-Initial for the complete atomic cell
 ---------------------------------------------------------------------------------------------------
 Total NetCharge:              -1.000                     -1.000                     -1.000   -0.000
 (accuracy NumInt/Tails)

 Remark: the 'NetTotal' Voronoi charges often do not match the Mulliken and/or Hirshfeld charges very
 well. This is caused by the fact that chemically different atoms are not treated in accordance with
 their relative sizes. (Voronoi cells are defined by boundary planes halfway between the atoms.)
 However, the CHANGES in charge, comparing 'Initial' to 'SCF' for instance, do give a fair indication
 of the flow of charge caused by the relaxation from sum-of-fragments to self-consistency.

 Warning: the absolute accuracy of the VDD charges obtained using the Fuzzy Cells (Becke) integration
 scheme is much poorer than the one obtained with an 'equivalent' Voronoi integration grid. 



 =================================================================
 M U L T I P O L E   D E R I V E D   C H A R G E   A N A L Y S I S
 =================================================================

 This charge analysis uses the atomic multipoles (obtained from the fitted density) up to some level X,
 and reconstructs these multipoles exactly (up to level X) by distributing charges over all atoms.
 This is achieved by using Lagrange multipliers and a weight function to keep the multipoles local.

 Dummy atoms can be included (by setting INCDUM in MDC-block to 1) to obtain a fractional charge.
 This is generally useful and necessary only for small symmetrical molecules, when there are not
 enough degrees of freedom to reconstruct the multipoles.

 Since the atomic multipoles are reconstructed up to level X,
 the molecular multipoles are represented also up to level X.
 The recommended level is to reconstruct up to quadrupole : -> MDC-q charges.

 See: M. Swart, P.Th. van Duijnen, J.G. Snijders, J.Comput.Chem., (2001), p. 79-88.

 ------------------------------------------------------------- 
 Atomic electronic multipole moments from SCF equations (a.u.)
 ------------------------------------------------------------- 

   atom        charge        dip-x     dip-y     dip-z      quad-xx   quad-xy   quad-xz   quad-yy   quad-yz   quad-zz
 --------------------------------------------------------------------------------------------------------------------
    1 F     -0.480280     0.216449 -0.374558  0.026794    -0.022788 -0.078549  0.005733  0.112715 -0.009895 -0.089927
    2 F     -0.465782    -0.061445  0.106316 -0.007612    -0.060557 -0.207684  0.014900  0.298401 -0.025743 -0.237844
    3 Cl    -0.053938     0.398010 -0.688656  0.049468    -0.257473 -0.882866  0.063351  1.268536 -0.109620 -1.011063

 --------------------------------------- 
 Multipole derived atomic charges (a.u.)
 --------------------------------------- 

 The MDC-m charges are just the Monopole terms in the multipole expansion, while for the MDC-d charges
 also the Dipoles are reconstructed. The usually preferred charges are the MDC-q charges.
 These reconstruct the Monopoles, Dipoles and Quadrupoles (both atomic AND molecular).

        Atom    Level:     MDC-m        MDC-d        MDC-q
 ---------------------------------------------------------
     1     F           -0.480280    -0.248017    -0.089292
     2     F           -0.465782    -0.434471    -0.516160
     3     Cl          -0.053938    -0.317512    -0.394548

 ------------------------------------------------ 
 Average absolute deviations in atomic multipoles
 ------------------------------------------------ 

 Stated here are the average differences between the atomic multipoles
 and the reconstructed atomic multipoles (from the distributed charges).
 If these values are not zero, this means there are not enough degrees of freedom,
 to be able to reconstruct the atomic multipoles. (This usually happens only
 for small and/or highly symmetric molecules). If this is the case, one could add
 dummy atoms as extra point charges (and setting INCDUM in MDC-block to 1).

 Level:                                 MDC-d        MDC-q
 ---------------------------------------------------------
 Charge   (a.u.)                       0.0000       0.0000
 Dipole   (Debye)                      0.0001       0.0001
 Quad.    (a.u.)                       0.3218       0.1116

 --------------------------------------- 
 Represented molecular multipole moments
 --------------------------------------- 

 Given here are the Molecular multipole moments from the atomic charges, and from the Fit Density.
 Note that the atomic charges represent the latter, NOT the ones from the Exact density.

            Q (a.u.)             Dipole moment (Debye)                                          Quadrupole moment (a.u.)
                                 x         y         z              xx        xy        xz        yy        yz        zz
------------------------------------------------------------------------------------------------------------------------
MDC-m        -1.0000       21.7174  -11.5333   -0.0211        -62.1360   61.1093   -0.1058   13.0836    0.3104   49.0525
MDC-d        -1.0000       23.1231  -13.9655    0.1535        -66.4158   81.4024   -1.2849    5.0388    1.2953   61.3770
MDC-q        -1.0000       23.1231  -13.9655    0.1535        -66.1469   82.7855   -1.3842    3.7140    1.4670   62.4330
 
Fit.Dens.    -1.0000       23.1231  -13.9655    0.1534        -66.3116   82.5209   -1.3651    4.5271    1.4342   61.7846



 =============
 Dipole Moment  ***  (Debye)  ***
 =============
  
 Vector   :        23.12627741    -13.97091101      0.15403867
 Magnitude:        27.01915597

 This molecular dipole moment is calculated with analytic integration
 ************************************************************************************
 Since the molecule is NOT NEUTRAL, the dipole moment depends on the choice of origin
 ************************************************************************************



 =========================================
 Quadrupole Moment (Buckingham convention)  ***  (a.u.)  ***
 =========================================
  
      quad-xx        quad-xy        quad-xz        quad-yy        quad-yz        quad-zz
    -66.32229165    81.97931475    -1.32682055     4.51195572     1.36440676    61.81033593

 This molecular quadrupole moment is calculated with analytic integration
1



                                             *************************
                                             *  SFO MO coefficients  *
                                             *************************
  


                                       === A ===
 MOs expanded in CFs+SFOs
 ========================

 The SFOs have been characterized in an earlier part of output.
 To deduce the bonding / antibonding nature of SFO combinations in an MO, consider the products
 of the coefficients AND THE OVERLAP between the SFOs (may be NEGATIVE). The SFO overlap matrix
 is printed later, in the SFO Populations section.

 (The CF coefficients are not printed)

 MOs :      1        2        3        4        5        6        7        8        9       10
 occup:   2.00     2.00     2.00     2.00     2.00     2.00     2.00     2.00     2.00     2.00
 CF+SFO
     1   0.0000  -0.7064   0.7078  -0.0001   0.0000   0.0000  -0.0000   0.0005  -0.0002  -0.0032
     2   0.0000  -0.7078  -0.7064  -0.0001   0.0000   0.0000  -0.0000   0.0005  -0.0003  -0.0032
     3   0.0000   0.0001   0.0001  -0.0006   0.0002   0.0000  -0.0000  -0.8563  -0.5009  -0.1110
     4  -0.0000  -0.0001  -0.0000   0.0005  -0.0003  -0.0000   0.0000   0.4788  -0.8607   0.1564
     5  -0.0000   0.0001   0.0000   0.0001  -0.0004  -0.0000   0.0000   0.0437  -0.0136  -0.0836
     6  -0.0000  -0.0000  -0.0000   0.0000  -0.0000   0.0000   0.0000  -0.0000  -0.0000  -0.0000
     7  -0.0000   0.0000  -0.0000  -0.0000  -0.0000   0.0000  -0.0000   0.0000  -0.0000  -0.0000
     8  -0.0000   0.0000   0.0000  -0.0000  -0.0000   0.0000  -0.0000   0.0000   0.0000  -0.0000
     9  -0.0000   0.0000   0.0000  -0.0000  -0.0000  -0.0000  -0.0000   0.0000  -0.0000   0.0000
    10  -0.0000   0.0002  -0.0001   0.0002  -0.0004  -0.0000   0.0000   0.0265  -0.0251  -0.0560
    11   0.0001  -0.0000   0.0001  -0.0011   0.0002   0.0000  -0.0000  -0.0097  -0.0099  -0.0047
    12  -0.0001  -0.0000  -0.0001   0.0012  -0.0003  -0.0000   0.0000   0.0025  -0.0113   0.0072
    13  -0.0000   0.0000   0.0000   0.0000  -0.0000  -0.0000  -0.0000  -0.0000   0.0000  -0.0000
    14  -0.0000  -0.0000   0.0000  -0.0000  -0.0000  -0.0000   0.0000  -0.0000   0.0000  -0.0000
    15  -0.0000  -0.0001  -0.0001   0.0001  -0.0004  -0.0000   0.0000  -0.0011  -0.0037   0.0005
    16   0.0000   0.0000  -0.0000   0.0000   0.0000   0.0000   0.0000   0.0000  -0.0000  -0.0000
    17   0.0000   0.0000   0.0000   0.0000   0.0000  -0.0000   0.0000   0.0000   0.0000   0.0000
    18  -0.0000   0.0001   0.0000   0.0003   0.0004   0.0000  -0.0000  -0.0028   0.0029  -0.0009
    19   0.0000  -0.0000  -0.0000  -0.0000  -0.0000   0.0001   0.0000   0.0000  -0.0000  -0.0000
    20   0.0000  -0.0000  -0.0000  -0.0000   0.0000  -0.0000   0.0001  -0.0000   0.0000   0.0000
    21   0.0000   0.0000   0.0000  -0.0000  -0.0000   0.0000   0.0000   0.0000  -0.0000  -0.0000
    22  -0.0000  -0.0000  -0.0000   0.0000   0.0000   0.0000  -0.0000   0.0000  -0.0000  -0.0000
    23   0.0000   0.0001   0.0000  -0.0002  -0.0002  -0.0000   0.0000   0.0023  -0.0006  -0.0049
    24  -0.0000  -0.0000  -0.0000   0.0000   0.0000  -0.0000  -0.0000  -0.0000   0.0000   0.0000
    25  -0.0000  -0.0000  -0.0000   0.0000   0.0000   0.0000  -0.0000   0.0000  -0.0000  -0.0000
    26  -0.0000   0.0000  -0.0001   0.0001  -0.0000  -0.0000   0.0000   0.0004  -0.0089   0.0069
    27   0.0000  -0.0000   0.0000  -0.0000  -0.0000   0.0001   0.0000   0.0000   0.0000  -0.0000
    28   0.0000   0.0000  -0.0000   0.0000   0.0000   0.0000  -0.0001   0.0000  -0.0000  -0.0000
    29  -0.0000   0.0001   0.0001   0.0001  -0.0002  -0.0000   0.0000   0.0057   0.0072   0.0044
    30   0.0000   0.0001  -0.0001  -0.0001  -0.0001  -0.0000   0.0000   0.0016  -0.0027  -0.0008
    31   0.0000   0.0000   0.0000  -0.0000  -0.0000   0.0001   0.0000   0.0000   0.0000  -0.0000
    32   0.0000   0.0000  -0.0000  -0.0000   0.0000  -0.0000   0.0001  -0.0000  -0.0000   0.0000
    33   0.0000  -0.0000  -0.0000  -0.0000  -0.0000  -0.0000  -0.0000   0.0000  -0.0000  -0.0000
    34  -0.0000   0.0000   0.0000   0.0000   0.0000  -0.0000   0.0000  -0.0000   0.0000   0.0000
    35   0.0000  -0.0001  -0.0000  -0.0002  -0.0001   0.0000  -0.0000   0.0018  -0.0002  -0.0005
    36   0.0000   0.0000  -0.0000  -0.0000   0.0000  -0.0000   0.0000   0.0000  -0.0000  -0.0000
    37   0.0000  -0.0000  -0.0000   0.0000  -0.0000   0.0000  -0.0000  -0.0000   0.0000   0.0000
    38  -0.0000   0.0000   0.0000   0.0000   0.0000   0.0000  -0.0000   0.0000  -0.0000  -0.0000
    39   0.0000  -0.0000  -0.0000  -0.0000  -0.0000   0.0000   0.0000  -0.0000   0.0000   0.0000
    40   0.0000   0.0000  -0.0000  -0.0000  -0.0000   0.0000   0.0000  -0.0000  -0.0000   0.0000
    41   0.0000  -0.0000   0.0000  -0.0000   0.0000   0.0000  -0.0000   0.0000  -0.0000  -0.0000
    42  -0.0000  -0.0000   0.0000   0.0000   0.0000  -0.0000  -0.0000  -0.0000   0.0000  -0.0000
    43  -0.0000  -0.0000  -0.0000   0.0000  -0.0000   0.0000  -0.0000  -0.0000   0.0000  -0.0000
    44   0.0000   0.0000   0.0000  -0.0001   0.0000   0.0000   0.0000   0.0003  -0.0000  -0.0002
    45   0.0000  -0.0000   0.0000   0.0000   0.0000   0.0000  -0.0000   0.0000  -0.0000   0.0000
    46   0.0000  -0.0000  -0.0000   0.0000   0.0000  -0.0000  -0.0000   0.0000  -0.0000   0.0000
    47  -0.0000   0.0000   0.0000  -0.0000  -0.0000  -0.0000   0.0000  -0.0000   0.0000  -0.0000
    48   0.0000  -0.0000   0.0000   0.0000   0.0000  -0.0000  -0.0000   0.0000  -0.0000   0.0000
    49  -0.0000   0.0002   0.0001   0.0001   0.0000   0.0000   0.0000  -0.0004   0.0003   0.0000
    50   0.0000  -0.0002   0.0001   0.0000  -0.0000  -0.0000  -0.0000   0.0008  -0.0004  -0.0000
    51  -0.0000   0.0001   0.0001   0.0000   0.0000   0.0000  -0.0000   0.0001   0.0000  -0.0002
    52  -0.0000   0.0001  -0.0001   0.0000   0.0000   0.0000  -0.0000   0.0001  -0.0001  -0.0002
    53  -1.0000   0.0000  -0.0000  -0.0000   0.0000  -0.0000   0.0000   0.0006  -0.0003  -0.0001
    54   0.0001   0.0000  -0.0000  -0.9999   0.0028  -0.0000  -0.0000   0.0059  -0.0027   0.0001
    55  -0.0000   0.0000  -0.0000  -0.0001  -0.0514  -0.7493   0.6602   0.0002  -0.0001  -0.0000
    56  -0.0000   0.0000  -0.0000  -0.0019  -0.6805   0.5102   0.5260   0.0026  -0.0011  -0.0002
    57  -0.0000   0.0000  -0.0000  -0.0021  -0.7310  -0.4222  -0.5361   0.0028  -0.0011  -0.0002
    58  -0.0001   0.0000  -0.0001   0.0014  -0.0005  -0.0000  -0.0000  -0.0823   0.0468   0.9797
    59  -0.0000  -0.0000  -0.0001   0.0003  -0.0002   0.0002   0.0002  -0.0229   0.0101  -0.0037
    60  -0.0000  -0.0000  -0.0001   0.0003  -0.0002  -0.0002  -0.0002  -0.0277   0.0122  -0.0045
    61   0.0000   0.0000   0.0000  -0.0000   0.0000  -0.0003   0.0003   0.0023  -0.0010   0.0004
    62  -0.0000   0.0000  -0.0001   0.0007  -0.0003  -0.0000   0.0000   0.0071  -0.0044  -0.0217
    63   0.0000   0.0000   0.0000  -0.0008   0.0003   0.0000   0.0000  -0.0116   0.0056   0.0061
    64  -0.0000  -0.0000  -0.0000   0.0000  -0.0000   0.0003  -0.0001   0.0000  -0.0000  -0.0000
    65  -0.0000  -0.0000  -0.0000   0.0001  -0.0000   0.0001   0.0003   0.0016  -0.0008  -0.0008
    66  -0.0000  -0.0000  -0.0000  -0.0001  -0.0002  -0.0001  -0.0002  -0.0050   0.0022   0.0039
    67   0.0000   0.0000   0.0000   0.0001   0.0001   0.0000  -0.0000   0.0018  -0.0008  -0.0014
    68  -0.0000  -0.0000  -0.0000  -0.0002  -0.0003   0.0001  -0.0000  -0.0079   0.0034   0.0061
    69  -0.0000  -0.0000  -0.0000  -0.0002  -0.0003  -0.0001   0.0002  -0.0075   0.0033   0.0058
    70  -0.0000  -0.0000  -0.0000  -0.0002  -0.0002   0.0001  -0.0000  -0.0067   0.0029   0.0052
    71   0.0000  -0.0000  -0.0000  -0.0000  -0.0002   0.0000   0.0000  -0.0018   0.0008   0.0002
    72   0.0000  -0.0000  -0.0000  -0.0001  -0.0003   0.0000  -0.0000  -0.0028   0.0012   0.0004
    73  -0.0000   0.0000   0.0000   0.0000   0.0000  -0.0001  -0.0001   0.0000  -0.0000  -0.0000
    74   0.0000  -0.0000  -0.0000  -0.0000  -0.0001  -0.0001   0.0001  -0.0006   0.0003   0.0001
    75   0.0000  -0.0000  -0.0000  -0.0000  -0.0001  -0.0000  -0.0000  -0.0006   0.0003   0.0001
    76  -0.0000   0.0000   0.0000   0.0000   0.0001  -0.0001   0.0001   0.0009  -0.0004  -0.0001
    77  -0.0000   0.0000   0.0000   0.0000   0.0002   0.0000  -0.0000   0.0018  -0.0008  -0.0002
    78   0.0000  -0.0000  -0.0000  -0.0011  -0.0001  -0.0000   0.0000   0.0002  -0.0001   0.0001
    79  -0.0000   0.0000   0.0000   0.0000   0.0001   0.0004   0.0006  -0.0002   0.0001   0.0003
    80  -0.0000   0.0000   0.0000   0.0001   0.0006  -0.0001  -0.0001  -0.0013   0.0005   0.0017
    81   0.0000  -0.0000  -0.0000  -0.0000  -0.0000  -0.0006   0.0005   0.0000  -0.0000  -0.0001
    82   0.0001   0.0000  -0.0000  -0.0003   0.0000   0.0000   0.0000  -0.0002   0.0001   0.0003
    83   0.0000  -0.0000  -0.0000  -0.0001  -0.0005   0.0002   0.0002   0.0001  -0.0000  -0.0001
    84  -0.0000   0.0000   0.0000   0.0001   0.0004   0.0002   0.0002  -0.0001   0.0000   0.0000
    85   0.0000  -0.0000  -0.0000  -0.0000  -0.0000  -0.0003   0.0003   0.0000  -0.0000  -0.0000
    86  -0.0001   0.0000   0.0000  -0.0000   0.0000   0.0000   0.0000  -0.0000   0.0000   0.0000

 MOs :     11       12       13       14       15       16       17       18       19       20
 occup:   2.00     2.00     2.00     2.00     2.00     2.00     2.00     2.00     0.00     0.00
 CF+SFO
     1   0.0042   0.0000   0.0000   0.0000   0.0000   0.0078   0.0000   0.0000  -0.0107   0.0142
     2   0.0045   0.0000   0.0000   0.0000   0.0000   0.0083   0.0000   0.0000  -0.0118   0.0157
     3   0.0860   0.0000  -0.0000   0.0000   0.0000   0.0955   0.0000   0.0000  -0.1320   0.1338
     4  -0.0985  -0.0000   0.0000  -0.0000  -0.0000  -0.1152  -0.0000  -0.0000   0.1181  -0.1419
     5   0.7695  -0.0000  -0.0000  -0.0001  -0.0000  -0.6348  -0.0000  -0.0000   0.1452  -0.1002
     6   0.0000   0.6577   0.3641   0.5421  -0.0798  -0.0001  -0.3656  -0.0007  -0.0000   0.0000
     7   0.0000   0.3640  -0.6577  -0.0798  -0.5421   0.0000   0.0007  -0.3656  -0.0000  -0.0000
     8   0.0000   0.4648  -0.0246  -0.0357   0.0304  -0.0000   0.7476   0.4692   0.0000  -0.0000
     9  -0.0000  -0.0246  -0.4648   0.0304   0.0357  -0.0000  -0.4692   0.7476  -0.0000  -0.0000
    10   0.2727   0.0000   0.0000   0.0001   0.0000   0.4807   0.0000   0.0000   0.8530  -0.1423
    11   0.0145   0.0000  -0.0000   0.0000   0.0000   0.0474   0.0000   0.0000  -0.0383   1.1696
    12  -0.0244  -0.0000   0.0000   0.0000  -0.0000  -0.0039  -0.0000   0.0000   0.0874  -0.1838
    13   0.0000   0.0173   0.0104   0.0334  -0.0037  -0.0000  -0.0286   0.0010   0.0000  -0.0000
    14  -0.0000   0.0104  -0.0173  -0.0037  -0.0334   0.0000  -0.0010  -0.0286   0.0000  -0.0000
    15   0.0156  -0.0000   0.0000  -0.0000  -0.0000  -0.0372   0.0000   0.0000   0.0045  -0.0733
    16   0.0000   0.0033   0.0088  -0.0015  -0.0009  -0.0000   0.0294  -0.0249  -0.0000   0.0000
    17  -0.0000  -0.0088   0.0033   0.0009  -0.0015   0.0000  -0.0249  -0.0294  -0.0000   0.0000
    18   0.0021  -0.0000  -0.0000  -0.0000   0.0000  -0.0066  -0.0000  -0.0000  -0.0373   0.0651
    19   0.0000   0.0110   0.0067   0.0016  -0.0002  -0.0000  -0.0006   0.0000  -0.0000   0.0000
    20  -0.0000  -0.0067   0.0110   0.0002   0.0016   0.0000   0.0000   0.0006  -0.0000   0.0000
    21   0.0000   0.0000   0.0000  -0.0000   0.0000  -0.0000   0.0000   0.0000   0.0000  -0.0000
    22   0.0000   0.0000   0.0000   0.0000  -0.0000  -0.0000   0.0000  -0.0000  -0.0000   0.0000
    23   0.0083  -0.0000  -0.0000   0.0000  -0.0000   0.0046  -0.0000  -0.0000   0.0073  -0.0071
    24  -0.0000  -0.0000  -0.0000   0.0000   0.0000  -0.0000  -0.0000   0.0000  -0.0000   0.0000
    25   0.0000   0.0000   0.0000   0.0000   0.0000   0.0000   0.0000  -0.0000   0.0000  -0.0000
    26  -0.0114  -0.0000  -0.0000  -0.0000  -0.0000  -0.0139  -0.0000   0.0000   0.0125  -0.0251
    27  -0.0000   0.0050   0.0039  -0.0018  -0.0000   0.0000  -0.0006   0.0001  -0.0000  -0.0000
    28   0.0000   0.0039  -0.0050  -0.0000   0.0018   0.0000  -0.0001  -0.0006  -0.0000  -0.0000
    29  -0.0056   0.0000  -0.0000  -0.0000  -0.0000  -0.0142   0.0000  -0.0000   0.0181  -0.0090
    30   0.0013  -0.0000  -0.0000  -0.0000   0.0000  -0.0029   0.0000   0.0000   0.0029  -0.0080
    31  -0.0000   0.0002   0.0002  -0.0013  -0.0001   0.0000   0.0010  -0.0002  -0.0000   0.0000
    32  -0.0000  -0.0002   0.0002   0.0001  -0.0013  -0.0000  -0.0002  -0.0010  -0.0000   0.0000
    33   0.0000  -0.0000  -0.0000   0.0000  -0.0000   0.0000  -0.0000   0.0000   0.0000   0.0000
    34  -0.0000  -0.0000  -0.0000  -0.0000  -0.0000  -0.0000   0.0000  -0.0000   0.0000   0.0000
    35  -0.0000  -0.0000  -0.0000   0.0000   0.0000   0.0009  -0.0000  -0.0000   0.0005  -0.0014
    36   0.0000   0.0000  -0.0000   0.0000  -0.0000   0.0000   0.0000   0.0000  -0.0000  -0.0000
    37  -0.0000  -0.0000  -0.0000  -0.0000  -0.0000  -0.0000  -0.0000  -0.0000   0.0000   0.0000
    38   0.0000   0.0000  -0.0000   0.0000  -0.0000   0.0000   0.0000   0.0000  -0.0000  -0.0000
    39  -0.0000  -0.0000  -0.0000   0.0000   0.0000  -0.0000  -0.0000   0.0000  -0.0000   0.0000
    40  -0.0000   0.0000   0.0000   0.0000   0.0000   0.0000   0.0000   0.0000  -0.0000  -0.0000
    41   0.0000   0.0000  -0.0000  -0.0000  -0.0000   0.0000   0.0000  -0.0000  -0.0000  -0.0000
    42  -0.0000   0.0000   0.0000  -0.0002  -0.0001   0.0000   0.0012  -0.0008   0.0000  -0.0000
    43   0.0000  -0.0000   0.0000   0.0001  -0.0002   0.0000  -0.0008  -0.0012   0.0000   0.0000
    44   0.0000  -0.0000   0.0000  -0.0000   0.0000  -0.0005   0.0000   0.0000  -0.0034   0.0004
    45   0.0000   0.0028  -0.0002   0.0018  -0.0016  -0.0000  -0.0016  -0.0010   0.0000   0.0000
    46   0.0000  -0.0002  -0.0028  -0.0016  -0.0018   0.0000   0.0010  -0.0016   0.0000  -0.0000
    47  -0.0000  -0.0018   0.0000   0.0003  -0.0002   0.0000  -0.0032  -0.0019  -0.0000   0.0000
    48   0.0000  -0.0000  -0.0018   0.0002   0.0003  -0.0000  -0.0019   0.0032   0.0000   0.0000
    49  -0.0020  -0.0000   0.0000   0.0000   0.0000   0.0026   0.0000   0.0000  -0.0015   0.0005
    50   0.0006  -0.0000  -0.0000   0.0000  -0.0000   0.0005   0.0000   0.0000   0.0033  -0.0007
    51   0.0003   0.0000   0.0000   0.0000   0.0000   0.0005   0.0000  -0.0000  -0.0007   0.0009
    52   0.0002   0.0000   0.0000   0.0000   0.0000   0.0004   0.0000  -0.0000  -0.0007   0.0009
    53   0.0015  -0.0000   0.0000  -0.0000  -0.0000  -0.0006  -0.0000   0.0000   0.0031  -0.0102
    54   0.0130  -0.0000   0.0000  -0.0000  -0.0000  -0.0053  -0.0000   0.0000   0.0265  -0.0835
    55   0.0003  -0.0021   0.0006  -0.0008   0.0011  -0.0001  -0.0009  -0.0009   0.0006  -0.0009
    56   0.0045   0.0005   0.0015   0.0008   0.0006  -0.0014   0.0007  -0.0006   0.0073  -0.0125
    57   0.0048  -0.0003  -0.0014  -0.0007  -0.0006  -0.0015  -0.0006   0.0007   0.0079  -0.0134
    58   0.1877   0.0000  -0.0000  -0.0000   0.0000  -0.0558  -0.0000  -0.0000   0.2182  -0.4134
    59  -0.2845   0.0643   0.2906  -0.5125  -0.4329  -0.4091  -0.1667   0.1880   0.4656  -0.1798
    60  -0.3449  -0.0839  -0.2311   0.4662   0.2996  -0.4961   0.1567  -0.1361   0.5645  -0.2180
    61   0.0287  -0.3705   0.1028   0.5235  -0.6905   0.0412   0.2312   0.2278  -0.0469   0.0181
    62   0.0149  -0.0000  -0.0000   0.0000   0.0000   0.0085   0.0000   0.0000   0.0151  -0.0661
    63  -0.0587  -0.0001   0.0040  -0.0038  -0.0053  -0.0375  -0.0010   0.0019  -0.0174   0.2513
    64   0.0002   0.0299   0.0015  -0.0403   0.0276   0.0001  -0.0146  -0.0072   0.0001  -0.0008
    65   0.0080  -0.0015   0.0297  -0.0274  -0.0399   0.0051  -0.0071   0.0145   0.0024  -0.0341
    66  -0.0126   0.0063   0.0233   0.0094   0.0073   0.0057   0.0103  -0.0105  -0.0250  -0.0145
    67   0.0046  -0.0007   0.0006  -0.0001   0.0004  -0.0021  -0.0002  -0.0005   0.0091   0.0053
    68  -0.0197  -0.0091  -0.0010  -0.0039   0.0023   0.0090  -0.0051  -0.0022  -0.0391  -0.0226
    69  -0.0189   0.0184  -0.0112   0.0039  -0.0099   0.0086   0.0065   0.0114  -0.0374  -0.0217
    70  -0.0168  -0.0149  -0.0035  -0.0069   0.0031   0.0077  -0.0090  -0.0026  -0.0334  -0.0193
    71  -0.0047  -0.0003  -0.0009   0.0002   0.0002  -0.0013  -0.0001   0.0001  -0.0005  -0.0104
    72  -0.0075  -0.0001   0.0001  -0.0000  -0.0000  -0.0021  -0.0000  -0.0000  -0.0008  -0.0166
    73   0.0000   0.0022   0.0080  -0.0019  -0.0015   0.0000   0.0010  -0.0010   0.0000   0.0000
    74  -0.0016   0.0048  -0.0015  -0.0009   0.0012  -0.0005   0.0006   0.0007  -0.0002  -0.0035
    75  -0.0017   0.0015   0.0017  -0.0007  -0.0001  -0.0005   0.0004  -0.0001  -0.0002  -0.0038
    76   0.0023   0.0064  -0.0020  -0.0011   0.0016   0.0006   0.0008   0.0009   0.0002   0.0050
    77   0.0047  -0.0013   0.0003   0.0003  -0.0003   0.0014  -0.0002  -0.0002   0.0005   0.0104
    78   0.0015   0.0000   0.0000  -0.0000  -0.0000   0.0005  -0.0000   0.0000   0.0024  -0.0275
    79  -0.0004  -0.0000  -0.0000   0.0008   0.0007   0.0001   0.0003  -0.0003  -0.0011   0.0050
    80  -0.0019   0.0000   0.0000  -0.0002  -0.0001   0.0007  -0.0001   0.0001  -0.0056   0.0255
    81   0.0001   0.0000  -0.0000  -0.0007   0.0008  -0.0000  -0.0003  -0.0003   0.0002  -0.0009
    82  -0.0002  -0.0000   0.0000   0.0000  -0.0000   0.0001   0.0000   0.0000  -0.0005   0.0024
    83   0.0002   0.0000   0.0001  -0.0001  -0.0001   0.0002  -0.0000   0.0000  -0.0000  -0.0005
    84  -0.0002   0.0000   0.0001  -0.0001  -0.0001  -0.0001  -0.0000   0.0000   0.0000   0.0004
    85   0.0000  -0.0001   0.0000   0.0001  -0.0002   0.0000   0.0000   0.0001  -0.0000  -0.0000
    86  -0.0001  -0.0000   0.0000   0.0000  -0.0000   0.0000   0.0000   0.0000  -0.0002   0.0006

 MOs :     21       22       23       24       25       26       27       28       29       30
 occup:   0.00     0.00     0.00     0.00     0.00     0.00     0.00     0.00     0.00     0.00
 CF+SFO
     1  -0.0149   0.0259  -0.0000  -0.0000  -0.0412  -0.0000  -0.0000  -0.0000  -0.0000   0.0000
     2  -0.0168   0.0304  -0.0000  -0.0000  -0.0450  -0.0000  -0.0000  -0.0000  -0.0000   0.0000
     3  -0.1568   0.2315  -0.0000  -0.0001  -0.3810  -0.0000  -0.0000  -0.0000  -0.0000   0.0000
     4   0.1307  -0.1826   0.0000   0.0001   0.3520   0.0000   0.0000   0.0000   0.0000  -0.0000
     5   0.1198   0.0132   0.0000   0.0000   0.1957  -0.0000   0.0000   0.0000   0.0000  -0.0000
     6   0.0000  -0.0000   0.0974  -0.0179  -0.0000   0.0469  -0.0562  -0.0000   0.0000  -0.0127
     7   0.0000   0.0000   0.0179   0.0974  -0.0000   0.0562   0.0469   0.0000   0.0000   0.0042
     8   0.0000   0.0000   0.0741   0.0293  -0.0000   0.0642  -0.0210  -0.0000   0.0000  -0.0522
     9   0.0000   0.0000  -0.0293   0.0741  -0.0000   0.0210   0.0642   0.0000  -0.0000   0.0626
    10   0.0761  -0.0036   0.0000   0.0000   0.1827   0.0000   0.0000   0.0000   0.0000   0.0000
    11  -0.1379   0.0711  -0.0001  -0.0000  -0.7391  -0.0000  -0.0000  -0.0000  -0.0000  -0.0000
    12   1.1246   0.1524   0.0001  -0.0000   0.8952  -0.0000   0.0001   0.0000   0.0000  -0.0000
    13  -0.0000   0.0000  -0.0283   0.0063  -0.0000  -0.2359   0.3040   0.0000  -0.0000  -0.8981
    14   0.0000  -0.0000  -0.0063  -0.0283   0.0000  -0.3040  -0.2359  -0.0000  -0.0000   0.2600
    15   0.0461  -0.1395   0.0000   0.0000   0.0753   0.0000   0.0000  -0.0000   0.0000   0.0000
    16  -0.0000  -0.0000   0.0149  -0.0182  -0.0000   0.0019   0.2255   0.0000  -0.0000   0.2245
    17  -0.0000   0.0000  -0.0182  -0.0149   0.0000   0.2255  -0.0019   0.0000   0.0000  -0.0914
    18  -0.0084   0.1300  -0.0000  -0.0000  -0.2524   0.0000  -0.0000   0.0000  -0.0000   0.0000
    19   0.0000   0.0000   0.0216  -0.0049  -0.0000  -0.0521   0.0678   0.0000  -0.0000   0.0431
    20  -0.0000  -0.0000  -0.0049  -0.0216  -0.0000   0.0678   0.0521   0.0000   0.0000   0.0122
    21   0.0000  -0.0000  -0.0000  -0.0000   0.0000  -0.0000  -0.0000   0.0046   0.0336  -0.0000
    22   0.0000   0.0000   0.0000  -0.0000  -0.0000   0.0000   0.0000  -0.0336   0.0046  -0.0000
    23   0.0088  -0.0557   0.0000   0.0000   0.0793   0.0000   0.0000  -0.0000  -0.0000  -0.0000
    24  -0.0000  -0.0000   0.0000   0.0000   0.0000   0.0000  -0.0000   0.0016  -0.0300  -0.0000
    25   0.0000   0.0000   0.0000   0.0000  -0.0000   0.0000   0.0000  -0.0300  -0.0016  -0.0000
    26   0.0046  -0.0390   0.0000   0.0000   0.0641   0.0000   0.0000   0.0000   0.0000   0.0000
    27   0.0000   0.0000   0.0131  -0.0046  -0.0000  -0.0161   0.0271   0.0000  -0.0000   0.0183
    28  -0.0000   0.0000   0.0046   0.0131  -0.0000  -0.0271  -0.0161  -0.0000  -0.0000  -0.0029
    29   0.0326  -0.0626   0.0000   0.0000   0.0875  -0.0000   0.0000   0.0000   0.0000   0.0000
    30   0.0043  -0.0252   0.0000   0.0000   0.0363   0.0000   0.0000   0.0000   0.0000   0.0000
    31  -0.0000  -0.0000   0.0062  -0.0024  -0.0000  -0.0042   0.0076   0.0000  -0.0000   0.0052
    32   0.0000  -0.0000  -0.0024  -0.0062  -0.0000   0.0076   0.0042   0.0000   0.0000   0.0007
    33  -0.0000  -0.0000   0.0000   0.0000   0.0000   0.0000  -0.0000   0.0006  -0.0066  -0.0000
    34  -0.0000  -0.0000  -0.0000  -0.0000  -0.0000  -0.0000  -0.0000   0.0066   0.0006  -0.0000
    35   0.0005  -0.0037   0.0000   0.0000   0.0154  -0.0000   0.0000   0.0000   0.0000   0.0000
    36   0.0000   0.0000  -0.0000  -0.0000  -0.0000   0.0000  -0.0000  -0.0000  -0.0000   0.0000
    37  -0.0000  -0.0000   0.0000   0.0000   0.0000  -0.0000  -0.0000   0.0000  -0.0000  -0.0000
    38   0.0000   0.0000  -0.0000  -0.0000  -0.0000   0.0000  -0.0000   0.0000   0.0000   0.0000
    39  -0.0000  -0.0000   0.0000  -0.0000   0.0000   0.0000  -0.0000  -0.0000  -0.0000  -0.0000
    40   0.0000  -0.0000  -0.0000  -0.0000  -0.0000  -0.0000   0.0000  -0.0006   0.0048  -0.0000
    41   0.0000   0.0000  -0.0000   0.0000  -0.0000   0.0000  -0.0000  -0.0048  -0.0006   0.0000
[...]
   73   -2.90085623248199E-16  6.34724434767928E-16 -2.08821448458221E-16  2.64380591949293E-16
   74   -4.40992030569705E-16  3.86118470154603E-16  2.23761488596737E-16 -1.76088881175405E-16
   75   -3.87759186208324E-16  1.00096181284782E-15 -5.50597131933359E-16 -1.02112381419193E-15
   76   -1.05191572499078E-16  6.11348521148796E-16 -5.58848921115246E-17  1.63864595152041E-16
   77    3.16361816246026E-16  5.41683942368564E-16  3.14730544940539E-16 -1.43810420440371E-15
   78    7.19221181227784E-16  2.94330820160187E-16 -1.55769094302270E-15 -7.58400901961268E-16
   79    4.21911346192103E-17 -3.59353621993519E-16 -5.27942983468956E-16 -2.50342374271132E-16
   80    1.72526635312071E-16  2.31155503063935E-16  4.41135886542651E-15 -2.69229634043016E-16
   81    4.72834305236542E-17  1.61876215086863E-16 -5.05322971921252E-16 -5.50642549939252E-16
   82   -1.44649722226748E-16  2.69643092000395E-16 -6.11154520825373E-16 -1.42319958105325E-16
   83    7.97574693464122E-17 -5.51331733664574E-16  4.57520664234233E-16  1.48394957812372E-16
   84    7.76846103178915E-16  4.36389415661725E-16 -6.04154164093231E-16 -4.50595508145939E-16
   85    5.67636353584334E-16 -2.45262754082394E-16  2.37423349177451E-16  1.44043862058890E-16
   86   -6.93889390390723E-17 -8.42425088021237E-17 -3.27862736959617E-16  1.34007388519208E-16

 column          73                    74                    75                    76
 row
   73    1.00000000000000E+00
   74   -5.66393021942125E-16  1.00000000000000E+00
   75   -6.36853283318236E-16  2.09836002452876E-16  9.99999999999998E-01
   76   -3.51280304814304E-16 -7.30953572512570E-16 -5.38188201619684E-16  1.00000000000000E+00
   77   -7.44230897538335E-16  4.52509281482948E-16 -2.32411268616601E-15 -1.59209071952284E-15
   78   -1.19842612879410E-16 -3.93712692935722E-17 -4.77766882490869E-16  5.32087039223838E-17
   79    1.16479572838793E-15 -2.99139379879635E-17 -1.79830044550873E-16 -3.73581413079561E-16
   80   -7.45097488932066E-17 -1.72242323409369E-16 -5.22946918448254E-16 -1.67044955714797E-17
   81    2.42822716658818E-17  3.19269922717870E-16 -3.94175574934700E-16  1.21135255549991E-15
   82    9.76839203212192E-17  9.42706575961205E-17 -2.11161502102234E-16  2.29738721345644E-16
   83    3.36759430216551E-16  4.23542016964466E-17  4.55639940071418E-16 -9.96717830366222E-17
   84    4.67651276149201E-16  2.41820931654178E-16  3.88860381979314E-16  2.78724013113900E-16
   85   -7.94835458870855E-17 -3.51490234847870E-16  3.89342756903018E-16 -1.44288214520560E-16
   86   -2.59731271270302E-17  1.62826837516589E-16  3.77736036893950E-16 -8.00751067016325E-17

 column          77                    78                    79                    80
 row
   77    9.99999999999998E-01
   78    3.58173810977112E-16  9.99999999999995E-01
   79   -7.80676743508423E-16  1.45986551975752E-16  9.99999999999999E-01
   80    4.62432343597565E-18  3.06271867134104E-16  5.67348597301561E-16  1.00000000000000E+00
   81    2.54623660943998E-16 -3.27603862515112E-16  2.40901239161917E-16  4.08675926995663E-16
   82    1.74949281890117E-16 -4.78630535812735E-15  5.36726662192424E-16 -4.53460782378484E-16
   83   -7.34577147407675E-17 -6.91583343191823E-16 -1.91658335557644E-15 -5.35509475847219E-16
   84    1.12826004860646E-15  4.86035551947516E-16  3.00644709628139E-16  2.43097566477390E-15
   85   -6.87583312816476E-17  7.09432444972839E-17 -1.09729758640019E-15 -2.97383738660328E-16
   86   -2.81553751667329E-16 -3.89532156530592E-15 -1.58835618269126E-16 -1.34441069388203E-17

 column          81                    82                    83                    84
 row
   81    1.00000000000000E+00
   82   -2.52180343122445E-16  1.00000000000001E+00
   83   -2.31190178475214E-16  6.28104576542218E-17  1.00000000000000E+00
   84   -1.28049573173436E-15  4.22062753331425E-16  6.02581250379959E-16  1.00000000000000E+00
   85    1.26433352501913E-15 -3.01775670666291E-16  8.08589973131360E-16  1.26516553388491E-16
   86   -3.49655200626575E-17  1.74493666044162E-14 -3.19189119579733E-16  6.89552581700781E-17

 column          85                    86
 row
   85    1.00000000000000E+00
   86   -7.04392598936676E-17  1.00000000000003E+00


 SFO contributions (%) per orbital
 (multiplication by the orbital occupation yields the SFO Gross Populations)

 Orb.:        9     10     11     12     13     14     15     16     17     18     19     20     21     22
 occup:     2.00   2.00   2.00   2.00   2.00   2.00   2.00   2.00   2.00   2.00   0.00   0.00   0.00   0.00
 CF+SFO     ----   ----   ----   ----   ----   ----   ----   ----   ----   ----   ----   ----   ----   ----
 ------
      3:   24.89   0.64   0.35   0.00   0.00  -0.00  -0.00   0.05   0.00   0.00   0.09  -0.16   0.07  -0.07
      4:   74.46   1.51   0.51   0.00   0.00   0.00  -0.00   0.28  -0.00   0.00  -0.06   0.08  -0.10  -0.07
      5:    0.03   1.51  62.51   0.00   0.00   0.00   0.00  34.64   0.00   0.00   0.43  -0.03   0.31   0.06
      6:    0.00   0.00   0.00  44.73  13.70  26.56   0.58   0.00  14.06   0.00   0.00   0.00   0.00   0.00
      7:    0.00   0.00   0.00  13.70  44.73   0.58  26.56   0.00   0.00  14.06   0.00   0.00   0.00   0.00
      8:    0.00   0.00   0.00  22.79   0.06   0.27   0.20   0.00  54.70  21.55   0.00   0.00   0.00   0.00
      9:    0.00   0.00   0.00   0.06  22.79   0.20   0.27   0.00  21.55  54.70   0.00  -0.00  -0.00  -0.00
     10:    0.08   0.91   8.64   0.00   0.00   0.00   0.00  27.70   0.00   0.00  62.05   0.40  -0.24  -0.02
     11:   -0.00  -0.11   0.01   0.00   0.00  -0.00   0.00  -0.29   0.00  -0.00  -0.57 109.78  -1.35  -1.07
     12:    0.03  -0.23   0.11   0.00   0.00   0.00   0.00  -0.04  -0.00   0.00  -0.90  -1.14  99.38   4.03
     15:    0.01  -0.01   0.09   0.00  -0.00  -0.00  -0.00  -0.39   0.00   0.00  -0.09  -0.69  -0.49   2.77
     18:    0.01  -0.02  -0.02   0.00  -0.00   0.00  -0.00   0.14   0.00   0.00  -0.82  -0.68  -0.13   1.52
     58:    0.37  95.51   1.84   0.00   0.00   0.00   0.00   0.07   0.00   0.00   1.02  -0.52  -0.79   0.01
     59:    0.05   0.01  10.08   0.51  10.37  25.11  17.91  15.08   2.46   3.13  15.32  -0.60  -0.37   0.48
     60:    0.07   0.01  14.82   0.86   6.56  20.78   8.58  22.18   2.18   1.64  22.52  -0.88  -0.54   0.71
     61:    0.00   0.00   0.10  16.85   1.30  26.20  45.59   0.15   4.74   4.60   0.16  -0.01  -0.00   0.00
     62:   -0.02   0.12  -0.06   0.00   0.00   0.00   0.00   0.06   0.00   0.00  -0.24  -2.87   0.74   4.63
     63:   -0.02   0.04   0.50  -0.00  -0.00   0.00   0.01   0.34   0.00   0.00  -0.17  -3.26   2.84  83.77
     65:   -0.00   0.00   0.01  -0.00  -0.26   0.16   0.34   0.01   0.02   0.07  -0.00  -0.06   0.05   1.55


 Summation over all MOs, multiplied by occupation: Total SFO Gross Populations in this Irrep
 ===========================================================================================

     2.00    2.00    2.00    2.00    1.98    1.99    1.99    1.99    1.99    0.75   -0.01   -0.00
     0.00    0.00   -0.01    0.00    0.00    0.00    0.00    0.00    0.00    0.00    0.00    0.00
     0.00    0.00    0.00    0.00   -0.00   -0.00    0.00    0.00    0.00    0.00    0.00    0.00
     0.00    0.00    0.00    0.00    0.00    0.00    0.00   -0.00    0.00    0.00    0.00    0.00
     0.00   -0.00   -0.00    0.00    2.00    2.00    2.00    2.00    2.00    1.98    1.70    1.56
     1.99   -0.00    0.01    0.01    0.01    0.01    0.00    0.01    0.01    0.01    0.00    0.00
     0.00    0.00    0.00    0.00    0.00   -0.00    0.00   -0.00    0.00   -0.00   -0.00   -0.00
     0.00   -0.00



 List of all MOs, ordered by energy, with the most significant SFO gross populations
 ===================================================================================

 Each percentage contribution in the table below corresponds to the indicated SFO.
 In general, a SFO may be a linear combination of several Fragment Orbitals on the same,
 or on symmetry-related Fragments. Only the first 'member' of such a combination is
 specified here. A full definition of all SFOs is given in an earlier part of the output.
 The numbering of the SFOs in this table does NOT include the Core Orbitals, and starts
 from one for each symmetry representation, as in the SFO definition list earlier.

       E(eV)  Occ       MO           %     SFO (first member)   E(eV)  Occ   Fragment
 -------------------------------------------------------------------------------------

     -20.312  2.00     9 A         74.46%     4 A             -29.403  2.00     1 FF
                                   24.89%     3 A             -30.869  2.00     1 FF
     -14.398  2.00    10 A         95.51%     6 A             -10.473  2.00     2 Cl
                                    1.51%     4 A             -29.403  2.00     1 FF
                                    1.51%     5 A             -13.682  2.00     1 FF
      -6.091  2.00    11 A         62.51%     5 A             -13.682  2.00     1 FF
                                   14.82%     8 A               0.909  2.00     2 Cl
                                   10.08%     7 A               0.909  2.00     2 Cl
                                    8.64%    10 A             -10.170  0.00     1 FF
                                    1.84%     6 A             -10.473  2.00     2 Cl
      -4.054  2.00    12 A         44.73%     6 A             -11.658  2.00     1 FF
                                   22.79%     8 A             -10.678  2.00     1 FF
                                   16.85%     9 A               0.909  2.00     2 Cl
                                   13.70%     7 A             -11.657  2.00     1 FF
      -4.054  2.00    13 A         44.73%     7 A             -11.657  2.00     1 FF
                                   22.79%     9 A             -10.678  2.00     1 FF
                                   13.70%     6 A             -11.658  2.00     1 FF
                                   10.37%     7 A               0.909  2.00     2 Cl
                                    6.56%     8 A               0.909  2.00     2 Cl
                                    1.30%     9 A               0.909  2.00     2 Cl
      -2.260  2.00    14 A         26.56%     6 A             -11.658  2.00     1 FF
                                   26.20%     9 A               0.909  2.00     2 Cl
                                   25.11%     7 A               0.909  2.00     2 Cl
                                   20.78%     8 A               0.909  2.00     2 Cl
      -2.260  2.00    15 A         45.59%     9 A               0.909  2.00     2 Cl
                                   26.56%     7 A             -11.657  2.00     1 FF
                                   17.91%     7 A               0.909  2.00     2 Cl
                                    8.58%     8 A               0.909  2.00     2 Cl
      -2.134  2.00    16 A         34.64%     5 A             -13.682  2.00     1 FF
                                   27.70%    10 A             -10.170  0.00     1 FF
                                   22.18%     8 A               0.909  2.00     2 Cl
                                   15.08%     7 A               0.909  2.00     2 Cl
      -1.607  2.00    17 A         54.70%     8 A             -10.678  2.00     1 FF
                                   21.55%     9 A             -10.678  2.00     1 FF
                                   14.06%     6 A             -11.658  2.00     1 FF
                                    4.74%     9 A               0.909  2.00     2 Cl
                                    2.46%     7 A               0.909  2.00     2 Cl
                                    2.18%     8 A               0.909  2.00     2 Cl
      -1.607  2.00    18 A         54.70%     9 A             -10.678  2.00     1 FF
                                   21.55%     8 A             -10.678  2.00     1 FF
                                   14.06%     7 A             -11.657  2.00     1 FF
                                    4.60%     9 A               0.909  2.00     2 Cl
                                    3.13%     7 A               0.909  2.00     2 Cl
                                    1.64%     8 A               0.909  2.00     2 Cl
       0.223  0.00    19 A         62.05%    10 A             -10.170  0.00     1 FF
                                   22.52%     8 A               0.909  2.00     2 Cl
                                   15.32%     7 A               0.909  2.00     2 Cl
                                    1.02%     6 A             -10.473  2.00     2 Cl



 =======================================================================
 Electrostatic potential at the Nuclei due to electrons and other nuclei
 =======================================================================
  
         Atom                  Potential
         ----                  ---------
     1)   F                  26.79917736
     2)   F                  26.88056619
     3)   Cl                 64.61502863
 
 
 ========================
 No memory problems found
 ========================
 
 Maximum number of active allocate calls:         576
 
 *******************************************************************************

                             A D F   E X I T
 NORMAL TERMINATION



 =================
 Timing Statistics
 =================
  
 Total Used :                     CPU=        5.77      System=        0.18     Elapsed=        6.24

 Calls  Section                     ( Mean, Percentage )
 ---------------------------------------------------------------------------------------------------
     3  ><      ................      0.00    0.02             0.00    0.00             0.00    0.02
     1  INIT    ................      0.41    7.14             0.03   15.56             0.46    7.44
     1  GEOMET  ................      0.03    0.50             0.01    3.89             0.24    3.88
     1  FRAGM   ................      0.01    0.12             0.01    6.11             0.03    0.46
     1  INPUTA  ................      0.00    0.02             0.00    0.00             0.00    0.01
     1  ATDEN   ................      0.00    0.07             0.00    0.00             0.00    0.07
     1  MAINSY  ................      0.01    0.14             0.00    1.67             0.01    0.24
     1  SYMFIT  ................      0.00    0.03             0.00    0.00             0.00    0.04
     1  CORORT  ................      0.00    0.00             0.00    0.00             0.00    0.01
     1  SYMORB  ................      0.00    0.05             0.00    0.56             0.00    0.05
     1  CLSMAT  ................      0.01    0.12             0.00    0.00             0.01    0.11
     1  ORTHON  ................      0.01    0.12             0.00    0.00             0.01    0.13
     1  GENPT   ................      0.09    1.54             0.01    3.33             0.10    1.53
     1  PTBAS   ................      0.03    0.52             0.00    0.00             0.03    0.47
    20  FOCKY   ................      0.10   36.27             0.00    8.33             0.11   33.86
    20  FOCKTR  ................      0.00    0.49             0.00    0.56             0.00    0.59
    20  SDIIS   ................      0.00    1.33             0.00    1.67             0.00    1.27
     1  COREPS  ................      0.09    1.58             0.00    0.56             0.09    1.48
     1  TOTEN   ................      0.27    4.68             0.00    1.11             0.27    4.38
     1  POPAN   ................      0.00    0.05             0.00    0.56             0.01    0.13
     1  DEBYE   ................      0.00    0.03             0.00    0.00             0.00    0.02
     1  INPUTE  ................      0.00    0.00             0.00    0.00             0.00    0.02
     1  SYMORE  ................      0.00    0.02             0.00    0.00             0.00    0.02
     1  METS    ................      0.00    0.02             0.00    0.00             0.00    0.01
     1  CETS    ................      0.01    0.14             0.00    0.00             0.02    0.28
     1  POPUL   ................      2.57   44.55             0.10   54.44             2.69   43.02
     1  EXIT PROCEDURE .........      0.03    0.45             0.00    1.67             0.03    0.48


 Currently Open Files (EXIT00)
 ====================

 Unit    Access Format  Status   Type       Ident (file)
 -------------------------------------------------------
   3      SEQ    FORM   TRANSP  NORMAL      LOGFILE
                                          ( logfile )


 Buffered I/O statistics
 =======================
 Memory available:                     67108864
 Number of records fitting in memory:     16131
 Input :   1.0% of                        53929  *4k bytes
 Output:  10.1% of                         3942  *4k bytes
 Records from serial files evicted:           0
                    others evicted:           0
 Hash table lookups:     153508 with          0 conflicts (  0.00%)

 ***************************************************************************************************
 (LOGFILE)
 <May09-2019> <17:12:18>  ADF 2017  RunTime: May09-2019 17:12:18  Nodes: 1  Procs: 12
 <May09-2019> <17:12:19>  *** (NO TITLE) ***
 <May09-2019> <17:12:19>  RunType   : SINGLE POINT
 <May09-2019> <17:12:19>  Net Charge: -1 (Nuclei minus Electrons)
 <May09-2019> <17:12:19>  Symmetry  : NOSYM
 <May09-2019> <17:12:19>  >>>> FRAGM
  Coordinates
    Atom         X           Y           Z   (Angstrom)
    1.F        -4.906172    3.066843   -0.043381
    2.F        -3.964580    1.437625    0.073519
    3.Cl       -5.904628    4.794451   -0.167340
 <May09-2019> <17:12:19>  >>>> CORORT
 <May09-2019> <17:12:19>  >>>> CLSMAT
 <May09-2019> <17:12:19>  >>>> ORTHON
 <May09-2019> <17:12:19>  >>>> GENPT
 <May09-2019> <17:12:19>  Block Length= 128
 <May09-2019> <17:12:19>  >>>> PTBAS
 <May09-2019> <17:12:19>  >>>> CYCLE
 <May09-2019> <17:12:19>              |Error|         MaxErr       Wt(A-DIIS)
 <May09-2019> <17:12:19>      1      1.19516421      0.54773108
 <May09-2019> <17:12:19>      2      1.46169691      0.38723071    100.0
 <May09-2019> <17:12:19>      3      0.72342094      0.25630780    100.0
 <May09-2019> <17:12:20>      4      0.68818255      0.29951731    100.0
 <May09-2019> <17:12:20>      5      3.48475843      1.04172243    100.0
 <May09-2019> <17:12:20>      6      1.58638689      0.53622885    100.0
 <May09-2019> <17:12:20>      7      0.54075348      0.18174856    100.0
 <May09-2019> <17:12:20>      8      1.59819940      0.77634436    100.0
 <May09-2019> <17:12:20>      9      0.44909701      0.21643167    100.0
 <May09-2019> <17:12:20>     10      0.33915344      0.12532758    100.0
 <May09-2019> <17:12:20>     11      0.24643925      0.09669908     96.7
 <May09-2019> <17:12:20>     12      0.10390924      0.03670179     36.1
 <May09-2019> <17:12:21>     13      0.04458930      0.01691710     16.1
 <May09-2019> <17:12:21>     14      0.02513279      0.01088463     10.0
 <May09-2019> <17:12:21>     15      0.00898221      0.00338793      2.4
 <May09-2019> <17:12:21>     16      0.00049013      0.00017476      0.0
 <May09-2019> <17:12:21>     17      0.00002560      0.00000956      0.0
 <May09-2019> <17:12:21>     18      0.00000700      0.00000286      0.0
 <May09-2019> <17:12:21>     19      0.00000032      0.00000009      0.0
 <May09-2019> <17:12:21>  SCF converged
 <May09-2019> <17:12:21>     20      0.00000005      0.00000002      0.0
 <May09-2019> <17:12:21>  >>>> TOTEN
 <May09-2019> <17:12:22>  >>>> POPAN
 <May09-2019> <17:12:22>  >>>> DEBYE
 <May09-2019> <17:12:22>  >>>> AMETS
 <May09-2019> <17:12:24>   Bond Energy          -0.12715590 a.u.
 <May09-2019> <17:12:24>   Bond Energy          -3.46008802 eV
 <May09-2019> <17:12:24>   Bond Energy         -79.79       kcal/mol
 <May09-2019> <17:12:24>  >>>> POPUL
 <May09-2019> <17:12:24>  NORMAL TERMINATION
 <May09-2019> <17:12:24>  END
