

 Parallel Execution: Process Information
 ==============================================================================
 Rank   Node Name                              NodeID   MyNodeRank  NodeMaster
    0   BAZIS-cn076                               0          0          0
    1   BAZIS-cn076                               0          1         -1
    2   BAZIS-cn076                               0          2         -1
    3   BAZIS-cn076                               0          3         -1
    4   BAZIS-cn076                               0          4         -1
    5   BAZIS-cn076                               0          5         -1
    6   BAZIS-cn076                               0          6         -1
    7   BAZIS-cn076                               0          7         -1
    8   BAZIS-cn076                               0          8         -1
    9   BAZIS-cn076                               0          9         -1
   10   BAZIS-cn076                               0         10         -1
   11   BAZIS-cn076                               0         11         -1
 ==============================================================================


May use up to 30736MB of RAM as shared memory on node 0


XC
    GGA BP86
END

SCF
    iterations 250
END

EPRINT
    SFO Eig Ovl
END

ZLMFIT
    Quality normal
END

BECKEGRID
    Quality good
End

SYMMETRY nosym
CHARGE 0

ATOMS
H         1.254833    0.271086   -0.275011 f=NH3
N         0.787867   -0.626917   -0.446919 f=NH3
H         1.252342   -1.096767   -1.232857 f=NH3
H         0.878868   -1.213758    0.390614 f=NH3
B        -0.774043   -0.385438   -0.788960 f=BBr3
Br       -0.776665    0.766354   -2.444483 f=BBr3
Br       -1.536594   -2.228509   -1.085800 f=BBr3
Br       -1.532188    0.542239    0.832766 f=BBr3
END

Fragments
BBr3 /home/tcst25/advanced_comp_chemistry/exercise1/molecules/BBr3NH3/sp_frag1_BBr3.t21
NH3 /home/tcst25/advanced_comp_chemistry/exercise1/molecules/BBr3NH3/sp_frag2_NH3.t21
End
end input

 *******************************************************************************
 *                                                                             *
 *  -------------------------------------                                      *
 *   Amsterdam Density Functional  (ADF)         development version           *
 *  -------------------------------------                                      *
 *                                               r61132 2017-09-08             *
 *                                                                             *
 *                                                                             *
 *                              =================                              *
 *                              |               |                              *
 *                              |     A D F     |                              *
 *                              |               |                              *
 *                              =================                              *
 *                                                                             *
 *                                                                             *
 *   Online information and documentation:  https://www.scm.com/support/       *
 *   E-mail:  support@scm.com   info@scm.com                                   *
 *                                                                             *
 *   Scientific publications using ADF results must be properly referenced     *
 *   See the User Manuals (or the web site) for recommended citations          *
 *   The terms and conditions of the End User License Agreement apply to       *
 *   the use of ADF, https://www.scm.com/license-terms/                        *
 *                                                                             *
 **********************  x86_64_linux_intel / intelmpi  ************************
 
 Licensed to: VU/FEW (+ SARA) / ALGEMEEN / Amsterdam / THE NETHERLANDS
 SCM User ID: u7668
  
 ADF development version  RunTime: Apr18-2019 22:33:38  Nodes: 1  Procs: 12

 Temporary files are created in /local/datastore0/tcst25/186824/kid_0.907Nij


Communication costs MPI_COMM_WORLD:      2.543 usec per message,   0.0134 usec per 8-byte item
Communication costs for intra-node:      2.561 usec per message,   0.0134 usec per 8-byte item

 *** (NO TITLE) ***



 ===========================
 A T T A C H E D   F I L E S
 ===========================
  



 ===============================
 M O D E L   P A R A M E T E R S
 ===============================
  
 DENSITY FUNCTIONAL POTENTIAL (scf)
    LDA:                               VWN                                      
    Gradient Corrections:              Becke88 Perdew86                        == Not Default ==

 SPIN  (restricted / unrestr.)
    Molecule:                          Restricted                               
    Fragments:                         Restricted                               

 OTHER ASPECTS
    Relativistic Corrections:          ---                                      

    Nuclear Charge Density Model:      Point Charge Nuclei                      
    Core Treatment:                    Frozen Orbital(s)                        

    Hyperfine or Zeeman Interaction:   ---                                      


 Fragment File(s)
 ----------------
 NH3:
         file : /home/tcst25/advanced_comp_chemistry/exercise1/molecules/BBr3NH3/sp_frag2_NH3.t21
         jobid: ADF development version  RunTime: Apr18-2019 21:55:49  Nodes: 1  Procs: 12
         title: *** (NO TITLE) ***
 BBr3:
         file : /home/tcst25/advanced_comp_chemistry/exercise1/molecules/BBr3NH3/sp_frag1_BBr3.t21
         jobid: ADF development version  RunTime: Apr18-2019 21:55:26  Nodes: 1  Procs: 12
         title: *** (NO TITLE) ***



                                        ************************************
                                        *  R U N   T Y P E : SINGLE POINT  *
                                        ************************************
  



 ===============
 G E O M E T R Y  ***  3D  Molecule  ***
 ===============
  

 ATOMS
 =====                            X Y Z                    CHARGE
                                (Angstrom)             Nucl     +Core       At.Mass
                       --------------------------    ----------------       -------
    1  H               1.2548    0.2711   -0.2750      1.00      1.00        1.0078
    2  N               0.7879   -0.6269   -0.4469      7.00      7.00       14.0031
    3  H               1.2523   -1.0968   -1.2329      1.00      1.00        1.0078
    4  H               0.8789   -1.2138    0.3906      1.00      1.00        1.0078
    5  B              -0.7740   -0.3854   -0.7890      5.00      5.00       11.0093
    6  Br             -0.7767    0.7664   -2.4445     35.00     35.00       78.9183
    7  Br             -1.5366   -2.2285   -1.0858     35.00     35.00       78.9183
    8  Br             -1.5322    0.5422    0.8328     35.00     35.00       78.9183


 FRAGMENTS
 =========                                     Atoms in this Fragment     Cart. coord.s (Angstrom)
                                               -------------------------------------------------------
    1  NH3                                               1  H            1.2548    0.2711   -0.2750
                                                         3  H            1.2523   -1.0968   -1.2329
                                                         4  H            0.8789   -1.2138    0.3906
                                                         2  N            0.7879   -0.6269   -0.4469
    2  BBr3                                              5  B           -0.7740   -0.3854   -0.7890
                                                         6  Br          -0.7767    0.7664   -2.4445
                                                         7  Br          -1.5366   -2.2285   -1.0858
                                                         8  Br          -1.5322    0.5422    0.8328


 Interatomic Distance Matrix (Angstrom)
 --------------------------------------

   1)     0.000
   2)     1.027   0.000
   3)     1.670   1.027   0.000
   4)     1.670   1.027   1.670   0.000
   5)     2.194   1.617   2.193   2.193   0.000
   6)     3.013   2.895   3.009   3.834   2.017   0.000
   7)     3.834   2.894   3.013   3.007   2.017   3.375   0.000
   8)     3.011   2.896   3.835   3.015   2.016   3.371   3.370   0.000

 Min. Distance =    1.0267
 Max. Distance =    3.8349



 =====================================
 S Y M M E T R Y ,   E L E C T R O N S
 =====================================
  
 Symmetry: NOSYM

 Irreducible Representations, including subspecies
 -------------------------------------------------
 A


 Configuration of Valence Electrons
 ==================================
 ( determined in the SCF procedure )

 Total:   120

 Net Charge: 0 (Nuclei minus Electrons)

 Aufbau principle for MO occupations will be applied through SCF cycle no.     125
 Thereafter, the program will assign electrons to MOs that are spatially
 similar to the occupied MOs in a "reference" cycle ("KeepOrbitals").
 The reference cycle is always the PREVIOUS cycle: it will evolve with
 the SCF procedure.
1
 ***************************************************************************************************



                                      ****************************************
                                      *  B U I L D : (Fragments, Functions)  *
                                      ****************************************
  

 The individual fragments are copies of the corresponding 'Master' fragments defined on the fragment files.
 However, they may have been rotated (and translated) with respect to the Master. The local coordinate axes
 of each fragment (which define for instance the spatial orientation in the current molecule of a fragment
 P:x orbital) are not necessarily those of the molecule.
 The local frame (if different from the molecular one) is printed to enable an interpretation of the expan-
 sion of an MO in Fragment Orbitals.



                                             *************************
                                             *  Fragment Type : NH3  *
                                             *************************
  

 Fragment no.    1   (in the list of all fragments)
 -----------------
 The local coordinate frame is identical to the molecular frame.

 Check Atomic Coordinates:

                  Master (on file)          After Computed Tranformation               As specified on Input
           ----------------------------     ----------------------------     ---------------------------------
     1)     1.25483   0.27109  -0.27501      1.25483   0.27109  -0.27501       1   1.25483   0.27109  -0.27501
     2)     1.25234  -1.09677  -1.23286      1.25234  -1.09677  -1.23286       3   1.25234  -1.09677  -1.23286
     3)     0.87887  -1.21376   0.39061      0.87887  -1.21376   0.39061       4   0.87887  -1.21376   0.39061
     4)     0.78787  -0.62692  -0.44692      0.78787  -0.62692  -0.44692       2   0.78787  -0.62692  -0.44692



                                             **************************
                                             *  Fragment Type : BBr3  *
                                             **************************
  

 Fragment no.    2   (in the list of all fragments)
 -----------------
 The local coordinate frame is identical to the molecular frame.

 Check Atomic Coordinates:

                  Master (on file)          After Computed Tranformation               As specified on Input
           ----------------------------     ----------------------------     ---------------------------------
     1)    -0.77404  -0.38544  -0.78896     -0.77404  -0.38544  -0.78896       5  -0.77404  -0.38544  -0.78896
     2)    -0.77667   0.76635  -2.44448     -0.77667   0.76635  -2.44448       6  -0.77667   0.76635  -2.44448
     3)    -1.53659  -2.22851  -1.08580     -1.53659  -2.22851  -1.08580       7  -1.53659  -2.22851  -1.08580
     4)    -1.53219   0.54224   0.83277     -1.53219   0.54224   0.83277       8  -1.53219   0.54224   0.83277



 =======
 S F O s  ***  (Symmetrized Fragment Orbitals)  ***
 =======
  
 SFOs are linear combinations of (valence) Fragment Orbitals (FOs), such that the SFOs transform as the
 irreducible representations of the (molecular) symmetry group. Each SFO is therefore characterized by
 an irrep of the molecule and by a few (or only one) generating FOs.
 The SFOs constitute a symmetry-adapted basis for the Fock matrix. The MO eigenvector coefficients in
 this basis provide a direct interpretation of the MOs in terms of Frontier Orbital Theory.

 The SFOs are combined with auxiliary Core Functions (CFs) to ensure orthogonalization on the (frozen)
 Core Orbitals (COs). The Core-orthogonalized SFOs (CSFOs) constitute the true Fock basis.

 The FOs, and hence also the (C)SFOs are combinations of the elementary basis functions (BAS). The basis
 functions that participate in the description of the SFOs depend on the irrep. The indices of the
 involved functions are printed below for each irrep.
 (The complete list of primitive basis functions is printed in another section)

 Total nr. of (C)SFOs (summation over all irreps) :   253

 NOTE: a (C)SFO that is defined as a combination of more than one FO is usually NOT normalized.



                                       === A ===
 Nr. of SFOs :  253
 Cartesian basis functions that participate in this irrep (total number =   285) :
      1     2     3     4     5     6     7     8     9    10
     11    12    13    14    15    16    17    18    19    20
     21    22    23    24    25    26    27    28    29    30
     31    32    33    34    35    36    37    38    39    40
     41    42    45    48    43    46    49    44    47    50
     51    52    53    54    55    56    57    58    59    60
     61    62    63    64    65    66    67    68    69    70
     71    72    75    78    73    76    79    74    77    80
     81    82    83    84    85    86    87    88    89    90
     91    92    93    94    95    96    97    98    99   106
    107   132   133   134   100   103   108   111   135   138
    141   101   104   109   112   136   139   142   102   105
    110   113   137   140   143   114   120   126   144   115
    121   127   145   116   122   128   146   117   123   129
    147   118   124   130   148   119   125   131   149   150
    151   152   153   154   155   156   157   158   159   160
    161   162   169   170   195   196   197   163   166   171
    174   198   201   204   164   167   172   175   199   202
    205   165   168   173   176   200   203   206   177   183
    189   207   178   184   190   208   179   185   191   209
    180   186   192   210   181   187   193   211   182   188
    194   212   213   214   215   216   217   218   219   220
    221   222   223   224   225   232   233   258   259   260
    226   229   234   237   261   264   267   227   230   235
    238   262   265   268   228   231   236   239   263   266
    269   240   246   252   270   241   247   253   271   242
    248   254   272   243   249   255   273   244   250   256
    274   245   251   257   275   276   277   278   279   280
    281   282   283   284   285

    SFO  (index         Fragment          Generating    Expansion in Fragment Orbitals
  indx  incl.CFs)   Occup   Orb.Energy   FragmentType  Coeff.   Orbital     on Fragment
 --------------------------------------------------------------------------------------
     1       1      2.000     -13.984 au  NH3           1.00      1 A               1
                        (    -380.530 eV)
     2       2      2.000      -0.774 au  NH3           1.00      2 A               1
                        (     -21.061 eV)
     3       3      2.000      -0.419 au  NH3           1.00      3 A               1
                        (     -11.398 eV)
     4       4      2.000      -0.419 au  NH3           1.00      4 A               1
                        (     -11.397 eV)
     5       5      2.000      -0.225 au  NH3           1.00      5 A               1
                        (      -6.134 eV)
     6       6       --        -0.011 au  NH3           1.00      6 A               1
                        (      -0.299 eV)
     7       7       --         0.059 au  NH3           1.00      7 A               1
                        (       1.616 eV)
     8       8       --         0.059 au  NH3           1.00      8 A               1
                        (       1.616 eV)
     9       9       --         0.206 au  NH3           1.00      9 A               1
                        (       5.604 eV)
    10      10       --         0.206 au  NH3           1.00     10 A               1
                        (       5.605 eV)
    11      11       --         0.243 au  NH3           1.00     11 A               1
                        (       6.611 eV)
    12      12       --         0.284 au  NH3           1.00     12 A               1
                        (       7.724 eV)
    13      13       --         0.433 au  NH3           1.00     13 A               1
                        (      11.772 eV)
    14      14       --         0.433 au  NH3           1.00     14 A               1
                        (      11.773 eV)
    15      15       --         0.450 au  NH3           1.00     15 A               1
                        (      12.244 eV)
    16      16       --         0.450 au  NH3           1.00     16 A               1
                        (      12.246 eV)
    17      17       --         0.606 au  NH3           1.00     17 A               1
                        (      16.500 eV)
    18      18       --         0.863 au  NH3           1.00     18 A               1
                        (      23.489 eV)
    19      19       --         1.033 au  NH3           1.00     19 A               1
                        (      28.102 eV)
    20      20       --         1.033 au  NH3           1.00     20 A               1
                        (      28.104 eV)
    21      21       --         1.101 au  NH3           1.00     21 A               1
                        (      29.971 eV)
    22      22       --         1.185 au  NH3           1.00     22 A               1
                        (      32.251 eV)
    23      23       --         1.185 au  NH3           1.00     23 A               1
                        (      32.254 eV)
    24      24       --         1.369 au  NH3           1.00     24 A               1
                        (      37.263 eV)
    25      25       --         1.554 au  NH3           1.00     25 A               1
                        (      42.285 eV)
    26      26       --         1.803 au  NH3           1.00     26 A               1
                        (      49.054 eV)
    27      27       --         1.803 au  NH3           1.00     27 A               1
                        (      49.055 eV)
    28      28       --         2.014 au  NH3           1.00     28 A               1
                        (      54.814 eV)
    29      29       --         2.026 au  NH3           1.00     29 A               1
                        (      55.120 eV)
    30      30       --         2.026 au  NH3           1.00     30 A               1
                        (      55.122 eV)
    31      31       --         2.277 au  NH3           1.00     31 A               1
                        (      61.959 eV)
    32      32       --         2.277 au  NH3           1.00     32 A               1
                        (      61.963 eV)
    33      33       --         2.556 au  NH3           1.00     33 A               1
                        (      69.542 eV)
    34      34       --         2.897 au  NH3           1.00     34 A               1
                        (      78.842 eV)
    35      35       --         2.908 au  NH3           1.00     35 A               1
                        (      79.131 eV)
    36      36       --         2.908 au  NH3           1.00     36 A               1
                        (      79.138 eV)
    37      37       --         3.036 au  NH3           1.00     37 A               1
                        (      82.621 eV)
    38      38       --         3.037 au  NH3           1.00     38 A               1
                        (      82.629 eV)
    39      39       --         3.593 au  NH3           1.00     39 A               1
                        (      97.773 eV)
    40      40       --         3.638 au  NH3           1.00     40 A               1
                        (      98.994 eV)
    41      41       --         3.638 au  NH3           1.00     41 A               1
                        (      98.999 eV)
    42      42       --         3.702 au  NH3           1.00     42 A               1
                        (     100.723 eV)
    43      43       --         4.217 au  NH3           1.00     43 A               1
                        (     114.754 eV)
    44      44       --         4.217 au  NH3           1.00     44 A               1
                        (     114.757 eV)
    45      45       --         4.596 au  NH3           1.00     45 A               1
                        (     125.062 eV)
    46      46       --         4.670 au  NH3           1.00     46 A               1
                        (     127.086 eV)
    47      47       --         4.835 au  NH3           1.00     47 A               1
                        (     131.572 eV)
    48      48       --         4.835 au  NH3           1.00     48 A               1
                        (     131.574 eV)
    49      49       --         5.169 au  NH3           1.00     49 A               1
                        (     140.662 eV)
    50      50       --         5.169 au  NH3           1.00     50 A               1
                        (     140.665 eV)
    51      51       --         5.798 au  NH3           1.00     51 A               1
                        (     157.761 eV)
    52      52       --         6.020 au  NH3           1.00     52 A               1
                        (     163.823 eV)
    53      53       --         6.517 au  NH3           1.00     53 A               1
                        (     177.342 eV)
    54      54       --         6.517 au  NH3           1.00     54 A               1
                        (     177.346 eV)
    55      55       --         6.758 au  NH3           1.00     55 A               1
                        (     183.883 eV)
    56      56       --         8.093 au  NH3           1.00     56 A               1
                        (     220.230 eV)
    57      57       --         8.094 au  NH3           1.00     57 A               1
                        (     220.241 eV)
    58      58       --         8.940 au  NH3           1.00     58 A               1
                        (     243.274 eV)
    59      59       --        69.880 au  NH3           1.00     59 A               1
                        (    1901.531 eV)
    60      60      2.000    -481.036 au  BBr3          1.00      1 A               2
                        (  -13089.649 eV)
    61      61      2.000    -481.036 au  BBr3          1.00      2 A               2
                        (  -13089.648 eV)
    62      62      2.000    -481.036 au  BBr3          1.00      3 A               2
                        (  -13089.646 eV)
    63      63      2.000     -61.785 au  BBr3          1.00      4 A               2
                        (   -1681.258 eV)
    64      64      2.000     -61.785 au  BBr3          1.00      5 A               2
                        (   -1681.257 eV)
    65      65      2.000     -61.785 au  BBr3          1.00      6 A               2
                        (   -1681.256 eV)
    66      66      2.000     -55.706 au  BBr3          1.00      7 A               2
                        (   -1515.836 eV)
    67      67      2.000     -55.706 au  BBr3          1.00      8 A               2
                        (   -1515.835 eV)
    68      68      2.000     -55.706 au  BBr3          1.00      9 A               2
                        (   -1515.834 eV)
    69      69      2.000     -55.703 au  BBr3          1.00     10 A               2
                        (   -1515.760 eV)
    70      70      2.000     -55.703 au  BBr3          1.00     11 A               2
                        (   -1515.759 eV)
    71      71      2.000     -55.703 au  BBr3          1.00     12 A               2
                        (   -1515.758 eV)
    72      72      2.000     -55.702 au  BBr3          1.00     13 A               2
                        (   -1515.738 eV)
    73      73      2.000     -55.702 au  BBr3          1.00     14 A               2
                        (   -1515.737 eV)
    74      74      2.000     -55.702 au  BBr3          1.00     15 A               2
                        (   -1515.736 eV)
    75      75      2.000      -8.413 au  BBr3          1.00     16 A               2
                        (    -228.922 eV)
    76      76      2.000      -8.413 au  BBr3          1.00     17 A               2
                        (    -228.921 eV)
    77      77      2.000      -8.413 au  BBr3          1.00     18 A               2
                        (    -228.920 eV)
    78      78      2.000      -6.695 au  BBr3          1.00     19 A               2
                        (    -182.183 eV)
    79      79      2.000      -6.315 au  BBr3          1.00     20 A               2
                        (    -171.828 eV)
    80      80      2.000      -6.315 au  BBr3          1.00     21 A               2
                        (    -171.828 eV)
    81      81      2.000      -6.315 au  BBr3          1.00     22 A               2
                        (    -171.826 eV)
    82      82      2.000      -6.307 au  BBr3          1.00     23 A               2
                        (    -171.611 eV)
    83      83      2.000      -6.307 au  BBr3          1.00     24 A               2
                        (    -171.611 eV)
    84      84      2.000      -6.307 au  BBr3          1.00     25 A               2
                        (    -171.610 eV)
    85      85      2.000      -6.304 au  BBr3          1.00     26 A               2
                        (    -171.549 eV)
    86      86      2.000      -6.304 au  BBr3          1.00     27 A               2
                        (    -171.548 eV)
    87      87      2.000      -6.304 au  BBr3          1.00     28 A               2
                        (    -171.547 eV)
    88      88      2.000      -2.518 au  BBr3          1.00     29 A               2
                        (     -68.509 eV)
    89      89      2.000      -2.518 au  BBr3          1.00     30 A               2
                        (     -68.508 eV)
    90      90      2.000      -2.518 au  BBr3          1.00     31 A               2
                        (     -68.507 eV)
    91      91      2.000      -2.516 au  BBr3          1.00     32 A               2
                        (     -68.463 eV)
    92      92      2.000      -2.516 au  BBr3          1.00     33 A               2
                        (     -68.462 eV)
    93      93      2.000      -2.516 au  BBr3          1.00     34 A               2
                        (     -68.461 eV)
    94      94      2.000      -2.514 au  BBr3          1.00     35 A               2
                        (     -68.417 eV)
    95      95      2.000      -2.514 au  BBr3          1.00     36 A               2
                        (     -68.416 eV)
    96      96      2.000      -2.514 au  BBr3          1.00     37 A               2
                        (     -68.415 eV)
    97      97      2.000      -2.508 au  BBr3          1.00     38 A               2
                        (     -68.257 eV)
    98      98      2.000      -2.508 au  BBr3          1.00     39 A               2
                        (     -68.256 eV)
    99      99      2.000      -2.508 au  BBr3          1.00     40 A               2
                        (     -68.255 eV)
   100     100      2.000      -2.508 au  BBr3          1.00     41 A               2
                        (     -68.254 eV)
   101     101      2.000      -2.508 au  BBr3          1.00     42 A               2
                        (     -68.253 eV)
   102     102      2.000      -2.508 au  BBr3          1.00     43 A               2
                        (     -68.252 eV)
   103     103      2.000      -0.761 au  BBr3          1.00     44 A               2
                        (     -20.696 eV)
   104     104      2.000      -0.726 au  BBr3          1.00     45 A               2
                        (     -19.758 eV)
   105     105      2.000      -0.726 au  BBr3          1.00     46 A               2
                        (     -19.755 eV)
   106     106      2.000      -0.470 au  BBr3          1.00     47 A               2
                        (     -12.794 eV)
   107     107      2.000      -0.380 au  BBr3          1.00     48 A               2
                        (     -10.332 eV)
   108     108      2.000      -0.380 au  BBr3          1.00     49 A               2
                        (     -10.328 eV)
   109     109      2.000      -0.338 au  BBr3          1.00     50 A               2
                        (      -9.186 eV)
   110     110      2.000      -0.299 au  BBr3          1.00     51 A               2
                        (      -8.133 eV)
   111     111      2.000      -0.299 au  BBr3          1.00     52 A               2
                        (      -8.130 eV)
   112     112      2.000      -0.282 au  BBr3          1.00     53 A               2
                        (      -7.673 eV)
   113     113      2.000      -0.282 au  BBr3          1.00     54 A               2
                        (      -7.669 eV)
   114     114      2.000      -0.266 au  BBr3          1.00     55 A               2
                        (      -7.246 eV)
   115     115       --        -0.166 au  BBr3          1.00     56 A               2
                        (      -4.519 eV)
   116     116       --        -0.053 au  BBr3          1.00     57 A               2
                        (      -1.444 eV)
   117     117       --        -0.018 au  BBr3          1.00     58 A               2
                        (      -0.483 eV)
   118     118       --        -0.018 au  BBr3          1.00     59 A               2
                        (      -0.478 eV)
   119     119       --         0.070 au  BBr3          1.00     60 A               2
                        (       1.901 eV)
   120     120       --         0.070 au  BBr3          1.00     61 A               2
                        (       1.905 eV)
   121     121       --         0.091 au  BBr3          1.00     62 A               2
                        (       2.477 eV)
   122     122       --         0.107 au  BBr3          1.00     63 A               2
                        (       2.904 eV)
   123     123       --         0.137 au  BBr3          1.00     64 A               2
                        (       3.722 eV)
   124     124       --         0.137 au  BBr3          1.00     65 A               2
                        (       3.723 eV)
   125     125       --         0.151 au  BBr3          1.00     66 A               2
                        (       4.103 eV)
   126     126       --         0.160 au  BBr3          1.00     67 A               2
                        (       4.345 eV)
   127     127       --         0.160 au  BBr3          1.00     68 A               2
                        (       4.348 eV)
   128     128       --         0.178 au  BBr3          1.00     69 A               2
                        (       4.855 eV)
   129     129       --         0.179 au  BBr3          1.00     70 A               2
                        (       4.861 eV)
   130     130       --         0.189 au  BBr3          1.00     71 A               2
                        (       5.148 eV)
   131     131       --         0.195 au  BBr3          1.00     72 A               2
                        (       5.297 eV)
   132     132       --         0.195 au  BBr3          1.00     73 A               2
                        (       5.300 eV)
   133     133       --         0.197 au  BBr3          1.00     74 A               2
                        (       5.360 eV)
   134     134       --         0.224 au  BBr3          1.00     75 A               2
                        (       6.100 eV)
   135     135       --         0.257 au  BBr3          1.00     76 A               2
                        (       6.991 eV)
   136     136       --         0.257 au  BBr3          1.00     77 A               2
                        (       7.001 eV)
   137     137       --         0.291 au  BBr3          1.00     78 A               2
                        (       7.912 eV)
   138     138       --         0.312 au  BBr3          1.00     79 A               2
                        (       8.494 eV)
   139     139       --         0.313 au  BBr3          1.00     80 A               2
                        (       8.505 eV)
   140     140       --         0.367 au  BBr3          1.00     81 A               2
                        (       9.977 eV)
   141     141       --         0.420 au  BBr3          1.00     82 A               2
                        (      11.427 eV)
   142     142       --         0.420 au  BBr3          1.00     83 A               2
                        (      11.432 eV)
   143     143       --         0.446 au  BBr3          1.00     84 A               2
                        (      12.127 eV)
   144     144       --         0.464 au  BBr3          1.00     85 A               2
                        (      12.632 eV)
   145     145       --         0.464 au  BBr3          1.00     86 A               2
                        (      12.635 eV)
   146     146       --         0.508 au  BBr3          1.00     87 A               2
                        (      13.819 eV)
   147     147       --         0.605 au  BBr3          1.00     88 A               2
                        (      16.451 eV)
   148     148       --         0.616 au  BBr3          1.00     89 A               2
                        (      16.755 eV)
   149     149       --         0.616 au  BBr3          1.00     90 A               2
                        (      16.762 eV)
   150     150       --         0.750 au  BBr3          1.00     91 A               2
                        (      20.402 eV)
   151     151       --         0.750 au  BBr3          1.00     92 A               2
                        (      20.404 eV)
   152     152       --         0.783 au  BBr3          1.00     93 A               2
                        (      21.306 eV)
   153     153       --         0.783 au  BBr3          1.00     94 A               2
                        (      21.319 eV)
   154     154       --         0.797 au  BBr3          1.00     95 A               2
                        (      21.696 eV)
   155     155       --         0.820 au  BBr3          1.00     96 A               2
                        (      22.316 eV)
   156     156       --         0.828 au  BBr3          1.00     97 A               2
                        (      22.524 eV)
   157     157       --         0.828 au  BBr3          1.00     98 A               2
                        (      22.532 eV)
   158     158       --         0.856 au  BBr3          1.00     99 A               2
                        (      23.284 eV)
   159     159       --         0.856 au  BBr3          1.00    100 A               2
                        (      23.294 eV)
   160     160       --         0.895 au  BBr3          1.00    101 A               2
                        (      24.368 eV)
   161     161       --         0.898 au  BBr3          1.00    102 A               2
                        (      24.436 eV)
   162     162       --         0.906 au  BBr3          1.00    103 A               2
                        (      24.641 eV)
   163     163       --         0.906 au  BBr3          1.00    104 A               2
                        (      24.655 eV)
   164     164       --         0.938 au  BBr3          1.00    105 A               2
                        (      25.535 eV)
   165     165       --         0.939 au  BBr3          1.00    106 A               2
                        (      25.551 eV)
   166     166       --         0.950 au  BBr3          1.00    107 A               2
                        (      25.839 eV)
   167     167       --         0.987 au  BBr3          1.00    108 A               2
                        (      26.847 eV)
   168     168       --         1.054 au  BBr3          1.00    109 A               2
                        (      28.682 eV)
   169     169       --         1.054 au  BBr3          1.00    110 A               2
                        (      28.689 eV)
   170     170       --         1.115 au  BBr3          1.00    111 A               2
                        (      30.334 eV)
   171     171       --         1.231 au  BBr3          1.00    112 A               2
                        (      33.507 eV)
   172     172       --         1.232 au  BBr3          1.00    113 A               2
                        (      33.511 eV)
   173     173       --         1.241 au  BBr3          1.00    114 A               2
                        (      33.768 eV)
   174     174       --         1.272 au  BBr3          1.00    115 A               2
                        (      34.600 eV)
   175     175       --         1.272 au  BBr3          1.00    116 A               2
                        (      34.619 eV)
   176     176       --         1.356 au  BBr3          1.00    117 A               2
                        (      36.893 eV)
   177     177       --         1.389 au  BBr3          1.00    118 A               2
                        (      37.794 eV)
   178     178       --         1.407 au  BBr3          1.00    119 A               2
                        (      38.283 eV)
   179     179       --         1.407 au  BBr3          1.00    120 A               2
                        (      38.287 eV)
   180     180       --         1.673 au  BBr3          1.00    121 A               2
                        (      45.517 eV)
   181     181       --         1.673 au  BBr3          1.00    122 A               2
                        (      45.529 eV)
   182     182       --         1.835 au  BBr3          1.00    123 A               2
                        (      49.928 eV)
   183     183       --         1.950 au  BBr3          1.00    124 A               2
                        (      53.056 eV)
   184     184       --         1.950 au  BBr3          1.00    125 A               2
                        (      53.070 eV)
   185     185       --         2.123 au  BBr3          1.00    126 A               2
                        (      57.762 eV)
   186     186       --         2.539 au  BBr3          1.00    127 A               2
                        (      69.097 eV)
   187     187       --         2.558 au  BBr3          1.00    128 A               2
                        (      69.609 eV)
   188     188       --         2.558 au  BBr3          1.00    129 A               2
                        (      69.613 eV)
   189     189       --         2.668 au  BBr3          1.00    130 A               2
                        (      72.613 eV)
   190     190       --         2.676 au  BBr3          1.00    131 A               2
                        (      72.818 eV)
   191     191       --         2.676 au  BBr3          1.00    132 A               2
                        (      72.819 eV)
   192     192       --         2.722 au  BBr3          1.00    133 A               2
                        (      74.077 eV)
   193     193       --         2.723 au  BBr3          1.00    134 A               2
                        (      74.097 eV)
   194     194       --         2.757 au  BBr3          1.00    135 A               2
                        (      75.013 eV)
   195     195       --         2.861 au  BBr3          1.00    136 A               2
                        (      77.839 eV)
   196     196       --         2.861 au  BBr3          1.00    137 A               2
                        (      77.859 eV)
   197     197       --         2.912 au  BBr3          1.00    138 A               2
                        (      79.228 eV)
   198     198       --         2.936 au  BBr3          1.00    139 A               2
                        (      79.888 eV)
   199     199       --         2.936 au  BBr3          1.00    140 A               2
                        (      79.893 eV)
   200     200       --         3.031 au  BBr3          1.00    141 A               2
                        (      82.472 eV)
   201     201       --         3.090 au  BBr3          1.00    142 A               2
                        (      84.083 eV)
   202     202       --         3.091 au  BBr3          1.00    143 A               2
                        (      84.118 eV)
   203     203       --         3.184 au  BBr3          1.00    144 A               2
                        (      86.650 eV)
   204     204       --         3.572 au  BBr3          1.00    145 A               2
                        (      97.204 eV)
   205     205       --         3.573 au  BBr3          1.00    146 A               2
                        (      97.218 eV)
   206     206       --         3.640 au  BBr3          1.00    147 A               2
                        (      99.056 eV)
   207     207       --         3.664 au  BBr3          1.00    148 A               2
                        (      99.709 eV)
   208     208       --         3.759 au  BBr3          1.00    149 A               2
                        (     102.285 eV)
   209     209       --         3.760 au  BBr3          1.00    150 A               2
                        (     102.316 eV)
   210     210       --         3.994 au  BBr3          1.00    151 A               2
                        (     108.696 eV)
   211     211       --         4.132 au  BBr3          1.00    152 A               2
                        (     112.441 eV)
   212     212       --         4.134 au  BBr3          1.00    153 A               2
                        (     112.489 eV)
   213     213       --         4.708 au  BBr3          1.00    154 A               2
                        (     128.105 eV)
   214     214       --         8.885 au  BBr3          1.00    155 A               2
                        (     241.770 eV)
   215     215       --         8.885 au  BBr3          1.00    156 A               2
                        (     241.787 eV)
   216     216       --         8.926 au  BBr3          1.00    157 A               2
                        (     242.881 eV)
   217     217       --         8.971 au  BBr3          1.00    158 A               2
                        (     244.100 eV)
   218     218       --         8.971 au  BBr3          1.00    159 A               2
                        (     244.119 eV)
   219     219       --         9.056 au  BBr3          1.00    160 A               2
                        (     246.420 eV)
   220     220       --         9.352 au  BBr3          1.00    161 A               2
                        (     254.489 eV)
   221     221       --         9.354 au  BBr3          1.00    162 A               2
                        (     254.528 eV)
   222     222       --         9.381 au  BBr3          1.00    163 A               2
                        (     255.280 eV)
   223     223       --        15.067 au  BBr3          1.00    164 A               2
                        (     409.984 eV)
   224     224       --        15.210 au  BBr3          1.00    165 A               2
                        (     413.881 eV)
   225     225       --        15.210 au  BBr3          1.00    166 A               2
                        (     413.886 eV)
   226     226       --        20.583 au  BBr3          1.00    167 A               2
                        (     560.099 eV)
   227     227       --        20.597 au  BBr3          1.00    168 A               2
                        (     560.469 eV)
   228     228       --        20.597 au  BBr3          1.00    169 A               2
                        (     560.473 eV)
   229     229       --        20.641 au  BBr3          1.00    170 A               2
                        (     561.678 eV)
   230     230       --        20.642 au  BBr3          1.00    171 A               2
                        (     561.698 eV)
   231     231       --        20.710 au  BBr3          1.00    172 A               2
                        (     563.549 eV)
   232     232       --        20.811 au  BBr3          1.00    173 A               2
                        (     566.306 eV)
   233     233       --        20.813 au  BBr3          1.00    174 A               2
                        (     566.339 eV)
   234     234       --        20.916 au  BBr3          1.00    175 A               2
                        (     569.141 eV)
   235     235       --        21.089 au  BBr3          1.00    176 A               2
                        (     573.848 eV)
   236     236       --        21.090 au  BBr3          1.00    177 A               2
                        (     573.902 eV)
   237     237       --        21.179 au  BBr3          1.00    178 A               2
                        (     576.314 eV)
   238     238       --        21.340 au  BBr3          1.00    179 A               2
                        (     580.689 eV)
   239     239       --        21.498 au  BBr3          1.00    180 A               2
                        (     584.990 eV)
   240     240       --        21.499 au  BBr3          1.00    181 A               2
                        (     585.016 eV)
   241     241       --        30.524 au  BBr3          1.00    182 A               2
                        (     830.610 eV)
   242     242       --       101.008 au  BBr3          1.00    183 A               2
                        (    2748.568 eV)
   243     243       --       101.009 au  BBr3          1.00    184 A               2
                        (    2748.600 eV)
   244     244       --       101.093 au  BBr3          1.00    185 A               2
                        (    2750.883 eV)
   245     245       --       101.191 au  BBr3          1.00    186 A               2
                        (    2753.538 eV)
   246     246       --       101.192 au  BBr3          1.00    187 A               2
                        (    2753.574 eV)
   247     247       --       101.376 au  BBr3          1.00    188 A               2
                        (    2758.588 eV)
   248     248       --       102.011 au  BBr3          1.00    189 A               2
                        (    2775.856 eV)
   249     249       --       102.014 au  BBr3          1.00    190 A               2
                        (    2775.931 eV)
   250     250       --       102.145 au  BBr3          1.00    191 A               2
                        (    2779.508 eV)
   251     251       --       750.056 au  BBr3          1.00    192 A               2
                        (   20410.072 eV)
   252     252       --       750.495 au  BBr3          1.00    193 A               2
                        (   20422.020 eV)
   253     253       --       750.497 au  BBr3          1.00    194 A               2
                        (   20422.051 eV)



 ================================
 (Slater-type)  F U N C T I O N S  ***  (Basis and Fit)  ***
 ================================
  

 Atom Type    1  (H)
 ==============

 Valence Basis Sets:   5
 -----------------------
   1 S    0.690000
   1 S    0.920000
   1 S    1.580000
   2 P    1.250000
   3 D    2.500000

 Atom Type    2  (N)
 ==============

 Valence Basis Sets:  10
 -----------------------
   1 S    8.740000
   1 S    5.900000
   2 S    5.150000
   2 S    2.500000
   2 S    1.500000
   2 P    3.680000
   2 P    1.880000
   2 P    1.000000
   3 D    2.200000
   4 F    3.300000

 Atom Type    3  (B)
 ==============

 Valence Basis Sets:  10
 -----------------------
   1 S    6.500000
   1 S    4.080000
   2 S    2.800000
   2 S    1.700000
   2 S    1.040000
   2 P    2.600000
   2 P    1.260000
   2 P    0.680000
   3 D    2.000000
   4 F    3.000000

 Atom Type    4  (Br)
 ==============

 Valence Basis Sets:  20
 -----------------------
   1 S   41.300000
   1 S   32.800000
   2 S   13.900000
   2 P   19.450000
   2 P   13.100000
   3 S    7.200000
   3 S    4.950000
   3 P    7.900000
   3 P    5.050000
   3 D   10.900000
   3 D    6.050000
   3 D    3.500000
   4 S    4.500000
   4 S    2.800000
   4 S    1.800000
   4 P    3.250000
   4 P    1.950000
   4 P    1.200000
   4 D    1.800000
   4 F    1.800000


 BAS: List of all Elementary Cartesian Basis Functions
 =====================================================

 The numbering in the list below (to the right of the function characteristics) is referred
 to in print-outs of MO eigenvectors and Mulliken populations in the BAS representation
 (as contrasted to the SFO representation).

 Notes:
 1. The functions are characterized by a polynomial prefactor (powers of x,y,z and r) and
    an exponential decay factor alpha.
 2. Since the basis sets are specific for an atom TYPE, the individual functions occur on
    all atoms of that type.
 3. The word 'Core' in the left margin signals that it is a Core Function (CF) : not a
    degree of freedom in the valence set, but only used to ensure orthogonalization of
    the other valence basis functions on the frozen Core Orbitals.


 (power of) X  Y  Z  R     Alpha  on Atom
            ==========     =====     ==========

 H                                    1    2    3
                                  ---------------------------------------------------------------------------
            0  0  0  0     0.690      1   13   25
            0  0  0  0     0.920      2   14   26
            0  0  0  0     1.580      3   15   27
            1  0  0  0     1.250      4   16   28
            0  1  0  0     1.250      5   17   29
            0  0  1  0     1.250      6   18   30
            2  0  0  0     2.500      7   19   31
            1  1  0  0     2.500      8   20   32
            1  0  1  0     2.500      9   21   33
            0  2  0  0     2.500     10   22   34
            0  1  1  0     2.500     11   23   35
            0  0  2  0     2.500     12   24   36

 N                                    4
                                  ---------------------------------------------------------------------------
            0  0  0  0     8.740     37
            0  0  0  0     5.900     38
            0  0  0  1     5.150     39
            0  0  0  1     2.500     40
            0  0  0  1     1.500     41
            1  0  0  0     3.680     42
            0  1  0  0     3.680     43
            0  0  1  0     3.680     44
            1  0  0  0     1.880     45
            0  1  0  0     1.880     46
            0  0  1  0     1.880     47
            1  0  0  0     1.000     48
            0  1  0  0     1.000     49
            0  0  1  0     1.000     50
            2  0  0  0     2.200     51
            1  1  0  0     2.200     52
            1  0  1  0     2.200     53
            0  2  0  0     2.200     54
            0  1  1  0     2.200     55
            0  0  2  0     2.200     56
            3  0  0  0     3.300     57
            2  1  0  0     3.300     58
            2  0  1  0     3.300     59
            1  2  0  0     3.300     60
            1  1  1  0     3.300     61
            1  0  2  0     3.300     62
            0  3  0  0     3.300     63
            0  2  1  0     3.300     64
            0  1  2  0     3.300     65
            0  0  3  0     3.300     66

 B                                    5
                                  ---------------------------------------------------------------------------
            0  0  0  0     6.500     67
            0  0  0  0     4.080     68
            0  0  0  1     2.800     69
            0  0  0  1     1.700     70
            0  0  0  1     1.040     71
            1  0  0  0     2.600     72
            0  1  0  0     2.600     73
            0  0  1  0     2.600     74
            1  0  0  0     1.260     75
            0  1  0  0     1.260     76
            0  0  1  0     1.260     77
            1  0  0  0     0.680     78
            0  1  0  0     0.680     79
            0  0  1  0     0.680     80
            2  0  0  0     2.000     81
            1  1  0  0     2.000     82
            1  0  1  0     2.000     83
            0  2  0  0     2.000     84
            0  1  1  0     2.000     85
            0  0  2  0     2.000     86
            3  0  0  0     3.000     87
            2  1  0  0     3.000     88
            2  0  1  0     3.000     89
            1  2  0  0     3.000     90
            1  1  1  0     3.000     91
            1  0  2  0     3.000     92
            0  3  0  0     3.000     93
            0  2  1  0     3.000     94
            0  1  2  0     3.000     95
            0  0  3  0     3.000     96

 Br                                   6    7    8
                                  ---------------------------------------------------------------------------
            0  0  0  0    41.300     97  160  223
            0  0  0  0    32.800     98  161  224
            0  0  0  1    13.900     99  162  225
            1  0  0  0    19.450    100  163  226
            0  1  0  0    19.450    101  164  227
            0  0  1  0    19.450    102  165  228
            1  0  0  0    13.100    103  166  229
            0  1  0  0    13.100    104  167  230
            0  0  1  0    13.100    105  168  231
            0  0  0  2     7.200    106  169  232
            0  0  0  2     4.950    107  170  233
            1  0  0  1     7.900    108  171  234
            0  1  0  1     7.900    109  172  235
            0  0  1  1     7.900    110  173  236
            1  0  0  1     5.050    111  174  237
            0  1  0  1     5.050    112  175  238
            0  0  1  1     5.050    113  176  239
            2  0  0  0    10.900    114  177  240
            1  1  0  0    10.900    115  178  241
            1  0  1  0    10.900    116  179  242
            0  2  0  0    10.900    117  180  243
            0  1  1  0    10.900    118  181  244
            0  0  2  0    10.900    119  182  245
            2  0  0  0     6.050    120  183  246
            1  1  0  0     6.050    121  184  247
            1  0  1  0     6.050    122  185  248
            0  2  0  0     6.050    123  186  249
            0  1  1  0     6.050    124  187  250
            0  0  2  0     6.050    125  188  251
            2  0  0  0     3.500    126  189  252
            1  1  0  0     3.500    127  190  253
            1  0  1  0     3.500    128  191  254
            0  2  0  0     3.500    129  192  255
            0  1  1  0     3.500    130  193  256
            0  0  2  0     3.500    131  194  257
            0  0  0  3     4.500    132  195  258
            0  0  0  3     2.800    133  196  259
            0  0  0  3     1.800    134  197  260
            1  0  0  2     3.250    135  198  261
            0  1  0  2     3.250    136  199  262
            0  0  1  2     3.250    137  200  263
            1  0  0  2     1.950    138  201  264
            0  1  0  2     1.950    139  202  265
            0  0  1  2     1.950    140  203  266
            1  0  0  2     1.200    141  204  267
            0  1  0  2     1.200    142  205  268
            0  0  1  2     1.200    143  206  269
            2  0  0  1     1.800    144  207  270
            1  1  0  1     1.800    145  208  271
            1  0  1  1     1.800    146  209  272
            0  2  0  1     1.800    147  210  273
            0  1  1  1     1.800    148  211  274
            0  0  2  1     1.800    149  212  275
            3  0  0  0     1.800    150  213  276
            2  1  0  0     1.800    151  214  277
            2  0  1  0     1.800    152  215  278
            1  2  0  0     1.800    153  216  279
            1  1  1  0     1.800    154  217  280
            1  0  2  0     1.800    155  218  281
            0  3  0  0     1.800    156  219  282
            0  2  1  0     1.800    157  220  283
            0  1  2  0     1.800    158  221  284
            0  0  3  0     1.800    159  222  285

 Total number of charge fitting functions (nprimf)       828
 Total number of Cartesian basis functions (naos)        285
 Total number of Cartesian core functions  (ncos)          0

1
 ***************************************************************************************************



                                              ***********************
                                              *  T E C H N I C A L  *
                                              ***********************
  



 =============================================================
 P A R A L L E L I Z A T I O N  and  V E C T O R I Z A T I O N
 =============================================================
  
 Nr of parallel processes:                               12
 Maximum vector length in NumInt loops:                 128

 IO buffersize (Mb):                                     64.000000



 =====================
 S C F   U P D A T E S
 =====================
  
 Max. nr. of cycles:                               250
 Convergence criterion:                              0.0000010000
   secondary criterion:                              0.0010000000

 Mix parameter (when DIIS does not apply):           0.2000000000
 Mixed ADIIS+DIIS will be used
    Max number of expansion vectors:                10
    Pure ADIIS when Max([F,P]) is above              0.1000000000
    Pure DIIS when Max([F,P]) is below               0.0010000000
 Automatic ElectronSmearing (in case of problematic SCF convergence) disabled



 =================
 P R E C I S I O N  ***  (General: NumInt, NeglectFunctionTails, ...)  ***
 =================
  

 NumInt:           Target precision:                 6.0000000000
 -------           Initial precision:                6.0000000000
                   Min. precision (optimization):    6.0000000000

 Neglect Functions:          Basis functions:        0.1000000000E-07
 ------------------          Fit functions:          0.1000000000E-07



 ===========================
 L I N E A R   S C A L I N G
 ===========================
  

 Cut-off radii density fit:                        0.1000000000E-09
 Overlap cut-off criterion AO matrix elements:     0.1000000000E-07
 Cut-offs for Coulomb potential and fitted density:0.1000000000E-09
 Cut-off criterion for Coulomb multipole terms:    0.1000000000E-09
 Progressive Convergence parameter:                 0.000000000    
1
 ***************************************************************************************************



                                            ***************************
                                            *  C O M P U T A T I O N  *
                                            ***************************
  

 Number of elements of the density matrix on this node (used, total):      3672     40755



 ===========================================
 Numerical Integration : Fuzzy Cells (Becke)
 ===========================================
  
 Becke grid quality: GOOD           
  
 Lebedev angular grid order:             min:  11 max:  31
 Nr. of radial points:                   min:  54 max:  90

 Total nr. of points:     120697
 Nr. of blocks:              943
 Block length:               128
 Nr. of dummy points:          7


 Test of Precision of the Numerical Integration Grid
 ===================================================

 Integral of the Total Core Density:                   0.00000000000000



 ========================
 Density Fitting (zlmFit)
 ========================
  
 ZlmFit Fit Quality: NORMAL         
  
 Max L-expansion:                        min:   6 max:   7
 Nr. of radial interpolation points:     min:  39 max:  72



 =====
 S C F  ***  ScaSCF  ***
 =====
  
 Initial density matrix is calculated as sum of fragments

 CYCLE    1
 SCF Error: norm([F,P])=      1.532161572310, max([F,P])=      0.872860445640
 orbitals (Q,E):
 ---------------
 A :51...70          ( 2.00    -0.4779)  ( 2.00    -0.3829)  ( 2.00    -0.3481)  ( 2.00    -0.3479)
                     ( 2.00    -0.2833)  ( 2.00    -0.2832)  ( 2.00    -0.2802)  ( 2.00    -0.2666)
                     ( 2.00    -0.2665)  ( 2.00    -0.2524)  ( 0.00    -0.0305)  ( 0.00    -0.0231)
                     ( 0.00     0.0088)  ( 0.00     0.0089)  ( 0.00     0.0352)  ( 0.00     0.0353)
                     ( 0.00     0.0549)  ( 0.00     0.0971)  ( 0.00     0.0972)  ( 0.00     0.1065)

 CYCLE    2
   MIX coefficients:  0.8000  0.2000
 SCF Error: norm([F,P])=      0.281017648478, max([F,P])=      0.080401639504
 orbitals (Q,E):
 ---------------
 A :51...61          ( 2.00    -0.4938)  ( 2.00    -0.3919)  ( 2.00    -0.3492)  ( 2.00    -0.3490)
                     ( 2.00    -0.2793)  ( 2.00    -0.2791)  ( 2.00    -0.2787)  ( 2.00    -0.2618)
                     ( 2.00    -0.2616)  ( 2.00    -0.2470)  ( 0.00    -0.0365)

 CYCLE    3
  SDIIS (wt  0.000): -0.5677  1.5677
 A-DIIS (wt  1.000):  0.0000  1.0000
  DIIS coefficients:  0.0000  1.0000
 SCF Error: norm([F,P])=      0.124456006536, max([F,P])=      0.030779764018
 orbitals (Q,E):
 ---------------
 A :51...61          ( 2.00    -0.5373)  ( 2.00    -0.3972)  ( 2.00    -0.3443)  ( 2.00    -0.3441)
                     ( 2.00    -0.2687)  ( 2.00    -0.2644)  ( 2.00    -0.2643)  ( 2.00    -0.2453)
                     ( 2.00    -0.2451)  ( 2.00    -0.2293)  ( 0.00    -0.0730)

 CYCLE    4
  SDIIS (wt  0.000):  0.9357 -0.7143  0.7786
 A-DIIS (wt  1.000):  0.0000  0.6894  0.3106
  DIIS coefficients:  0.0000  0.6894  0.3106
 SCF Error: norm([F,P])=      0.237665234317, max([F,P])=      0.067922007514
 orbitals (Q,E):
 ---------------
 A :51...61          ( 2.00    -0.5154)  ( 2.00    -0.3910)  ( 2.00    -0.3419)  ( 2.00    -0.3417)
                     ( 2.00    -0.2700)  ( 2.00    -0.2677)  ( 2.00    -0.2676)  ( 2.00    -0.2496)
                     ( 2.00    -0.2494)  ( 2.00    -0.2344)  ( 0.00    -0.0614)

 CYCLE    5
  SDIIS (wt  0.930): -0.2052  0.5138 -0.0093  0.7007
 A-DIIS (wt  0.070):  0.0000  0.0000  0.0000  1.0000
  DIIS coefficients: -0.1910  0.4781 -0.0086  0.7215
 SCF Error: norm([F,P])=      0.035857895113, max([F,P])=      0.007888785259
 orbitals (Q,E):
 ---------------
 A :51...61          ( 2.00    -0.5161)  ( 2.00    -0.3960)  ( 2.00    -0.3472)  ( 2.00    -0.3470)
                     ( 2.00    -0.2744)  ( 2.00    -0.2725)  ( 2.00    -0.2723)  ( 2.00    -0.2543)
                     ( 2.00    -0.2542)  ( 2.00    -0.2392)  ( 0.00    -0.0578)

 CYCLE    6
  SDIIS (wt  0.964): -0.0364  0.1727  0.0276  0.3656  0.4706
 A-DIIS (wt  0.036):  0.0000  0.0000  0.0000  0.0000  1.0000
  DIIS coefficients: -0.0351  0.1665  0.0266  0.3525  0.4895
 SCF Error: norm([F,P])=      0.014797138204, max([F,P])=      0.004534035580
 orbitals (Q,E):
 ---------------
 A :51...61          ( 2.00    -0.5151)  ( 2.00    -0.3945)  ( 2.00    -0.3458)  ( 2.00    -0.3457)
                     ( 2.00    -0.2736)  ( 2.00    -0.2716)  ( 2.00    -0.2714)  ( 2.00    -0.2534)
                     ( 2.00    -0.2533)  ( 2.00    -0.2383)  ( 0.00    -0.0578)

 CYCLE    7
  SDIIS (wt  0.999): -0.0036  0.0401  0.0117  0.1126  0.2578  0.5813
 A-DIIS (wt  0.001):  0.0000  0.0000  0.0000  0.0000  0.0101  0.9899
  DIIS coefficients: -0.0036  0.0401  0.0117  0.1124  0.2575  0.5819
 SCF Error: norm([F,P])=      0.004184338641, max([F,P])=      0.001136365976
 orbitals (Q,E):
 ---------------
 A :51...61          ( 2.00    -0.5148)  ( 2.00    -0.3946)  ( 2.00    -0.3459)  ( 2.00    -0.3457)
                     ( 2.00    -0.2735)  ( 2.00    -0.2716)  ( 2.00    -0.2714)  ( 2.00    -0.2535)
                     ( 2.00    -0.2533)  ( 2.00    -0.2383)  ( 0.00    -0.0576)

 CYCLE    8
  SDIIS (wt  1.000): -0.0093  0.0278  0.0010  0.0561  0.1233  0.3276  0.4736
  DIIS coefficients: -0.0093  0.0278  0.0010  0.0561  0.1233  0.3276  0.4736
 SCF Error: norm([F,P])=      0.001419721092, max([F,P])=      0.000373915535
 orbitals (Q,E):
 ---------------
 A :51...61          ( 2.00    -0.5149)  ( 2.00    -0.3946)  ( 2.00    -0.3459)  ( 2.00    -0.3457)
                     ( 2.00    -0.2736)  ( 2.00    -0.2716)  ( 2.00    -0.2714)  ( 2.00    -0.2535)
                     ( 2.00    -0.2533)  ( 2.00    -0.2383)  ( 0.00    -0.0576)

 CYCLE    9
  SDIIS (wt  1.000): -0.0012  0.0023 -0.0003  0.0038  0.0118  0.0390  0.1305  0.8142
  DIIS coefficients: -0.0012  0.0023 -0.0003  0.0038  0.0118  0.0390  0.1305  0.8142
 SCF Error: norm([F,P])=      0.000168181193, max([F,P])=      0.000034395560
 orbitals (Q,E):
 ---------------
 A :51...61          ( 2.00    -0.5149)  ( 2.00    -0.3946)  ( 2.00    -0.3459)  ( 2.00    -0.3457)
                     ( 2.00    -0.2736)  ( 2.00    -0.2716)  ( 2.00    -0.2715)  ( 2.00    -0.2535)
                     ( 2.00    -0.2533)  ( 2.00    -0.2383)  ( 0.00    -0.0577)

 CYCLE   10
  SDIIS (wt  1.000): -0.0002  0.0004 -0.0000  0.0006  0.0033  0.0115  0.0485  0.3308  0.6051
  DIIS coefficients: -0.0002  0.0004 -0.0000  0.0006  0.0033  0.0115  0.0485  0.3308  0.6051
 SCF Error: norm([F,P])=      0.000040309439, max([F,P])=      0.000009832387
 orbitals (Q,E):
 ---------------
 A :51...61          ( 2.00    -0.5149)  ( 2.00    -0.3946)  ( 2.00    -0.3459)  ( 2.00    -0.3457)
                     ( 2.00    -0.2736)  ( 2.00    -0.2716)  ( 2.00    -0.2715)  ( 2.00    -0.2535)
                     ( 2.00    -0.2533)  ( 2.00    -0.2383)  ( 0.00    -0.0576)

 CYCLE   11
  SDIIS (wt  1.000): -0.0002  0.0002 -0.0001  0.0003  0.0007  0.0021  0.0061  0.0376 -0.3440  1.2972
  DIIS coefficients: -0.0002  0.0002 -0.0001  0.0003  0.0007  0.0021  0.0061  0.0376 -0.3440  1.2972
 SCF Error: norm([F,P])=      0.000014083437, max([F,P])=      0.000003999932
 orbitals (Q,E):
 ---------------
 A :51...61          ( 2.00    -0.5149)  ( 2.00    -0.3946)  ( 2.00    -0.3459)  ( 2.00    -0.3457)
                     ( 2.00    -0.2736)  ( 2.00    -0.2716)  ( 2.00    -0.2715)  ( 2.00    -0.2535)
                     ( 2.00    -0.2533)  ( 2.00    -0.2383)  ( 0.00    -0.0576)

 CYCLE   12
  SDIIS (wt  1.000): -0.0000 -0.0000 -0.0000 -0.0001 -0.0003 -0.0008 -0.0020 -0.2252  0.5383  0.6900
  DIIS coefficients: -0.0000 -0.0000 -0.0000 -0.0001 -0.0003 -0.0008 -0.0020 -0.2252  0.5383  0.6900
 SCF Error: norm([F,P])=      0.000005520488, max([F,P])=      0.000001090125
 orbitals (Q,E):
 ---------------
 A :51...61          ( 2.00    -0.5149)  ( 2.00    -0.3946)  ( 2.00    -0.3459)  ( 2.00    -0.3457)
                     ( 2.00    -0.2736)  ( 2.00    -0.2716)  ( 2.00    -0.2715)  ( 2.00    -0.2535)
                     ( 2.00    -0.2533)  ( 2.00    -0.2383)  ( 0.00    -0.0576)

 CYCLE   13
  SDIIS (wt  1.000):  0.0000  0.0000  0.0000  0.0000  0.0002  0.0022 -0.1061  0.3232  0.3749  0.4055
  DIIS coefficients:  0.0000  0.0000  0.0000  0.0000  0.0002  0.0022 -0.1061  0.3232  0.3749  0.4055
 SCF Error: norm([F,P])=      0.000002686754, max([F,P])=      0.000000675533
 orbitals (Q,E):
 ---------------
 A :51...61          ( 2.00    -0.5149)  ( 2.00    -0.3946)  ( 2.00    -0.3459)  ( 2.00    -0.3457)
                     ( 2.00    -0.2736)  ( 2.00    -0.2716)  ( 2.00    -0.2715)  ( 2.00    -0.2535)
                     ( 2.00    -0.2533)  ( 2.00    -0.2383)  ( 0.00    -0.0576)

 SCF CONVERGED

 CYCLE   14
1
 ***************************************************************************************************



                                                *******************
                                                *  R E S U L T S  *
                                                *******************
  
 *** Setting up for NEW gradients in Focky
 *** Using FIT density in Focky

 Orbital Energies, per Irrep and Spin:
 ======================================
                        Occup              E (au)              E (eV)       Diff (eV) with prev. cycle
                        -----      --------------------        ------       --------------------------
 A
              51        2.000     -0.51486875234398E+00       -14.010               9.87E-08
              52        2.000     -0.39458586398604E+00       -10.737               1.04E-07
              53        2.000     -0.34590065744815E+00        -9.412               3.27E-08
              54        2.000     -0.34572940703268E+00        -9.408               2.49E-07
              55        2.000     -0.27356764713944E+00        -7.444               1.60E-07
              56        2.000     -0.27159080638581E+00        -7.390               1.82E-07
              57        2.000     -0.27145466723524E+00        -7.387               1.14E-07
              58        2.000     -0.25347470064161E+00        -6.897               4.28E-08
              59        2.000     -0.25330919204285E+00        -6.893               2.48E-07
              60        2.000     -0.23834763658951E+00        -6.486               1.50E-07
              61        0.000     -0.57604454526233E-01        -1.567
              62        0.000     -0.26272192404604E-01        -0.715
              63        0.000     -0.78245898774419E-02        -0.213
              64        0.000     -0.77687728373362E-02        -0.211
              65        0.000      0.15530621597190E-01         0.423
              66        0.000      0.15621627477590E-01         0.425
              67        0.000      0.46095465431972E-01         1.254
              68        0.000      0.92068772926715E-01         2.505
              69        0.000      0.92157576780164E-01         2.508
              70        0.000      0.10148327268709E+00         2.762
  
 HOMO :       60 A                -0.23834763658951E+00
 LUMO :       61 A                -0.57604454526233E-01
  


 All Electron Calculation, thus no Orbital Energies of the Core Orbitals are calculated


 Fit test: (difference of exact and fit density, squared integrated, result summed over spins)
         Sum-of-Fragments:                             0.00240430275342
         Orthogonalized Fragments:                     0.00242136478899
         SCF:                                          0.00242851669536



 ==========================
 Electron Density at Nuclei
 ==========================
  
 The electron density is calculated at points on a small sphere around the center of a nucleus.
 The printed electron density is the average electron density on these points.
 The radius of the sphere is the printed approximate finite nuclear radius.

         Atom        Nuclear Radius (Angstrom)             Electron Density (a.u.)
         ----        -------------------------             -----------------------
     1)   H                 0.0000181514                                0.47417
     2)   N                 0.0000333706                              204.84141
     3)   H                 0.0000181514                                0.47413
     4)   H                 0.0000181514                                0.47416
     5)   B                 0.0000313614                               71.16459
     6)   Br                0.0000536685                            29312.77524
     7)   Br                0.0000536685                            29312.77476
     8)   Br                0.0000536685                            29312.77660



 =======================================
 M U L L I K E N   P O P U L A T I O N S
 =======================================
  
 The survey below gives for each atom:
 a) the total charge (Z minus electrons)
 b) the net spin polarization (nr of electrons spin-A minus spin-B)
 c) for each spin the atomic electron valence density (integrated) per L-value.

 Atom              Charge    Spin density          S         P         D         F
 ----              ------    ------------       ------    ------    ------    ------
 1 H               0.0204                       0.8653    0.1040    0.0103    0.0000
 2 N               0.3287                       3.3022    3.3350    0.0323    0.0019
 3 H               0.0205                       0.8650    0.1041    0.0103    0.0000
 4 H               0.0202                       0.8654    0.1041    0.0103    0.0000
 5 B               0.6730                       2.5700    1.6406    0.1100    0.0063
 6 Br             -0.3544                       7.9870   17.2981   10.0566    0.0127
 7 Br             -0.3544                       7.9870   17.2980   10.0567    0.0127
 8 Br             -0.3541                       7.9869   17.2977   10.0567    0.0127

 Populations of individual BAS functions
 ----------------------------------------
 1 H           -0.0886  0.6655  0.2884  0.0337  0.0406  0.0297 -0.0006  0.0025  0.0009  0.0105
                0.0027 -0.0057
 3 H           -0.0885  0.6650  0.2885  0.0337  0.0310  0.0395 -0.0006  0.0014  0.0021 -0.0016
                0.0022  0.0070
 4 H           -0.0883  0.6653  0.2884  0.0377  0.0320  0.0344 -0.0051  0.0015  0.0028  0.0010
                0.0021  0.0080
 2 N            0.5323  1.4588 -0.0524  1.0178  0.3457  0.1817  0.1768  0.1769  0.9775  0.9123
                0.9139  0.0368 -0.0213 -0.0196  0.0008  0.0092  0.0071  0.0031  0.0079  0.0041
                0.0021  0.0009  0.0004 -0.0006  0.0003 -0.0009 -0.0010  0.0005  0.0008 -0.0006
 5 B            0.4733  1.5287 -0.1336  0.9751 -0.2735  0.0718  0.0750  0.0749  0.5306  0.5625
                0.5617 -0.1090 -0.0627 -0.0641  0.0215  0.0177  0.0182  0.0150  0.0229  0.0148
                0.0020  0.0003  0.0002 -0.0001  0.0007 -0.0001  0.0005  0.0012  0.0010  0.0006
 6 Br           0.3611  1.5681  2.0732  0.7132  0.7130  0.7129  1.2646  1.2649  1.2652  1.4284
                0.6161  1.1403  1.1372  1.1334  0.8900  0.8925  0.8958  0.2676  0.4015  0.4014
                0.2676  0.4015  0.2677  0.7774  1.1651  1.1647  0.7766  1.1644  0.7755  0.2876
                0.4333  0.4339  0.2892  0.4346  0.2911  0.2488  1.2062  0.4850  0.6114  0.5715
                0.5207  1.0635  0.9939  0.9144  0.2546  0.1973  0.1477 -0.0060  0.0046  0.0076
                0.0051  0.0208  0.0239 -0.0115 -0.0065 -0.0111  0.0020  0.0016  0.0112 -0.0032
               -0.0001  0.0146  0.0157
 7 Br           0.3611  1.5681  2.0732  0.7131  0.7128  0.7132  1.2647  1.2654  1.2646  1.4284
                0.6161  1.1391  1.1313  1.1406  0.8912  0.8975  0.8897  0.2677  0.4014  0.4016
                0.2678  0.4014  0.2676  0.7769  1.1643  1.1653  0.7750  1.1645  0.7776  0.2880
                0.4345  0.4330  0.2922  0.4342  0.2877  0.2488  1.2062  0.4851  0.5931  0.4941
                0.6164  1.0381  0.8696  1.0640  0.2325  0.1259  0.2413  0.0007  0.0145  0.0031
                0.0326  0.0134 -0.0082 -0.0059 -0.0062  0.0022  0.0166  0.0013 -0.0073  0.0260
                0.0157 -0.0148 -0.0150
 8 Br           0.3611  1.5681  2.0732  0.7131  0.7131  0.7129  1.2647  1.2648  1.2652  1.4284
                0.6160  1.1391  1.1385  1.1334  0.8912  0.8914  0.8957  0.2677  0.4015  0.4015
                0.2676  0.4015  0.2677  0.7769  1.1651  1.1645  0.7770  1.1645  0.7756  0.2880
                0.4334  0.4342  0.2886  0.4343  0.2912  0.2488  1.2063  0.4849  0.5932  0.5887
                0.5218  1.0384  1.0203  0.9128  0.2327  0.2136  0.1531  0.0006  0.0060  0.0116
               -0.0003  0.0169  0.0214 -0.0059  0.0001 -0.0043 -0.0023  0.0021  0.0108 -0.0081
               -0.0046  0.0120  0.0129

 Gross Charges per Atom (Z minus electrons)
 ==========================================
             0.0204    0.3287    0.0205    0.0202    0.6730   -0.3544   -0.3544   -0.3541
 Net Total: -0.00000000


 Atom-Atom Population Matrix (off-diagonal elements not doubled)
 ===============================================================

     1 :     0.7049
     2 :     0.3671    5.4181
     3 :    -0.0336    0.3672    0.7046
     4 :    -0.0337    0.3671   -0.0336    0.7051
     5 :    -0.0326    0.2325   -0.0327   -0.0327    3.2693
     6 :    -0.0021   -0.0270   -0.0020    0.0117    0.3076   35.1715
     7 :     0.0117   -0.0270   -0.0021   -0.0020    0.3076   -0.0523   35.1715
     8 :    -0.0020   -0.0268    0.0116   -0.0021    0.3080   -0.0529   -0.0530   35.1713


 Frag-Frag Population Matrix (off-diagonal elements not doubled)
 ===============================================================

     1 :     9.5340
     2 :     0.0762  110.3136



 =================================================
 H I R S H F E L D   C H A R G E   A N A L Y S I S
 =================================================
  
 For each fragment: the (numerical) integral of rho(scf) * rho(fragment)/rho(sum-of-fragments)
 (nuclear charges are included, electrons are counted negative)

 The fragments and their ordering are defined in the early G E O M E T R Y output section.
 If you use single-atom fragments, this usually implies that all atoms of the same
 chemical type are grouped together. This may not be the order in which you listed them
 in the input file!

    1  NH3                       0.3097
    2  BBr3                     -0.3097

 Sum of these charges (accuracy NumInt/Tails) =           0.00000621



 =============================
 V O R O N O I   C H A R G E S
 =============================
  
 For each atom: the (numerical) integral of the total electronic charge density in its Voronoi cell,
 i.e. the region of space that is closer to that atom than to any other atom.
 (cf. Wigner-Seitz cells in crystals)

 Within the Voronoi cell the subintegrals over the atomic sphere and the remaining part are evaluated
 separately to give the numbers of electrons (negative charge) in these regions.
 The net total charge in the cell (including the nuclear charge) is also given.

 Values are provided for
    a) the Initial (sum-of-fragments) density
    b) the Orthogonalized-Fragments density
    c) the SCF density
    d) the Voronoi Deformation Density (VDD): the difference SCF-Initial for the complete atomic cell


  Atom                Initial                    OrthFrag                   SCF
             Sphere RestCell NetTotal   Sphere RestCell NetTotal   Sphere RestCell NetTotal      VDD
 -----       ------------------------   ------------------------   ------------------------    -----
    1 H      -0.129   -1.392   -0.521   -0.130   -1.376   -0.507   -0.127   -1.284   -0.411    0.110
    2 N      -2.349   -3.274    1.377   -2.373   -3.294    1.333   -2.351   -3.262    1.387    0.011
    3 H      -0.130   -1.388   -0.517   -0.131   -1.371   -0.501   -0.127   -1.282   -0.408    0.109
    4 H      -0.129   -1.388   -0.517   -0.131   -1.371   -0.502   -0.127   -1.282   -0.409    0.109
    5 B      -2.171   -3.207   -0.378   -2.160   -3.045   -0.206   -2.173   -3.133   -0.305    0.073
    6 Br    -28.181   -6.622    0.197  -28.189   -6.673    0.138  -28.184   -6.757    0.059   -0.137
    7 Br    -28.181   -6.633    0.185  -28.189   -6.684    0.127  -28.183   -6.768    0.048   -0.137
[...]
     0.00    0.00    0.00    0.00   -0.00   -0.00   -0.00    0.00    0.00   -0.00    0.00    2.00
     2.00    2.00    2.00    2.00    2.00    2.00    2.00    2.00    2.00    2.00    2.00    2.00
     2.00    2.00    2.00    2.00    2.00    2.00    2.00    2.00    2.00    2.00    2.00    2.00
     2.00    2.00    2.00    2.00    2.00    2.00    2.00    2.00    2.00    2.00    2.00    2.00
     2.00    2.00    2.00    2.00    2.00    2.00    1.97    2.00    2.00    1.96    1.99    1.99
     1.86    1.98    1.98    2.00    2.00    2.00    0.60   -0.00    0.01    0.01   -0.00   -0.00
     0.01   -0.02    0.00    0.00   -0.00    0.00    0.00    0.00    0.00    0.00    0.00    0.00
     0.01    0.01    0.00    0.00    0.00    0.00    0.00    0.01   -0.00   -0.00    0.00   -0.00
    -0.00   -0.00    0.00    0.00    0.00    0.00    0.00    0.00    0.00    0.00   -0.00    0.00
     0.00    0.00    0.00   -0.00    0.00   -0.00   -0.00   -0.00   -0.00    0.00    0.00   -0.00
    -0.00   -0.00   -0.00   -0.00    0.00    0.00    0.00    0.00    0.00    0.00    0.00    0.00
     0.00    0.00    0.00    0.00   -0.01   -0.00   -0.00   -0.00    0.00    0.00    0.00   -0.00
    -0.00    0.00   -0.00   -0.00    0.00    0.00    0.00    0.00    0.00    0.00   -0.00    0.00
     0.00    0.00    0.00    0.00    0.00    0.00   -0.00   -0.00    0.00   -0.00   -0.00   -0.00
    -0.00   -0.00    0.00   -0.00   -0.00    0.00   -0.00    0.00    0.00    0.00   -0.00   -0.00
    -0.00   -0.00    0.00   -0.00   -0.00    0.00   -0.00   -0.00    0.00    0.00   -0.00   -0.00
    -0.00   -0.00   -0.00    0.00   -0.00   -0.00    0.00   -0.00   -0.00   -0.00    0.00    0.00
     0.00



 List of all MOs, ordered by energy, with the most significant SFO gross populations
 ===================================================================================

 Each percentage contribution in the table below corresponds to the indicated SFO.
 In general, a SFO may be a linear combination of several Fragment Orbitals on the same,
 or on symmetry-related Fragments. Only the first 'member' of such a combination is
 specified here. A full definition of all SFOs is given in an earlier part of the output.
 The numbering of the SFOs in this table does NOT include the Core Orbitals, and starts
 from one for each symmetry representation, as in the SFO definition list earlier.

       E(eV)  Occ       MO           %     SFO (first member)   E(eV)  Occ   Fragment
 -------------------------------------------------------------------------------------

     -25.287  2.00    45 A         98.11%     2 A             -21.061  2.00     1 NH3
                                   -2.00%    63 A               2.904  0.00     2 BBr3
                                    1.54%     5 A              -6.134  2.00     1 NH3
                                    1.07%    56 A              -4.519  0.00     2 BBr3
     -19.830  2.00    46 A         96.05%    44 A             -20.696  2.00     2 BBr3
                                    2.16%     5 A              -6.134  2.00     1 NH3
                                    1.85%     2 A             -21.061  2.00     1 NH3
     -18.941  2.00    47 A         98.67%    45 A             -19.758  2.00     2 BBr3
                                    1.13%     3 A             -11.398  2.00     1 NH3
     -18.937  2.00    48 A         98.67%    46 A             -19.755  2.00     2 BBr3
                                    1.13%     4 A             -11.397  2.00     1 NH3
     -15.040  2.00    49 A         94.72%     3 A             -11.398  2.00     1 NH3
                                    2.23%    48 A             -10.332  2.00     2 BBr3
                                    1.15%    45 A             -19.758  2.00     2 BBr3
     -15.039  2.00    50 A         94.74%     4 A             -11.397  2.00     1 NH3
                                    2.23%    49 A             -10.328  2.00     2 BBr3
                                    1.14%    46 A             -19.755  2.00     2 BBr3
     -14.010  2.00    51 A         50.05%     5 A              -6.134  2.00     1 NH3
                                   33.73%    47 A             -12.794  2.00     2 BBr3
                                    5.04%    56 A              -4.519  0.00     2 BBr3
                                    4.40%    50 A              -9.186  2.00     2 BBr3
                                    3.53%     2 A             -21.061  2.00     1 NH3
                                    1.30%    44 A             -20.696  2.00     2 BBr3
     -10.737  2.00    52 A         60.19%    47 A             -12.794  2.00     2 BBr3
                                   17.16%    50 A              -9.186  2.00     2 BBr3
                                   13.59%     5 A              -6.134  2.00     1 NH3
                                    6.09%    56 A              -4.519  0.00     2 BBr3
                                    1.43%    12 A               7.724  0.00     1 NH3
      -9.412  2.00    53 A         97.08%    48 A             -10.332  2.00     2 BBr3
                                    2.22%     3 A             -11.398  2.00     1 NH3
      -9.408  2.00    54 A         97.08%    49 A             -10.328  2.00     2 BBr3
                                    2.21%     4 A             -11.397  2.00     1 NH3
      -7.444  2.00    55 A         71.20%    50 A              -9.186  2.00     2 BBr3
                                   17.70%    56 A              -4.519  0.00     2 BBr3
                                    4.79%     5 A              -6.134  2.00     1 NH3
                                    3.47%    47 A             -12.794  2.00     2 BBr3
                                    1.21%     6 A              -0.299  0.00     1 NH3
      -7.390  2.00    56 A         98.60%    51 A              -8.133  2.00     2 BBr3
                                    0.48%    10 A               5.605  0.00     1 NH3
      -7.387  2.00    57 A         98.60%    52 A              -8.130  2.00     2 BBr3
                                    0.48%     9 A               5.604  0.00     1 NH3
      -6.897  2.00    58 A         99.12%    53 A              -7.673  2.00     2 BBr3
                                    0.27%    51 A              -8.133  2.00     2 BBr3
      -6.893  2.00    59 A         99.12%    54 A              -7.669  2.00     2 BBr3
                                    0.27%    52 A              -8.130  2.00     2 BBr3
      -6.486  2.00    60 A         99.94%    55 A              -7.246  2.00     2 BBr3
                                    0.03%    18 A              23.489  0.00     1 NH3
      -1.567  0.00    61 A        112.40%     6 A              -0.299  0.00     1 NH3
                                  -10.85%    63 A               2.904  0.00     2 BBr3
                                   -2.31%    12 A               7.724  0.00     1 NH3
                                   -2.09%    62 A               2.477  0.00     2 BBr3
                                    1.60%    57 A              -1.444  0.00     2 BBr3
      -0.715  0.00    62 A         96.13%    57 A              -1.444  0.00     2 BBr3
                                    1.91%     6 A              -0.299  0.00     1 NH3
                                    1.42%    56 A              -4.519  0.00     2 BBr3
      -0.213  0.00    63 A         33.28%     7 A               1.616  0.00     1 NH3
                                   25.72%     8 A               1.616  0.00     1 NH3
                                   24.21%    58 A              -0.483  0.00     2 BBr3
                                    6.18%    59 A              -0.478  0.00     2 BBr3
                                    3.80%     9 A               5.604  0.00     1 NH3
                                    1.57%    61 A               1.905  0.00     2 BBr3
                                    1.13%    10 A               5.605  0.00     1 NH3
      -0.211  0.00    64 A         33.15%     8 A               1.616  0.00     1 NH3
                                   25.91%     7 A               1.616  0.00     1 NH3
                                   23.96%    59 A              -0.478  0.00     2 BBr3
                                    6.31%    58 A              -0.483  0.00     2 BBr3
                                    3.81%    10 A               5.605  0.00     1 NH3
                                    1.61%    60 A               1.901  0.00     2 BBr3
                                    1.13%     9 A               5.604  0.00     1 NH3
       0.423  0.00    65 A         67.23%    58 A              -0.483  0.00     2 BBr3
                                   21.41%     8 A               1.616  0.00     1 NH3
                                    5.14%     7 A               1.616  0.00     1 NH3
                                    4.27%    61 A               1.905  0.00     2 BBr3
       0.425  0.00    66 A         67.60%    59 A              -0.478  0.00     2 BBr3
                                   21.06%     7 A               1.616  0.00     1 NH3
                                    5.13%     8 A               1.616  0.00     1 NH3
                                    4.27%    60 A               1.901  0.00     2 BBr3
       1.254  0.00    67 A         62.16%    56 A              -4.519  0.00     2 BBr3
                                  -26.22%    63 A               2.904  0.00     2 BBr3
                                   24.70%    62 A               2.477  0.00     2 BBr3
                                   21.80%     5 A              -6.134  2.00     1 NH3
                                   10.10%    50 A              -9.186  2.00     2 BBr3
                                   -7.09%    17 A              16.500  0.00     1 NH3
                                    6.87%    75 A               6.100  0.00     2 BBr3
                                    4.49%    74 A               5.360  0.00     2 BBr3
                                    3.80%    47 A             -12.794  2.00     2 BBr3
                                    3.41%     6 A              -0.299  0.00     1 NH3
                                   -2.44%    24 A              37.263  0.00     1 NH3
                                    2.28%     2 A             -21.061  2.00     1 NH3
                                    1.62%    57 A              -1.444  0.00     2 BBr3
                                   -1.55%    12 A               7.724  0.00     1 NH3
                                   -1.32%    28 A              54.814  0.00     1 NH3
                                    1.28%    44 A             -20.696  2.00     2 BBr3
       2.505  0.00    68 A         81.94%    60 A               1.901  0.00     2 BBr3
                                   11.59%    10 A               5.605  0.00     1 NH3
                                    1.92%    65 A               3.723  0.00     2 BBr3
                                    1.83%    15 A              12.244  0.00     1 NH3
                                    1.38%    68 A               4.348  0.00     2 BBr3
                                    1.24%    76 A               6.991  0.00     2 BBr3
       2.508  0.00    69 A         81.85%    61 A               1.905  0.00     2 BBr3
                                   11.67%     9 A               5.604  0.00     1 NH3
                                    1.95%    64 A               3.722  0.00     2 BBr3
                                    1.83%    16 A              12.246  0.00     1 NH3
                                    1.37%    67 A               4.345  0.00     2 BBr3
                                    1.25%    77 A               7.001  0.00     2 BBr3
       2.762  0.00    70 A         77.57%    62 A               2.477  0.00     2 BBr3
                                    9.42%    11 A               6.611  0.00     1 NH3
                                    4.74%    12 A               7.724  0.00     1 NH3
                                    2.79%    66 A               4.103  0.00     2 BBr3
                                   -2.25%     6 A              -0.299  0.00     1 NH3
                                    2.23%     5 A              -6.134  2.00     1 NH3
                                    1.94%    56 A              -4.519  0.00     2 BBr3
                                    1.34%    17 A              16.500  0.00     1 NH3
                                    1.29%    74 A               5.360  0.00     2 BBr3
                                    1.08%    63 A               2.904  0.00     2 BBr3



 =======================================================================
 Electrostatic potential at the Nuclei due to electrons and other nuclei
 =======================================================================
  
         Atom                  Potential
         ----                  ---------
     1)   H                   0.93325641
     2)   N                  18.26613901
     3)   H                   0.93316904
     4)   H                   0.93320520
     5)   B                  11.32611822
     6)   Br                175.96680524
     7)   Br                175.96683691
     8)   Br                175.96687027
 
 
 ========================
 No memory problems found
 ========================
 
 Maximum number of active allocate calls:         920
 
 *******************************************************************************

                             A D F   E X I T
 NORMAL TERMINATION



 =================
 Timing Statistics
 =================
  
 Total Used :                     CPU=       15.12      System=        0.46     Elapsed=       15.64

 Calls  Section                     ( Mean, Percentage )
 ---------------------------------------------------------------------------------------------------
     3  ><      ................      0.00    0.00             0.00    0.00             0.00    0.01
     1  INIT    ................      0.47    3.11             0.02    4.58             0.49    3.15
     1  GEOMET  ................      0.10    0.69             0.01    1.96             0.14    0.87
     1  FRAGM   ................      0.02    0.11             0.01    2.83             0.03    0.19
     1  INPUTA  ................      0.00    0.00             0.00    0.00             0.00    0.00
     1  ATDEN   ................      0.00    0.03             0.00    0.00             0.00    0.03
     1  MAINSY  ................      0.01    0.05             0.00    1.09             0.02    0.11
     1  SYMFIT  ................      0.00    0.03             0.00    0.00             0.00    0.02
     1  CORORT  ................      0.00    0.00             0.00    0.00             0.00    0.00
     1  SYMORB  ................      0.00    0.02             0.00    0.00             0.00    0.02
     1  CLSMAT  ................      0.01    0.09             0.00    0.22             0.02    0.10
     1  ORTHON  ................      0.02    0.11             0.01    2.61             0.03    0.18
     1  GENPT   ................      0.12    0.83             0.01    2.18             0.14    0.86
     1  PTBAS   ................      0.17    1.11             0.01    2.40             0.18    1.16
    14  FOCKY   ................      0.41   37.63             0.00   13.51             0.41   36.79
    14  FOCKTR  ................      0.00    0.35             0.00    4.79             0.01    0.51
    14  SDIIS   ................      0.00    0.23             0.00    2.83             0.00    0.38
     1  COREPS  ................      0.32    2.14             0.00    0.44             0.33    2.09
     1  TOTEN   ................      1.16    7.68             0.01    3.05             1.18    7.52
     1  POPAN   ................      0.00    0.02             0.00    0.65             0.01    0.04
     1  DEBYE   ................      0.01    0.07             0.00    0.44             0.01    0.08
     1  INPUTE  ................      0.00    0.00             0.00    0.00             0.00    0.00
     1  SYMORE  ................      0.00    0.00             0.00    0.22             0.00    0.00
     1  METS    ................      0.00    0.00             0.00    0.22             0.00    0.01
     1  CETS    ................      0.07    0.50             0.01    1.31             0.08    0.52
     1  POPUL   ................      6.81   45.03             0.25   53.59             7.06   45.15
     1  EXIT PROCEDURE .........      0.03    0.18             0.00    1.09             0.03    0.20


 Currently Open Files (EXIT00)
 ====================

 Unit    Access Format  Status   Type       Ident (file)
 -------------------------------------------------------
   3      SEQ    FORM   TRANSP  NORMAL      LOGFILE
                                          ( logfile )


 Buffered I/O statistics
 =======================
 Memory available:                     67108864
 Number of records fitting in memory:     16131
 Input :   0.9% of                        96310  *4k bytes
 Output:  17.7% of                         9107  *4k bytes
 Records from serial files evicted:           0
                    others evicted:           0
 Hash table lookups:     280562 with          0 conflicts (  0.00%)

 ***************************************************************************************************
 (LOGFILE)
 <Apr18-2019> <22:33:38>  ADF development version  RunTime: Apr18-2019 22:33:38  Nodes: 1  Procs: 12
 <Apr18-2019> <22:33:38>  *** (NO TITLE) ***
 <Apr18-2019> <22:33:38>  RunType   : SINGLE POINT
 <Apr18-2019> <22:33:38>  Net Charge: 0 (Nuclei minus Electrons)
 <Apr18-2019> <22:33:38>  Symmetry  : NOSYM
 <Apr18-2019> <22:33:38>  >>>> FRAGM
  Coordinates
    Atom         X           Y           Z   (Angstrom)
    1.H         1.254833    0.271086   -0.275011
    2.N         0.787867   -0.626917   -0.446919
    3.H         1.252342   -1.096767   -1.232857
    4.H         0.878868   -1.213758    0.390614
    5.B        -0.774043   -0.385438   -0.788960
    6.Br       -0.776665    0.766354   -2.444483
    7.Br       -1.536594   -2.228509   -1.085800
    8.Br       -1.532188    0.542239    0.832766
 <Apr18-2019> <22:33:38>  >>>> CORORT
 <Apr18-2019> <22:33:38>  >>>> CLSMAT
 <Apr18-2019> <22:33:38>  >>>> ORTHON
 <Apr18-2019> <22:33:38>  >>>> GENPT
 <Apr18-2019> <22:33:38>  Block Length= 128
 <Apr18-2019> <22:33:38>  >>>> PTBAS
 <Apr18-2019> <22:33:39>  >>>> CYCLE
 <Apr18-2019> <22:33:39>              |Error|         MaxErr       Wt(A-DIIS)
 <Apr18-2019> <22:33:39>      1      1.53216157      0.87286045
 <Apr18-2019> <22:33:40>      2      0.28101765      0.08040164    100.0
 <Apr18-2019> <22:33:40>      3      0.12445601      0.03077976    100.0
 <Apr18-2019> <22:33:40>      4      0.23766523      0.06792201    100.0
 <Apr18-2019> <22:33:41>      5      0.03585790      0.00788879      7.0
 <Apr18-2019> <22:33:41>      6      0.01479714      0.00453404      3.6
 <Apr18-2019> <22:33:42>      7      0.00418434      0.00113637      0.1
 <Apr18-2019> <22:33:42>      8      0.00141972      0.00037392      0.0
 <Apr18-2019> <22:33:42>      9      0.00016818      0.00003440      0.0
 <Apr18-2019> <22:33:43>     10      0.00004031      0.00000983      0.0
 <Apr18-2019> <22:33:43>     11      0.00001408      0.00000400      0.0
 <Apr18-2019> <22:33:44>     12      0.00000552      0.00000109      0.0
 <Apr18-2019> <22:33:44>     13      0.00000269      0.00000068      0.0
 <Apr18-2019> <22:33:44>  SCF converged
 <Apr18-2019> <22:33:44>     14      0.00000073      0.00000021      0.0
 <Apr18-2019> <22:33:45>  >>>> TOTEN
 <Apr18-2019> <22:33:46>  >>>> POPAN
 <Apr18-2019> <22:33:46>  >>>> DEBYE
 <Apr18-2019> <22:33:46>  >>>> AMETS
 <Apr18-2019> <22:33:53>   Bond Energy          -0.06910376 a.u.
 <Apr18-2019> <22:33:53>   Bond Energy          -1.88040888 eV
 <Apr18-2019> <22:33:53>   Bond Energy         -43.36       kcal/mol
 <Apr18-2019> <22:33:53>  >>>> POPUL
 <Apr18-2019> <22:33:53>  NORMAL TERMINATION
 <Apr18-2019> <22:33:53>  END
