
Create H   file=TZ2P-H
XC
  GGA BP86
End
End Input

 *******************************************************************************
 *                                                                             *
 *  -------------------------------------                                      *
 *   Amsterdam Density Functional  (ADF)         development version           *
 *  -------------------------------------                                      *
 *                                               r61132 2017-09-08             *
 *                                                                             *
 *                                                                             *
 *                              =================                              *
 *                              |               |                              *
 *                              |     A D F     |                              *
 *                              |               |                              *
 *                              =================                              *
 *                                                                             *
 *                                                                             *
 *   Online information and documentation:  https://www.scm.com/support/       *
 *   E-mail:  support@scm.com   info@scm.com                                   *
 *                                                                             *
 *   Scientific publications using ADF results must be properly referenced     *
 *   See the User Manuals (or the web site) for recommended citations          *
 *   The terms and conditions of the End User License Agreement apply to       *
 *   the use of ADF, https://www.scm.com/license-terms/                        *
 *                                                                             *
 **********************  x86_64_linux_intel / intelmpi  ************************
 
 Licensed to: VU/FEW (+ SARA) / ALGEMEEN / Amsterdam / THE NETHERLANDS
 SCM User ID: u7668
  
 ADF development version  RunTime: Apr18-2019 21:03:14  Nodes: 1  Procs: 1

 Temporary files are created in /local/datastore0/tcst25/186778/kid_0.vZf5WA

 Hydrogen (TZ2P)



 ===========================
 A T T A C H E D   F I L E S
 ===========================
  
 CREATE - Data File:    TZ2P-H
                        Hydrogen (TZ2P)



 ===============================
 M O D E L   P A R A M E T E R S
 ===============================
  
 DENSITY FUNCTIONAL POTENTIAL (scf)
    LDA:                               VWN                                      
    Gradient Corrections:              Becke88 Perdew86                        == Not Default ==

 SPIN  (restricted / unrestr.)
    Molecule:                          Restricted                               

 OTHER ASPECTS
    Relativistic Corrections:          ---                                      

    Nuclear Charge Density Model:      Point Charge Nuclei                      
    Core Treatment:                    Frozen Orbital(s)                        

    Hyperfine or Zeeman Interaction:   ---                                      



 =====================================
 S Y M M E T R Y ,   E L E C T R O N S
 =====================================
  
 Symmetry: ATOM

 Irreducible Representations, including subspecies
 -------------------------------------------------
 S
 P:x  P:y  P:z
 D:z2  D:x2-y2  D:xy  D:xz  D:yz
 F:z3  F:z  F:xyz  F:z2x  F:z2y  F:x  F:y


 Configuration of Valence Electrons
 ==================================

          Occupation Numbers
          -------------------------------------------------
 S        1
 P        0
 D        0
 F        0
          -------------------------------------------------

 Total:   1

 Net Charge: 0 (Nuclei minus Electrons)

 Preset values for MO occupations will be applied through SCF cycle no. 1000000
 Thereafter, the program will assign electrons to MOs that are spatially
 similar to the occupied MOs in a "reference" cycle ("KeepOrbitals").
 The reference cycle is always the PREVIOUS cycle: it will evolve with
 the SCF procedure.



 ================================
 (Slater-type)  F U N C T I O N S  ***  (Basis and Fit)  ***
 ================================
  

 Atom Type    1  (H)
 ==============

 Valence Basis Sets:   5
 -----------------------
   1 S    0.690000
   1 S    0.920000
   1 S    1.580000
   2 P    1.250000
   3 D    2.500000


 BAS: List of all Elementary Cartesian Basis Functions
 =====================================================

 The numbering in the list below (to the right of the function characteristics) is referred
 to in print-outs of MO eigenvectors and Mulliken populations in the BAS representation
 (as contrasted to the SFO representation).

 Notes:
 1. The functions are characterized by a polynomial prefactor (powers of x,y,z and r) and
    an exponential decay factor alpha.
 2. Since the basis sets are specific for an atom TYPE, the individual functions occur on
    all atoms of that type.
 3. The word 'Core' in the left margin signals that it is a Core Function (CF) : not a
    degree of freedom in the valence set, but only used to ensure orthogonalization of
    the other valence basis functions on the frozen Core Orbitals.


 (power of) X  Y  Z  R     Alpha  on Atom
            ==========     =====     ==========

 H                                    1
                                  ---------------------------------------------------------------------------
            0  0  0  0     0.690      1
            0  0  0  0     0.920      2
            0  0  0  0     1.580      3
            1  0  0  0     1.250      4
            0  1  0  0     1.250      5
            0  0  1  0     1.250      6
            2  0  0  0     2.500      7
            1  1  0  0     2.500      8
            1  0  1  0     2.500      9
            0  2  0  0     2.500     10
            0  1  1  0     2.500     11
            0  0  2  0     2.500     12

 Total number of charge fitting functions (nprimf)        50
 Total number of Cartesian basis functions (naos)         12
 Total number of Cartesian core functions  (ncos)          0



 BAS: List of all Elementary Cartesian Basis Functions
 =====================================================

 The numbering in the list below (to the right of the function characteristics) is referred
 to in print-outs of MO eigenvectors and Mulliken populations in the BAS representation
 (as contrasted to the SFO representation).

 Notes:
 1. The functions are characterized by a polynomial prefactor (powers of x,y,z and r) and
    an exponential decay factor alpha.
 2. Since the basis sets are specific for an atom TYPE, the individual functions occur on
    all atoms of that type.
 3. The word 'Core' in the left margin signals that it is a Core Function (CF) : not a
    degree of freedom in the valence set, but only used to ensure orthogonalization of
    the other valence basis functions on the frozen Core Orbitals.


 (power of) X  Y  Z  R     Alpha  on Atom
            ==========     =====     ==========

 H                                    1
                                  ---------------------------------------------------------------------------
            0  0  0  0     0.690      1
            0  0  0  0     0.920      2
            0  0  0  0     1.580      3
            1  0  0  0     1.250      4
            0  1  0  0     1.250      5
            0  0  1  0     1.250      6
            2  0  0  0     2.500      7
            1  1  0  0     2.500      8
            1  0  1  0     2.500      9
            0  2  0  0     2.500     10
            0  1  1  0     2.500     11
            0  0  2  0     2.500     12
1
 ***************************************************************************************************



                                              ***********************
                                              *  T E C H N I C A L  *
                                              ***********************
  



 =============================================================
 P A R A L L E L I Z A T I O N  and  V E C T O R I Z A T I O N
 =============================================================
  
 Nr of parallel processes:                                1
 Maximum vector length in NumInt loops:                 128

 IO buffersize (Mb):                                     64.000000



 =====================
 S C F   U P D A T E S
 =====================
  
 Max. nr. of cycles:                               300
 Convergence criterion:                              0.0000000100
   secondary criterion:                              0.0000000100

 Mix parameter (when DIIS does not apply):           0.2000000000
 Special mix parameter for the first cycle:          1.0000000000
 Mixed ADIIS+DIIS will be used
    Max number of expansion vectors:                10
    Pure ADIIS when Max([F,P]) is above              0.1000000000
    Pure DIIS when Max([F,P]) is below               0.0010000000
 Automatic ElectronSmearing (in case of problematic SCF convergence) disabled



 =================
 P R E C I S I O N  ***  (General: NumInt, NeglectFunctionTails, ...)  ***
 =================
  

 NumInt:           Target precision:                12.0000000000
 -------           Initial precision:               10.0000000000
                   Min. precision (optimization):   10.0000000000

 Neglect Functions:          Basis functions:        0.1000000000E-13
 ------------------          Fit functions:          0.1000000000E-13



 ===========================
 L I N E A R   S C A L I N G
 ===========================
  

 Cut-off radii density fit:                        0.1000000000E-97
 Overlap cut-off criterion AO matrix elements:     0.1000000000E-97
 Cut-offs for Coulomb potential and fitted density:0.1000000000E-97
 Cut-off criterion for Coulomb multipole terms:    0.1000000000E-97
 Progressive Convergence parameter:                 0.000000000    
1
 ***************************************************************************************************



                                            ***************************
                                            *  C O M P U T A T I O N  *
                                            ***************************
  

 Number of elements of the density matrix on this node (used, total):        78        78



 ===========================================
 Numerical Integration : Fuzzy Cells (Becke)
 ===========================================
  
 Becke grid quality: VERYGOOD       
  
 Lebedev angular grid order:             min:  13 max:  41
 Nr. of radial points:                   min:  64 max:  64

 Total nr. of points:         64
 Nr. of blocks:                1
 Block length:                64
 Nr. of dummy points:          0


 Test of Precision of the Numerical Integration Grid
 ===================================================

 Integral of the Total Core Density:                   0.00000000000000



 ========================
 Density Fitting (zlmFit)
 ========================
  
 ZlmFit Fit Quality: VERYGOOD       
  
 Max L-expansion:                        min:   0 max:   0
 Nr. of radial interpolation points:     min: 130 max: 130



 =====
 S C F  ***  ScaSCF  ***
 =====
  

 CYCLE    1
 SCF Error: norm([F,P])=      0.000000000000, max([F,P])=      0.000000000000
 orbitals (Q,E):
 ---------------
 S :1...3            ( 1.00    -0.5000)  ( 0.00    -0.0900)  ( 0.00     1.2939)
 P :1...1            ( 0.00     0.1562)
 D :1...1            ( 0.00     2.2917)

 CYCLE    2
 SCF Error: norm([F,P])=      0.030526162244, max([F,P])=      0.029682528591
 orbitals (Q,E):
 ---------------
 S :1...2            ( 1.00    -0.2270)  ( 0.00     0.1038)
 P :1...1            ( 0.00     0.4131)
 D :1...1            ( 0.00     2.5768)

 CYCLE    3
  SDIIS (wt  0.000):  0.1733  0.8267
 A-DIIS (wt  1.000):  0.0000  1.0000
  DIIS coefficients:  0.0000  1.0000
 SCF Error: norm([F,P])=      0.007183061946, max([F,P])=      0.006712148192
 orbitals (Q,E):
 ---------------
 S :1...2            ( 1.00    -0.2462)  ( 0.00     0.0917)
 P :1...1            ( 0.00     0.3973)
 D :1...1            ( 0.00     2.5583)

 CYCLE    4
  SDIIS (wt  0.999):  0.1398  0.8602
 A-DIIS (wt  0.001):  0.0000  1.0000
  DIIS coefficients:  0.1396  0.8604
 SCF Error: norm([F,P])=      0.001175086780, max([F,P])=      0.001143060931
 orbitals (Q,E):
 ---------------
 S :1...2            ( 1.00    -0.2434)  ( 0.00     0.0933)
 P :1...1            ( 0.00     0.3996)
 D :1...1            ( 0.00     2.5611)

 CYCLE    5
  SDIIS (wt  1.000):  0.0219  0.9781
  DIIS coefficients:  0.0219  0.9781
 SCF Error: norm([F,P])=      0.000027525369, max([F,P])=      0.000023543474
 orbitals (Q,E):
 ---------------
 S :1...2            ( 1.00    -0.2435)  ( 0.00     0.0932)
 P :1...1            ( 0.00     0.3996)
 D :1...1            ( 0.00     2.5610)

 CYCLE    6
  SDIIS (wt  1.000): -0.0582  1.0582
  DIIS coefficients: -0.0582  1.0582
 SCF Error: norm([F,P])=      0.000001514450, max([F,P])=      0.000001285214
 orbitals (Q,E):
 ---------------
 S :1...2            ( 1.00    -0.2435)  ( 0.00     0.0932)
 P :1...1            ( 0.00     0.3996)
 D :1...1            ( 0.00     2.5610)

 CYCLE    7
  SDIIS (wt  1.000): -0.0031  1.0031
  DIIS coefficients: -0.0031  1.0031
 SCF Error: norm([F,P])=      0.000000004705, max([F,P])=      0.000000004158
 orbitals (Q,E):
 ---------------
 S :1...2            ( 1.00    -0.2435)  ( 0.00     0.0932)
 P :1...1            ( 0.00     0.3996)
 D :1...1            ( 0.00     2.5610)

 SCF CONVERGED

 CYCLE    8
1
 ***************************************************************************************************



                                                *******************
                                                *  R E S U L T S  *
                                                *******************
  
 *** Setting up for NEW gradients in Focky
 *** Using FIT density in Focky

 Orbital Energies, per Irrep and Spin:
 ======================================
                        Occup              E (au)              E (eV)       Diff (eV) with prev. cycle
                        -----      --------------------        ------       --------------------------
 S
               1        1.000     -0.24350452296405E+00        -6.626               4.48E-09
               2        0.000      0.93233330888585E-01         2.537
               3        0.000      0.15154066862623E+01        41.236
 P
               1        0.000      0.39955072057198E+00        10.872
 D
               1        0.000      0.25610214787646E+01        69.689


 Partially Occupied:
               1 S                -0.24350452296405E+00
  
 LUMO :        2 S                 0.93233330888585E-01
  


 Orbital Energies, all Irreps
 ========================================

 Irrep        no.  (spin)   Occup              E (au)                E (eV)
 ---------------------------------------------------------------------------
 S             1             1.00       -0.24350452296405E+00        -6.6261
 S             2             0.00        0.93233330888585E-01         2.5370
 P             1             0.00        0.39955072057198E+00        10.8723
 S             3             0.00        0.15154066862623E+01        41.2363
 D             1             0.00        0.25610214787646E+01        69.6889


 All Electron Calculation, thus no Orbital Energies of the Core Orbitals are calculated



 =======================================
 M U L L I K E N   P O P U L A T I O N S
 =======================================
  
 The survey below gives for each atom:
 a) the total charge (Z minus electrons)
 b) the net spin polarization (nr of electrons spin-A minus spin-B)
 c) for each spin the atomic electron valence density (integrated) per L-value.

 Atom              Charge    Spin density          S         P         D         F
 ----              ------    ------------       ------    ------    ------    ------
 1 H               0.0000                       1.0000    0.0000    0.0000    0.0000

 Populations of individual BAS functions
 ----------------------------------------
 1 H            0.1853  0.7115  0.1032  0.0000  0.0000  0.0000  0.0000  0.0000  0.0000  0.0000
                0.0000  0.0000

 Gross Charges per Atom (Z minus electrons)
 ==========================================
             0.0000
 Net Total:  0.00000000



 =======================================================================
 Electrostatic potential at the Nuclei due to electrons and other nuclei
 =======================================================================
  
         Atom                  Potential
         ----                  ---------
     1)   H                   0.94550094
 
 
 ========================
 No memory problems found
 ========================
 
 Maximum number of active allocate calls:         363
 
 *******************************************************************************

                             A D F   E X I T
 NORMAL TERMINATION



 =================
 Timing Statistics
 =================
  
 Total Used :                     CPU=        0.30      System=        0.03     Elapsed=        0.33

 Calls  Section                     ( Mean, Percentage )
 ---------------------------------------------------------------------------------------------------
     3  ><      ................      0.00    0.33             0.00    0.00             0.00    0.24
     1  INIT    ................      0.01    3.01             0.01   55.56             0.03    7.88
     1  GEOMET  ................      0.00    1.67             0.00   14.81             0.01    2.55
     1  INPUTA  ................      0.00    0.33             0.00    0.00             0.00    0.44
     1  MAINSY  ................      0.00    1.34             0.00    7.41             0.01    1.71
     1  SYMFIT  ................      0.00    0.00             0.00    0.00             0.00    0.24
     1  CORORT  ................      0.00    0.33             0.00    0.00             0.00    0.08
     1  SYMORB  ................      0.00    0.00             0.00    0.00             0.00    0.16
     1  CLSMAT  ................      0.00    1.34             0.00    0.00             0.00    1.20
     1  ORTHON  ................      0.00    0.33             0.00    0.00             0.00    0.38
     1  GENPT   ................      0.01    3.01             0.00    3.70             0.01    3.02
     1  PTBAS   ................      0.00    1.00             0.00    3.70             0.00    1.03
     8  FOCKY   ................      0.03   69.90             0.00    3.70             0.03   64.18
     8  FOCKTR  ................      0.00    1.67             0.00    0.00             0.00    1.69
     8  SDIIS   ................      0.00    3.68             0.00    3.70             0.00    3.76
     1  COREPS  ................      0.02    5.35             0.00    0.00             0.02    4.82
     1  POPAN   ................      0.00    1.34             0.00    0.00             0.00    1.15
     1  DEBYE   ................      0.00    0.00             0.00    0.00             0.00    0.15
     1  EXIT PROCEDURE .........      0.02    5.35             0.00    7.41             0.02    5.30


 Currently Open Files (EXIT00)
 ====================

 Unit    Access Format  Status   Type       Ident (file)
 -------------------------------------------------------
   3      SEQ    FORM   TRANSP  NORMAL      LOGFILE
                                          ( logfile )


 Buffered I/O statistics
 =======================
 Memory available:                     67108864
 Number of records fitting in memory:     16131
 Input :   0.2% of                        17478  *4k bytes
 Output:  15.2% of                         1046  *4k bytes
 Records from serial files evicted:           0
                    others evicted:           0
 Hash table lookups:      44676 with          0 conflicts (  0.00%)

 ***************************************************************************************************
 (LOGFILE)
 <Apr18-2019> <21:03:14>  ADF development version  RunTime: Apr18-2019 21:03:14  Nodes: 1  Procs: 1
 <Apr18-2019> <21:03:14>  Hydrogen (TZ2P)
 <Apr18-2019> <21:03:14>  RunType   : CREATE
 <Apr18-2019> <21:03:14>  Net Charge: 0 (Nuclei minus Electrons)
 <Apr18-2019> <21:03:14>  Symmetry  : ATOM
  Coordinates
    Atom         X           Y           Z   (Angstrom)
    1.H         0.000000    0.000000    0.000000
 <Apr18-2019> <21:03:14>  >>>> CORORT
 <Apr18-2019> <21:03:14>  >>>> CLSMAT
 <Apr18-2019> <21:03:14>  >>>> ORTHON
 <Apr18-2019> <21:03:14>  >>>> GENPT
 <Apr18-2019> <21:03:14>  Block Length=  64
 <Apr18-2019> <21:03:14>  >>>> PTBAS
 <Apr18-2019> <21:03:14>  >>>> CYCLE
 <Apr18-2019> <21:03:14>              |Error|         MaxErr       Wt(A-DIIS)
 <Apr18-2019> <21:03:14>      1      0.00000000      0.00000000
 <Apr18-2019> <21:03:14>      2      0.03052616      0.02968253
 <Apr18-2019> <21:03:14>      3      0.00718306      0.00671215    100.0
 <Apr18-2019> <21:03:14>      4      0.00117509      0.00114306      0.1
 <Apr18-2019> <21:03:14>      5      0.00002753      0.00002354      0.0
 <Apr18-2019> <21:03:14>      6      0.00000151      0.00000129      0.0
 <Apr18-2019> <21:03:14>      7      0.00000000      0.00000000      0.0
 <Apr18-2019> <21:03:14>  SCF converged
 <Apr18-2019> <21:03:14>      8      0.00000000      0.00000000      0.0
 <Apr18-2019> <21:03:14>  >>>> POPAN
 <Apr18-2019> <21:03:14>  >>>> DEBYE
 <Apr18-2019> <21:03:14>  NORMAL TERMINATION
 <Apr18-2019> <21:03:14>  END

Create Br   file=TZ2P-Br
XC
  GGA BP86
End
End Input

 *******************************************************************************
 *                                                                             *
 *  -------------------------------------                                      *
 *   Amsterdam Density Functional  (ADF)         development version           *
 *  -------------------------------------                                      *
 *                                               r61132 2017-09-08             *
 *                                                                             *
 *                                                                             *
 *                              =================                              *
 *                              |               |                              *
 *                              |     A D F     |                              *
 *                              |               |                              *
 *                              =================                              *
 *                                                                             *
 *                                                                             *
 *   Online information and documentation:  https://www.scm.com/support/       *
 *   E-mail:  support@scm.com   info@scm.com                                   *
 *                                                                             *
 *   Scientific publications using ADF results must be properly referenced     *
 *   See the User Manuals (or the web site) for recommended citations          *
 *   The terms and conditions of the End User License Agreement apply to       *
 *   the use of ADF, https://www.scm.com/license-terms/                        *
 *                                                                             *
 **********************  x86_64_linux_intel / intelmpi  ************************
 
 Licensed to: VU/FEW (+ SARA) / ALGEMEEN / Amsterdam / THE NETHERLANDS
 SCM User ID: u7668
  
 ADF development version  RunTime: Apr18-2019 21:03:19  Nodes: 1  Procs: 1

 Temporary files are created in /local/datastore0/tcst25/186778/kid_0.nUbUd3

 Bromine (TZ2P)



 ===========================
 A T T A C H E D   F I L E S
 ===========================
  
 CREATE - Data File:    TZ2P-Br
                        Bromine (TZ2P)



 ===============================
 M O D E L   P A R A M E T E R S
 ===============================
  
 DENSITY FUNCTIONAL POTENTIAL (scf)
    LDA:                               VWN                                      
    Gradient Corrections:              Becke88 Perdew86                        == Not Default ==

 SPIN  (restricted / unrestr.)
    Molecule:                          Restricted                               

 OTHER ASPECTS
    Relativistic Corrections:          ---                                      

    Nuclear Charge Density Model:      Point Charge Nuclei                      
    Core Treatment:                    Frozen Orbital(s)                        

    Hyperfine or Zeeman Interaction:   ---                                      



 =====================================
 S Y M M E T R Y ,   E L E C T R O N S
 =====================================
  
 Symmetry: ATOM

 Irreducible Representations, including subspecies
 -------------------------------------------------
 S
 P:x  P:y  P:z
 D:z2  D:x2-y2  D:xy  D:xz  D:yz
 F:z3  F:z  F:xyz  F:z2x  F:z2y  F:x  F:y


 Configuration of Valence Electrons
 ==================================

          Occupation Numbers
          -------------------------------------------------
 S        4*2
 P        2*6 5
 D        10
 F        0
          -------------------------------------------------

 Total:   35

 Net Charge: 0 (Nuclei minus Electrons)

 Preset values for MO occupations will be applied through SCF cycle no. 1000000
 Thereafter, the program will assign electrons to MOs that are spatially
 similar to the occupied MOs in a "reference" cycle ("KeepOrbitals").
 The reference cycle is always the PREVIOUS cycle: it will evolve with
 the SCF procedure.



 ================================
 (Slater-type)  F U N C T I O N S  ***  (Basis and Fit)  ***
 ================================
  

 Atom Type    1  (Br)
 ==============

 Valence Basis Sets:  20
 -----------------------
   1 S   41.300000
   1 S   32.800000
   2 S   13.900000
   2 P   19.450000
   2 P   13.100000
   3 S    7.200000
   3 S    4.950000
   3 P    7.900000
   3 P    5.050000
   3 D   10.900000
   3 D    6.050000
   3 D    3.500000
   4 S    4.500000
   4 S    2.800000
   4 S    1.800000
   4 P    3.250000
   4 P    1.950000
   4 P    1.200000
   4 D    1.800000
   4 F    1.800000


 BAS: List of all Elementary Cartesian Basis Functions
 =====================================================

 The numbering in the list below (to the right of the function characteristics) is referred
 to in print-outs of MO eigenvectors and Mulliken populations in the BAS representation
 (as contrasted to the SFO representation).

 Notes:
 1. The functions are characterized by a polynomial prefactor (powers of x,y,z and r) and
    an exponential decay factor alpha.
 2. Since the basis sets are specific for an atom TYPE, the individual functions occur on
    all atoms of that type.
 3. The word 'Core' in the left margin signals that it is a Core Function (CF) : not a
    degree of freedom in the valence set, but only used to ensure orthogonalization of
    the other valence basis functions on the frozen Core Orbitals.


 (power of) X  Y  Z  R     Alpha  on Atom
            ==========     =====     ==========

 Br                                   1
                                  ---------------------------------------------------------------------------
            0  0  0  0    41.300      1
            0  0  0  0    32.800      2
            0  0  0  1    13.900      3
            1  0  0  0    19.450      4
            0  1  0  0    19.450      5
            0  0  1  0    19.450      6
            1  0  0  0    13.100      7
            0  1  0  0    13.100      8
            0  0  1  0    13.100      9
            0  0  0  2     7.200     10
            0  0  0  2     4.950     11
            1  0  0  1     7.900     12
            0  1  0  1     7.900     13
            0  0  1  1     7.900     14
            1  0  0  1     5.050     15
            0  1  0  1     5.050     16
            0  0  1  1     5.050     17
            2  0  0  0    10.900     18
            1  1  0  0    10.900     19
            1  0  1  0    10.900     20
            0  2  0  0    10.900     21
            0  1  1  0    10.900     22
            0  0  2  0    10.900     23
            2  0  0  0     6.050     24
            1  1  0  0     6.050     25
            1  0  1  0     6.050     26
            0  2  0  0     6.050     27
            0  1  1  0     6.050     28
            0  0  2  0     6.050     29
            2  0  0  0     3.500     30
            1  1  0  0     3.500     31
            1  0  1  0     3.500     32
            0  2  0  0     3.500     33
            0  1  1  0     3.500     34
            0  0  2  0     3.500     35
            0  0  0  3     4.500     36
            0  0  0  3     2.800     37
            0  0  0  3     1.800     38
            1  0  0  2     3.250     39
            0  1  0  2     3.250     40
            0  0  1  2     3.250     41
            1  0  0  2     1.950     42
            0  1  0  2     1.950     43
            0  0  1  2     1.950     44
            1  0  0  2     1.200     45
            0  1  0  2     1.200     46
            0  0  1  2     1.200     47
            2  0  0  1     1.800     48
            1  1  0  1     1.800     49
            1  0  1  1     1.800     50
            0  2  0  1     1.800     51
            0  1  1  1     1.800     52
            0  0  2  1     1.800     53
            3  0  0  0     1.800     54
            2  1  0  0     1.800     55
            2  0  1  0     1.800     56
            1  2  0  0     1.800     57
            1  1  1  0     1.800     58
            1  0  2  0     1.800     59
            0  3  0  0     1.800     60
            0  2  1  0     1.800     61
            0  1  2  0     1.800     62
            0  0  3  0     1.800     63

 Total number of charge fitting functions (nprimf)       170
 Total number of Cartesian basis functions (naos)         63
 Total number of Cartesian core functions  (ncos)          0



 BAS: List of all Elementary Cartesian Basis Functions
 =====================================================

 The numbering in the list below (to the right of the function characteristics) is referred
 to in print-outs of MO eigenvectors and Mulliken populations in the BAS representation
 (as contrasted to the SFO representation).

 Notes:
 1. The functions are characterized by a polynomial prefactor (powers of x,y,z and r) and
    an exponential decay factor alpha.
 2. Since the basis sets are specific for an atom TYPE, the individual functions occur on
    all atoms of that type.
 3. The word 'Core' in the left margin signals that it is a Core Function (CF) : not a
    degree of freedom in the valence set, but only used to ensure orthogonalization of
    the other valence basis functions on the frozen Core Orbitals.


 (power of) X  Y  Z  R     Alpha  on Atom
            ==========     =====     ==========

 Br                                   1
                                  ---------------------------------------------------------------------------
            0  0  0  0    41.300      1
            0  0  0  0    32.800      2
            0  0  0  1    13.900      3
            1  0  0  0    19.450      4
            0  1  0  0    19.450      5
            0  0  1  0    19.450      6
            1  0  0  0    13.100      7
            0  1  0  0    13.100      8
            0  0  1  0    13.100      9
            0  0  0  2     7.200     10
            0  0  0  2     4.950     11
            1  0  0  1     7.900     12
            0  1  0  1     7.900     13
            0  0  1  1     7.900     14
            1  0  0  1     5.050     15
            0  1  0  1     5.050     16
            0  0  1  1     5.050     17
            2  0  0  0    10.900     18
            1  1  0  0    10.900     19
            1  0  1  0    10.900     20
            0  2  0  0    10.900     21
            0  1  1  0    10.900     22
            0  0  2  0    10.900     23
            2  0  0  0     6.050     24
            1  1  0  0     6.050     25
            1  0  1  0     6.050     26
            0  2  0  0     6.050     27
            0  1  1  0     6.050     28
            0  0  2  0     6.050     29
            2  0  0  0     3.500     30
            1  1  0  0     3.500     31
            1  0  1  0     3.500     32
            0  2  0  0     3.500     33
            0  1  1  0     3.500     34
            0  0  2  0     3.500     35
            0  0  0  3     4.500     36
            0  0  0  3     2.800     37
            0  0  0  3     1.800     38
            1  0  0  2     3.250     39
            0  1  0  2     3.250     40
            0  0  1  2     3.250     41
            1  0  0  2     1.950     42
            0  1  0  2     1.950     43
            0  0  1  2     1.950     44
            1  0  0  2     1.200     45
            0  1  0  2     1.200     46
            0  0  1  2     1.200     47
            2  0  0  1     1.800     48
            1  1  0  1     1.800     49
            1  0  1  1     1.800     50
            0  2  0  1     1.800     51
            0  1  1  1     1.800     52
            0  0  2  1     1.800     53
            3  0  0  0     1.800     54
            2  1  0  0     1.800     55
            2  0  1  0     1.800     56
            1  2  0  0     1.800     57
            1  1  1  0     1.800     58
            1  0  2  0     1.800     59
            0  3  0  0     1.800     60
            0  2  1  0     1.800     61
            0  1  2  0     1.800     62
            0  0  3  0     1.800     63
1
 ***************************************************************************************************



                                              ***********************
                                              *  T E C H N I C A L  *
                                              ***********************
  



 =============================================================
 P A R A L L E L I Z A T I O N  and  V E C T O R I Z A T I O N
 =============================================================
  
 Nr of parallel processes:                                1
 Maximum vector length in NumInt loops:                 128

 IO buffersize (Mb):                                     64.000000



 =====================
 S C F   U P D A T E S
 =====================
  
 Max. nr. of cycles:                               300
 Convergence criterion:                              0.0000000100
   secondary criterion:                              0.0000000100

 Mix parameter (when DIIS does not apply):           0.2000000000
 Special mix parameter for the first cycle:          1.0000000000
 Mixed ADIIS+DIIS will be used
    Max number of expansion vectors:                10
    Pure ADIIS when Max([F,P]) is above              0.1000000000
    Pure DIIS when Max([F,P]) is below               0.0010000000
 Automatic ElectronSmearing (in case of problematic SCF convergence) disabled



 =================
 P R E C I S I O N  ***  (General: NumInt, NeglectFunctionTails, ...)  ***
 =================
  

 NumInt:           Target precision:                12.0000000000
 -------           Initial precision:               10.0000000000
                   Min. precision (optimization):   10.0000000000

 Neglect Functions:          Basis functions:        0.1000000000E-13
 ------------------          Fit functions:          0.1000000000E-13



 ===========================
 L I N E A R   S C A L I N G
 ===========================
  

 Cut-off radii density fit:                        0.1000000000E-97
 Overlap cut-off criterion AO matrix elements:     0.1000000000E-97
 Cut-offs for Coulomb potential and fitted density:0.1000000000E-97
 Cut-off criterion for Coulomb multipole terms:    0.1000000000E-97
 Progressive Convergence parameter:                 0.000000000    
1
 ***************************************************************************************************



                                            ***************************
                                            *  C O M P U T A T I O N  *
                                            ***************************
  

 Number of elements of the density matrix on this node (used, total):      2016      2016



 ===========================================
 Numerical Integration : Fuzzy Cells (Becke)
 ===========================================
  
 Becke grid quality: VERYGOOD       
  
 Lebedev angular grid order:             min:  13 max:  41
 Nr. of radial points:                   min: 106 max: 106

 Total nr. of points:        106
 Nr. of blocks:                1
 Block length:               106
 Nr. of dummy points:          0


 Test of Precision of the Numerical Integration Grid
 ===================================================

 Integral of the Total Core Density:                   0.00000000000000



 ========================
 Density Fitting (zlmFit)
 ========================
  
 ZlmFit Fit Quality: VERYGOOD       
  
 Max L-expansion:                        min:   0 max:   0
 Nr. of radial interpolation points:     min: 240 max: 240



 =====
 S C F  ***  ScaSCF  ***
 =====
  

 CYCLE    1
 SCF Error: norm([F,P])=      0.000000000000, max([F,P])=      0.000000000000
 orbitals (Q,E):
 ---------------
 S :1...8            ( 2.00  -612.4786)  ( 2.00  -152.6714)  ( 2.00   -67.1618)  ( 2.00   -37.3471)
                     ( 0.00   -23.4672)  ( 0.00   -15.4322)  ( 0.00    -9.8352)  ( 0.00   627.8721)
 P :1...7            ( 6.00  -153.0715)  ( 6.00   -67.2002)  ( 5.00   -36.6918)  ( 0.00   -21.5714)
                     ( 0.00   -12.7861)  ( 0.00    -7.3590)  ( 0.00    16.5106)
 D :1...4            (10.00   -67.9473)  ( 0.00   -38.1263)  ( 0.00   -23.3212)  ( 0.00   -12.4393)
 F :1...1            ( 0.00   -14.1300)

 CYCLE    2
  SDIIS (wt  0.000):  1.0000  0.0000
 A-DIIS (wt  1.000):  0.0000  1.0000
  DIIS coefficients:  0.0000  1.0000
 SCF Error: norm([F,P])=    133.920854037564, max([F,P])=     33.034025694644
 orbitals (Q,E):
 ---------------
 S :1...5            ( 2.00  -440.6773)  ( 2.00   -34.4822)  ( 2.00    -0.3721)  ( 2.00     0.2900)
                     ( 0.00     1.8189)
 P :1...4            ( 6.00   -26.4571)  ( 6.00     0.1035)  ( 5.00     0.4720)  ( 0.00     1.4688)
 D :1...2            (10.00     0.7250)  ( 0.00     3.5938)
 F :1...1            ( 0.00     1.4613)

 CYCLE    3
  SDIIS (wt  0.000):  0.1398  0.8602
 A-DIIS (wt  1.000):  0.4853  0.5147
  DIIS coefficients:  0.4853  0.5147
 SCF Error: norm([F,P])=     49.336945195774, max([F,P])=     17.766021196028
 orbitals (Q,E):
 ---------------
 S :1...5            ( 2.00  -480.6972)  ( 2.00   -64.6057)  ( 2.00   -13.5966)  ( 2.00    -3.4233)
                     ( 0.00    -0.5868)
 P :1...4            ( 6.00   -58.0308)  ( 6.00   -11.4430)  ( 5.00    -2.6790)  ( 0.00    -0.3453)
 D :1...2            (10.00    -7.6097)  ( 0.00    -1.4456)
 F :1...1            ( 0.00    -0.1798)

 CYCLE    4
  SDIIS (wt  0.000):  0.0239 -0.0048  0.9809
 A-DIIS (wt  1.000):  0.0000  0.0000  1.0000
  DIIS coefficients:  0.0000  0.0000  1.0000
 SCF Error: norm([F,P])=      9.264716084041, max([F,P])=      2.192836613966
 orbitals (Q,E):
 ---------------
 S :1...5            ( 2.00  -478.1029)  ( 2.00   -58.7576)  ( 2.00    -6.0554)  ( 2.00    -0.0620)
                     ( 0.00     0.6651)
 P :1...4            ( 6.00   -52.6793)  ( 6.00    -3.9701)  ( 5.00     0.0835)  ( 0.00     0.4503)
 D :1...2            (10.00    -0.2638)  ( 0.00     0.6812)
 F :1...1            ( 0.00     1.2444)

 CYCLE    5
  SDIIS (wt  0.000):  0.0184 -0.0305  0.5792  0.4328
 A-DIIS (wt  1.000):  0.0000  0.0000  0.5704  0.4296
  DIIS coefficients:  0.0000  0.0000  0.5704  0.4296
 SCF Error: norm([F,P])=     10.966556601340, max([F,P])=      3.673298945992
 orbitals (Q,E):
 ---------------
 S :1...5            ( 2.00  -481.9277)  ( 2.00   -62.3879)  ( 2.00    -8.5816)  ( 2.00    -0.8073)
                     ( 0.00     0.1745)
 P :1...4            ( 6.00   -56.3582)  ( 6.00    -6.4828)  ( 5.00    -0.3782)  ( 0.00     0.0938)
 D :1...2            (10.00    -2.6986)  ( 0.00     0.1802)
 F :1...1            ( 0.00     0.7730)

 CYCLE    6
  SDIIS (wt  0.000): -0.0027 -0.0010  0.0566  0.1206  0.8265
 A-DIIS (wt  1.000):  0.0000  0.0000  0.0000  0.0000  1.0000
  DIIS coefficients:  0.0000  0.0000  0.0000  0.0000  1.0000
 SCF Error: norm([F,P])=      1.941849589230, max([F,P])=      0.482150978129
 orbitals (Q,E):
 ---------------
 S :1...5            ( 2.00  -480.2968)  ( 2.00   -61.2110)  ( 2.00    -8.1479)  ( 2.00    -0.6522)
                     ( 0.00     0.2647)
 P :1...4            ( 6.00   -55.1019)  ( 6.00    -6.0429)  ( 5.00    -0.2472)  ( 0.00     0.1625)
 D :1...2            (10.00    -2.2460)  ( 0.00     0.2865)
 F :1...1            ( 0.00     0.8688)

 CYCLE    7
  SDIIS (wt  0.000): -0.0001  0.0002  0.0162 -0.0176  0.4478  0.5536
 A-DIIS (wt  1.000):  0.0000  0.0000  0.0000  0.0000  0.5641  0.4359
  DIIS coefficients:  0.0000  0.0000  0.0000  0.0000  0.5641  0.4359
 SCF Error: norm([F,P])=      1.828097340784, max([F,P])=      0.464473383812
 orbitals (Q,E):
 ---------------
 S :1...5            ( 2.00  -480.9658)  ( 2.00   -61.7564)  ( 2.00    -8.4211)  ( 2.00    -0.7175)
                     ( 0.00     0.2332)
 P :1...4            ( 6.00   -55.6701)  ( 6.00    -6.3167)  ( 5.00    -0.2959)  ( 0.00     0.1433)
 D :1...2            (10.00    -2.5206)  ( 0.00     0.2518)
 F :1...1            ( 0.00     0.8395)

 CYCLE    8
  SDIIS (wt  0.683): -0.0000 -0.0001 -0.0008  0.0000  0.0801  0.0242  0.8966
 A-DIIS (wt  0.317):  0.0000  0.0000  0.0000  0.0000  0.0000  0.0000  1.0000
  DIIS coefficients: -0.0000 -0.0000 -0.0006  0.0000  0.0547  0.0165  0.9293
 SCF Error: norm([F,P])=      0.129370925155, max([F,P])=      0.032356099502
 orbitals (Q,E):
 ---------------
 S :1...5            ( 2.00  -481.0351)  ( 2.00   -61.7934)  ( 2.00    -8.4186)  ( 2.00    -0.7120)
                     ( 0.00     0.2350)
 P :1...4            ( 6.00   -55.7125)  ( 6.00    -6.3147)  ( 5.00    -0.2918)  ( 0.00     0.1441)
 D :1...2            (10.00    -2.5193)  ( 0.00     0.2544)
 F :1...1            ( 0.00     0.8426)

 CYCLE    9
  SDIIS (wt  0.943):  0.0000 -0.0000 -0.0002  0.0001  0.0175  0.0064  0.3079  0.6684
 A-DIIS (wt  0.057):  0.0000  0.0000  0.0000  0.0000  0.0000  0.0000  0.0000  1.0000
  DIIS coefficients:  0.0000 -0.0000 -0.0002  0.0001  0.0165  0.0060  0.2904  0.6873
 SCF Error: norm([F,P])=      0.025418991137, max([F,P])=      0.006638245579
 orbitals (Q,E):
 ---------------
 S :1...5            ( 2.00  -481.0284)  ( 2.00   -61.7897)  ( 2.00    -8.4211)  ( 2.00    -0.7155)
                     ( 0.00     0.2331)
 P :1...4            ( 6.00   -55.7083)  ( 6.00    -6.3171)  ( 5.00    -0.2947)  ( 0.00     0.1428)
 D :1...2            (10.00    -2.5216)  ( 0.00     0.2521)
 F :1...1            ( 0.00     0.8402)

 CYCLE   10
  SDIIS (wt  1.000): -0.0000  0.0000  0.0000 -0.0000  0.0011 -0.0001  0.0178  0.1159  0.8653
  DIIS coefficients: -0.0000  0.0000  0.0000 -0.0000  0.0011 -0.0001  0.0178  0.1159  0.8653
 SCF Error: norm([F,P])=      0.003559800944, max([F,P])=      0.000977655486
 orbitals (Q,E):
 ---------------
 S :1...5            ( 2.00  -481.0291)  ( 2.00   -61.7903)  ( 2.00    -8.4210)  ( 2.00    -0.7152)
                     ( 0.00     0.2333)
 P :1...4            ( 6.00   -55.7089)  ( 6.00    -6.3171)  ( 5.00    -0.2945)  ( 0.00     0.1429)
 D :1...2            (10.00    -2.5215)  ( 0.00     0.2523)
 F :1...1            ( 0.00     0.8404)

 CYCLE   11
  SDIIS (wt  1.000):  0.0000  0.0000  0.0000  0.0000  0.0000 -0.0000  0.0002 -0.0007  0.0071  0.9934
  DIIS coefficients:  0.0000  0.0000  0.0000  0.0000  0.0000 -0.0000  0.0002 -0.0007  0.0071  0.9934
 SCF Error: norm([F,P])=      0.000028923993, max([F,P])=      0.000008535930
 orbitals (Q,E):
 ---------------
 S :1...5            ( 2.00  -481.0291)  ( 2.00   -61.7903)  ( 2.00    -8.4210)  ( 2.00    -0.7153)
                     ( 0.00     0.2333)
 P :1...4            ( 6.00   -55.7089)  ( 6.00    -6.3171)  ( 5.00    -0.2945)  ( 0.00     0.1429)
 D :1...2            (10.00    -2.5216)  ( 0.00     0.2523)
 F :1...1            ( 0.00     0.8404)

 CYCLE   12
  SDIIS (wt  1.000): -0.0000 -0.0000 -0.0000 -0.0001 -0.0112  1.0114
  DIIS coefficients: -0.0000 -0.0000 -0.0000 -0.0001 -0.0112  1.0114
 SCF Error: norm([F,P])=      0.000000498967, max([F,P])=      0.000000158342
 orbitals (Q,E):
 ---------------
 S :1...5            ( 2.00  -481.0291)  ( 2.00   -61.7903)  ( 2.00    -8.4210)  ( 2.00    -0.7153)
                     ( 0.00     0.2333)
 P :1...4            ( 6.00   -55.7089)  ( 6.00    -6.3171)  ( 5.00    -0.2945)  ( 0.00     0.1429)
 D :1...2            (10.00    -2.5216)  ( 0.00     0.2523)
 F :1...1            ( 0.00     0.8404)

 CYCLE   13
  SDIIS (wt  1.000): -0.0000 -0.0000  0.0000 -0.0073  1.0072
  DIIS coefficients: -0.0000 -0.0000  0.0000 -0.0073  1.0072
 SCF Error: norm([F,P])=      0.000000004220, max([F,P])=      0.000000001429
 orbitals (Q,E):
 ---------------
 S :1...5            ( 2.00  -481.0291)  ( 2.00   -61.7903)  ( 2.00    -8.4210)  ( 2.00    -0.7153)
                     ( 0.00     0.2333)
 P :1...4            ( 6.00   -55.7089)  ( 6.00    -6.3171)  ( 5.00    -0.2945)  ( 0.00     0.1429)
 D :1...2            (10.00    -2.5216)  ( 0.00     0.2523)
 F :1...1            ( 0.00     0.8404)

 SCF CONVERGED

 CYCLE   14
1
 ***************************************************************************************************



                                                *******************
                                                *  R E S U L T S  *
                                                *******************
  
 *** Setting up for NEW gradients in Focky
 *** Using FIT density in Focky

 Orbital Energies, per Irrep and Spin:
 ======================================
                        Occup              E (au)              E (eV)       Diff (eV) with prev. cycle
                        -----      --------------------        ------       --------------------------
 S
               1        2.000     -0.48102910960431E+03    -13089.468               1.18E-09
               2        2.000     -0.61790335555754E+02     -1681.401               1.20E-09
               3        2.000     -0.84210246503997E+01      -229.148               1.31E-09
               4        2.000     -0.71526122452121E+00       -19.463               1.16E-09
               5        0.000      0.23325436280959E+00         6.347
               6        0.000      0.24616635462098E+01        66.985
               7        0.000      0.14282884447867E+02       388.657
               8        0.000      0.74645973994270E+03     20312.203
 P
               1        6.000     -0.55708945709697E+02     -1515.918               1.19E-09
               2        6.000     -0.63170940209224E+01      -171.897               1.31E-09
               3        5.000     -0.29448623550877E+00        -8.013               9.84E-10
               4        0.000      0.14293403982408E+00         3.889
               5        0.000      0.12110957401221E+01        32.956
               6        0.000      0.88299643908710E+01       240.276
               7        0.000      0.10090146477562E+03      2745.669
 D
               1       10.000     -0.25215589094963E+01       -68.615               1.32E-09
               2        0.000      0.25229781612675E+00         6.865
               3        0.000      0.26757290352717E+01        72.810
               4        0.000      0.20600069322631E+02       560.556
 F
               1        0.000      0.84035988131638E+00        22.867


 Partially Occupied:
               3 P                -0.29448623550877E+00
  
 HOMO :        4 S                -0.71526122452121E+00
 LUMO :        4 P                 0.14293403982408E+00
  


 Orbital Energies, all Irreps
 ========================================

 Irrep        no.  (spin)   Occup              E (au)                E (eV)
 ---------------------------------------------------------------------------
 S             1             2.00       -0.48102910960431E+03    -13089.4681
 S             2             2.00       -0.61790335555754E+02     -1681.4006
 P             1             6.00       -0.55708945709697E+02     -1515.9175
 S             3             2.00       -0.84210246503997E+01      -229.1477
 P             2             6.00       -0.63170940209224E+01      -171.8969
 D             1            10.00       -0.25215589094963E+01       -68.6151
 S             4             2.00       -0.71526122452121E+00       -19.4632
 P             3             5.00       -0.29448623550877E+00        -8.0134
 P             4             0.00        0.14293403982408E+00         3.8894
 S             5             0.00        0.23325436280959E+00         6.3472
 D             2             0.00        0.25229781612675E+00         6.8654
 F             1             0.00        0.84035988131638E+00        22.8674
 P             5             0.00        0.12110957401221E+01        32.9556
 S             6             0.00        0.24616635462098E+01        66.9853
 D             3             0.00        0.26757290352717E+01        72.8103
 P             6             0.00        0.88299643908710E+01       240.2756
 S             7             0.00        0.14282884447867E+02       388.6571
 D             4             0.00        0.20600069322631E+02       560.5564
 P             7             0.00        0.10090146477562E+03      2745.6686
 S             8             0.00        0.74645973994270E+03     20312.2030


 All Electron Calculation, thus no Orbital Energies of the Core Orbitals are calculated



 =======================================
 M U L L I K E N   P O P U L A T I O N S
 =======================================
  
 The survey below gives for each atom:
 a) the total charge (Z minus electrons)
 b) the net spin polarization (nr of electrons spin-A minus spin-B)
 c) for each spin the atomic electron valence density (integrated) per L-value.

 Atom              Charge    Spin density          S         P         D         F
 ----              ------    ------------       ------    ------    ------    ------
 1 Br              0.0000                       8.0000   17.0000   10.0000    0.0000

 Populations of individual BAS functions
 ----------------------------------------
 1 Br           0.3611  1.5681  2.0732  0.7129  0.7129  0.7129  1.2651  1.2651  1.2651  1.4469
                0.5788  1.1356  1.1356  1.1356  0.8934  0.8934  0.8934  0.2676  0.4014  0.4014
                0.2676  0.4014  0.2676  0.7768  1.1651  1.1651  0.7768  1.1651  0.7768  0.2890
                0.4335  0.4335  0.2890  0.4335  0.2890  0.2758  1.2688  0.4273  0.5479  0.5479
                0.5479  0.9262  0.9262  0.9262  0.1856  0.1856  0.1856  0.0000  0.0000  0.0000
                0.0000  0.0000  0.0000  0.0000  0.0000  0.0000  0.0000  0.0000  0.0000  0.0000
                0.0000  0.0000  0.0000

 Gross Charges per Atom (Z minus electrons)
 ==========================================
             0.0000
 Net Total:  0.00000000



 =======================================================================
 Electrostatic potential at the Nuclei due to electrons and other nuclei
 =======================================================================
  
         Atom                  Potential
         ----                  ---------
     1)   Br                175.93592939
 
 
 ========================
 No memory problems found
 ========================
 
 Maximum number of active allocate calls:         447
 
 *******************************************************************************

                             A D F   E X I T
 NORMAL TERMINATION



 =================
 Timing Statistics
 =================
  
 Total Used :                     CPU=        0.82      System=        0.03     Elapsed=        5.81

 Calls  Section                     ( Mean, Percentage )
 ---------------------------------------------------------------------------------------------------
     3  ><      ................      0.00    0.12             0.00    0.00             0.00    0.01
     1  INIT    ................      0.01    1.21             0.01   48.39             4.99   85.75
     1  GEOMET  ................      0.01    0.73             0.00   12.91             0.01    0.17
     1  INPUTA  ................      0.00    0.24             0.00    0.00             0.00    0.03
     1  MAINSY  ................      0.00    0.61             0.00    6.45             0.01    0.12
     1  SYMFIT  ................      0.00    0.12             0.00    0.00             0.00    0.02
     1  CORORT  ................      0.00    0.00             0.00    0.00             0.00    0.00
     1  SYMORB  ................      0.00    0.12             0.00    0.00             0.00    0.01
     1  CLSMAT  ................      0.00    0.61             0.00    0.00             0.01    0.09
     1  ORTHON  ................      0.00    0.24             0.00    0.00             0.00    0.03
     1  GENPT   ................      0.02    3.03             0.00    0.00             0.03    0.43
     1  PTBAS   ................      0.00    0.49             0.00    0.00             0.00    0.06
    14  FOCKY   ................      0.05   80.83             0.00   19.35             0.05   11.56
    14  FOCKTR  ................      0.00    1.70             0.00    0.00             0.00    0.21
    14  SDIIS   ................      0.00    2.55             0.00    3.23             0.00    0.39
     1  COREPS  ................      0.04    4.49             0.00    0.00             0.04    0.64
     1  POPAN   ................      0.01    0.61             0.00    0.00             0.01    0.09
     1  DEBYE   ................      0.00    0.12             0.00    0.00             0.00    0.01
     1  EXIT PROCEDURE .........      0.02    2.18             0.00    9.68             0.02    0.35


 Currently Open Files (EXIT00)
 ====================

 Unit    Access Format  Status   Type       Ident (file)
 -------------------------------------------------------
   3      SEQ    FORM   TRANSP  NORMAL      LOGFILE
                                          ( logfile )


 Buffered I/O statistics
 =======================
 Memory available:                     67108864
 Number of records fitting in memory:     16131
 Input :   0.1% of                        29677  *4k bytes
 Output:  11.9% of                         1574  *4k bytes
 Records from serial files evicted:           0
                    others evicted:           0
 Hash table lookups:      77044 with          0 conflicts (  0.00%)

 ***************************************************************************************************
 (LOGFILE)
 <Apr18-2019> <21:03:14>  ADF development version  RunTime: Apr18-2019 21:03:14  Nodes: 1  Procs: 1
 <Apr18-2019> <21:03:14>  Hydrogen (TZ2P)
 <Apr18-2019> <21:03:14>  RunType   : CREATE
 <Apr18-2019> <21:03:14>  Net Charge: 0 (Nuclei minus Electrons)
 <Apr18-2019> <21:03:14>  Symmetry  : ATOM
  Coordinates
    Atom         X           Y           Z   (Angstrom)
    1.H         0.000000    0.000000    0.000000
 <Apr18-2019> <21:03:14>  >>>> CORORT
 <Apr18-2019> <21:03:14>  >>>> CLSMAT
 <Apr18-2019> <21:03:14>  >>>> ORTHON
 <Apr18-2019> <21:03:14>  >>>> GENPT
 <Apr18-2019> <21:03:14>  Block Length=  64
 <Apr18-2019> <21:03:14>  >>>> PTBAS
 <Apr18-2019> <21:03:14>  >>>> CYCLE
 <Apr18-2019> <21:03:14>              |Error|         MaxErr       Wt(A-DIIS)
 <Apr18-2019> <21:03:14>      1      0.00000000      0.00000000
 <Apr18-2019> <21:03:14>      2      0.03052616      0.02968253
 <Apr18-2019> <21:03:14>      3      0.00718306      0.00671215    100.0
 <Apr18-2019> <21:03:14>      4      0.00117509      0.00114306      0.1
 <Apr18-2019> <21:03:14>      5      0.00002753      0.00002354      0.0
 <Apr18-2019> <21:03:14>      6      0.00000151      0.00000129      0.0
 <Apr18-2019> <21:03:14>      7      0.00000000      0.00000000      0.0
 <Apr18-2019> <21:03:14>  SCF converged
 <Apr18-2019> <21:03:14>      8      0.00000000      0.00000000      0.0
 <Apr18-2019> <21:03:14>  >>>> POPAN
 <Apr18-2019> <21:03:14>  >>>> DEBYE
 <Apr18-2019> <21:03:14>  NORMAL TERMINATION
 <Apr18-2019> <21:03:14>  END
 <Apr18-2019> <21:03:19>  ADF development version  RunTime: Apr18-2019 21:03:19  Nodes: 1  Procs: 1
 <Apr18-2019> <21:03:19>  Bromine (TZ2P)
 <Apr18-2019> <21:03:19>  RunType   : CREATE
 <Apr18-2019> <21:03:19>  Net Charge: 0 (Nuclei minus Electrons)
 <Apr18-2019> <21:03:19>  Symmetry  : ATOM
  Coordinates
    Atom         X           Y           Z   (Angstrom)
    1.Br        0.000000    0.000000    0.000000
 <Apr18-2019> <21:03:19>  >>>> CORORT
 <Apr18-2019> <21:03:19>  >>>> CLSMAT
 <Apr18-2019> <21:03:19>  >>>> ORTHON
 <Apr18-2019> <21:03:19>  >>>> GENPT
 <Apr18-2019> <21:03:19>  Block Length= 106
 <Apr18-2019> <21:03:19>  >>>> PTBAS
 <Apr18-2019> <21:03:19>  >>>> CYCLE
 <Apr18-2019> <21:03:20>              |Error|         MaxErr       Wt(A-DIIS)
 <Apr18-2019> <21:03:20>      1      0.00000000      0.00000000
 <Apr18-2019> <21:03:20>      2    133.92085404     33.03402569    100.0
 <Apr18-2019> <21:03:20>      3     49.33694520     17.76602120    100.0
 <Apr18-2019> <21:03:20>      4      9.26471608      2.19283661    100.0
 <Apr18-2019> <21:03:20>      5     10.96655660      3.67329895    100.0
 <Apr18-2019> <21:03:20>      6      1.94184959      0.48215098    100.0
 <Apr18-2019> <21:03:20>      7      1.82809734      0.46447338    100.0
 <Apr18-2019> <21:03:20>      8      0.12937093      0.03235610     31.7
 <Apr18-2019> <21:03:20>      9      0.02541899      0.00663825      5.7
 <Apr18-2019> <21:03:20>     10      0.00355980      0.00097766      0.0
 <Apr18-2019> <21:03:20>     11      0.00002892      0.00000854      0.0
 <Apr18-2019> <21:03:20>     12      0.00000050      0.00000016      0.0
 <Apr18-2019> <21:03:20>     13      0.00000000      0.00000000      0.0
 <Apr18-2019> <21:03:20>  SCF converged
 <Apr18-2019> <21:03:20>     14      0.00000000      0.00000000      0.0
 <Apr18-2019> <21:03:20>  >>>> POPAN
 <Apr18-2019> <21:03:20>  >>>> DEBYE
 <Apr18-2019> <21:03:20>  NORMAL TERMINATION
 <Apr18-2019> <21:03:20>  END

Create N   file=TZ2P-N
XC
  GGA BP86
End
End Input

 *******************************************************************************
 *                                                                             *
 *  -------------------------------------                                      *
 *   Amsterdam Density Functional  (ADF)         development version           *
 *  -------------------------------------                                      *
 *                                               r61132 2017-09-08             *
 *                                                                             *
 *                                                                             *
 *                              =================                              *
 *                              |               |                              *
 *                              |     A D F     |                              *
 *                              |               |                              *
 *                              =================                              *
 *                                                                             *
 *                                                                             *
 *   Online information and documentation:  https://www.scm.com/support/       *
 *   E-mail:  support@scm.com   info@scm.com                                   *
 *                                                                             *
 *   Scientific publications using ADF results must be properly referenced     *
 *   See the User Manuals (or the web site) for recommended citations          *
 *   The terms and conditions of the End User License Agreement apply to       *
 *   the use of ADF, https://www.scm.com/license-terms/                        *
 *                                                                             *
 **********************  x86_64_linux_intel / intelmpi  ************************
 
 Licensed to: VU/FEW (+ SARA) / ALGEMEEN / Amsterdam / THE NETHERLANDS
 SCM User ID: u7668
  
 ADF development version  RunTime: Apr18-2019 21:03:20  Nodes: 1  Procs: 1

 Temporary files are created in /local/datastore0/tcst25/186778/kid_0.kbj1R9

 Nitrogen (TZ2P)



 ===========================
 A T T A C H E D   F I L E S
 ===========================
  
 CREATE - Data File:    TZ2P-N
                        Nitrogen (TZ2P)



 ===============================
 M O D E L   P A R A M E T E R S
 ===============================
  
 DENSITY FUNCTIONAL POTENTIAL (scf)
    LDA:                               VWN                                      
    Gradient Corrections:              Becke88 Perdew86                        == Not Default ==

 SPIN  (restricted / unrestr.)
    Molecule:                          Restricted                               

 OTHER ASPECTS
    Relativistic Corrections:          ---                                      

    Nuclear Charge Density Model:      Point Charge Nuclei                      
    Core Treatment:                    Frozen Orbital(s)                        

    Hyperfine or Zeeman Interaction:   ---                                      



 =====================================
 S Y M M E T R Y ,   E L E C T R O N S
 =====================================
  
 Symmetry: ATOM

 Irreducible Representations, including subspecies
 -------------------------------------------------
 S
 P:x  P:y  P:z
 D:z2  D:x2-y2  D:xy  D:xz  D:yz
 F:z3  F:z  F:xyz  F:z2x  F:z2y  F:x  F:y


 Configuration of Valence Electrons
 ==================================

          Occupation Numbers
          -------------------------------------------------
 S        2*2
 P        3
 D        0
 F        0
          -------------------------------------------------

 Total:   7

 Net Charge: 0 (Nuclei minus Electrons)

 Preset values for MO occupations will be applied through SCF cycle no. 1000000
 Thereafter, the program will assign electrons to MOs that are spatially
 similar to the occupied MOs in a "reference" cycle ("KeepOrbitals").
 The reference cycle is always the PREVIOUS cycle: it will evolve with
 the SCF procedure.



 ================================
 (Slater-type)  F U N C T I O N S  ***  (Basis and Fit)  ***
 ================================
  

 Atom Type    1  (N)
 ==============

 Valence Basis Sets:  10
 -----------------------
   1 S    8.740000
   1 S    5.900000
   2 S    5.150000
   2 S    2.500000
   2 S    1.500000
   2 P    3.680000
   2 P    1.880000
   2 P    1.000000
   3 D    2.200000
   4 F    3.300000


 BAS: List of all Elementary Cartesian Basis Functions
 =====================================================

 The numbering in the list below (to the right of the function characteristics) is referred
 to in print-outs of MO eigenvectors and Mulliken populations in the BAS representation
 (as contrasted to the SFO representation).

 Notes:
 1. The functions are characterized by a polynomial prefactor (powers of x,y,z and r) and
    an exponential decay factor alpha.
 2. Since the basis sets are specific for an atom TYPE, the individual functions occur on
    all atoms of that type.
 3. The word 'Core' in the left margin signals that it is a Core Function (CF) : not a
    degree of freedom in the valence set, but only used to ensure orthogonalization of
    the other valence basis functions on the frozen Core Orbitals.


 (power of) X  Y  Z  R     Alpha  on Atom
            ==========     =====     ==========

 N                                    1
                                  ---------------------------------------------------------------------------
            0  0  0  0     8.740      1
            0  0  0  0     5.900      2
            0  0  0  1     5.150      3
            0  0  0  1     2.500      4
            0  0  0  1     1.500      5
            1  0  0  0     3.680      6
            0  1  0  0     3.680      7
            0  0  1  0     3.680      8
            1  0  0  0     1.880      9
            0  1  0  0     1.880     10
            0  0  1  0     1.880     11
            1  0  0  0     1.000     12
            0  1  0  0     1.000     13
            0  0  1  0     1.000     14
            2  0  0  0     2.200     15
            1  1  0  0     2.200     16
            1  0  1  0     2.200     17
            0  2  0  0     2.200     18
            0  1  1  0     2.200     19
            0  0  2  0     2.200     20
            3  0  0  0     3.300     21
            2  1  0  0     3.300     22
            2  0  1  0     3.300     23
            1  2  0  0     3.300     24
            1  1  1  0     3.300     25
            1  0  2  0     3.300     26
            0  3  0  0     3.300     27
            0  2  1  0     3.300     28
            0  1  2  0     3.300     29
            0  0  3  0     3.300     30

 Total number of charge fitting functions (nprimf)        84
 Total number of Cartesian basis functions (naos)         30
 Total number of Cartesian core functions  (ncos)          0



 BAS: List of all Elementary Cartesian Basis Functions
 =====================================================

 The numbering in the list below (to the right of the function characteristics) is referred
 to in print-outs of MO eigenvectors and Mulliken populations in the BAS representation
 (as contrasted to the SFO representation).

 Notes:
 1. The functions are characterized by a polynomial prefactor (powers of x,y,z and r) and
    an exponential decay factor alpha.
 2. Since the basis sets are specific for an atom TYPE, the individual functions occur on
    all atoms of that type.
 3. The word 'Core' in the left margin signals that it is a Core Function (CF) : not a
    degree of freedom in the valence set, but only used to ensure orthogonalization of
    the other valence basis functions on the frozen Core Orbitals.


 (power of) X  Y  Z  R     Alpha  on Atom
            ==========     =====     ==========

 N                                    1
                                  ---------------------------------------------------------------------------
            0  0  0  0     8.740      1
            0  0  0  0     5.900      2
            0  0  0  1     5.150      3
            0  0  0  1     2.500      4
            0  0  0  1     1.500      5
            1  0  0  0     3.680      6
            0  1  0  0     3.680      7
            0  0  1  0     3.680      8
            1  0  0  0     1.880      9
            0  1  0  0     1.880     10
            0  0  1  0     1.880     11
            1  0  0  0     1.000     12
            0  1  0  0     1.000     13
            0  0  1  0     1.000     14
            2  0  0  0     2.200     15
            1  1  0  0     2.200     16
            1  0  1  0     2.200     17
            0  2  0  0     2.200     18
            0  1  1  0     2.200     19
            0  0  2  0     2.200     20
            3  0  0  0     3.300     21
            2  1  0  0     3.300     22
            2  0  1  0     3.300     23
            1  2  0  0     3.300     24
            1  1  1  0     3.300     25
            1  0  2  0     3.300     26
            0  3  0  0     3.300     27
            0  2  1  0     3.300     28
            0  1  2  0     3.300     29
            0  0  3  0     3.300     30
1
 ***************************************************************************************************



                                              ***********************
                                              *  T E C H N I C A L  *
                                              ***********************
  



 =============================================================
 P A R A L L E L I Z A T I O N  and  V E C T O R I Z A T I O N
 =============================================================
  
 Nr of parallel processes:                                1
 Maximum vector length in NumInt loops:                 128

 IO buffersize (Mb):                                     64.000000



 =====================
 S C F   U P D A T E S
 =====================
  
 Max. nr. of cycles:                               300
 Convergence criterion:                              0.0000000100
   secondary criterion:                              0.0000000100

 Mix parameter (when DIIS does not apply):           0.2000000000
 Special mix parameter for the first cycle:          1.0000000000
 Mixed ADIIS+DIIS will be used
    Max number of expansion vectors:                10
    Pure ADIIS when Max([F,P]) is above              0.1000000000
    Pure DIIS when Max([F,P]) is below               0.0010000000
 Automatic ElectronSmearing (in case of problematic SCF convergence) disabled



 =================
 P R E C I S I O N  ***  (General: NumInt, NeglectFunctionTails, ...)  ***
 =================
  

 NumInt:           Target precision:                12.0000000000
 -------           Initial precision:               10.0000000000
                   Min. precision (optimization):   10.0000000000

 Neglect Functions:          Basis functions:        0.1000000000E-13
 ------------------          Fit functions:          0.1000000000E-13



 ===========================
 L I N E A R   S C A L I N G
 ===========================
  

 Cut-off radii density fit:                        0.1000000000E-97
 Overlap cut-off criterion AO matrix elements:     0.1000000000E-97
 Cut-offs for Coulomb potential and fitted density:0.1000000000E-97
 Cut-off criterion for Coulomb multipole terms:    0.1000000000E-97
 Progressive Convergence parameter:                 0.000000000    
1
 ***************************************************************************************************



                                            ***************************
                                            *  C O M P U T A T I O N  *
                                            ***************************
  

 Number of elements of the density matrix on this node (used, total):       465       465



 ===========================================
 Numerical Integration : Fuzzy Cells (Becke)
 ===========================================
  
 Becke grid quality: VERYGOOD       
  
 Lebedev angular grid order:             min:  13 max:  41
 Nr. of radial points:                   min:  72 max:  72

 Total nr. of points:         72
 Nr. of blocks:                1
 Block length:                72
 Nr. of dummy points:          0


 Test of Precision of the Numerical Integration Grid
 ===================================================

 Integral of the Total Core Density:                   0.00000000000000



 ========================
 Density Fitting (zlmFit)
 ========================
  
 ZlmFit Fit Quality: VERYGOOD       
  
 Max L-expansion:                        min:   0 max:   0
 Nr. of radial interpolation points:     min: 160 max: 160



 =====
 S C F  ***  ScaSCF  ***
 =====
  

 CYCLE    1
 SCF Error: norm([F,P])=      0.000000000000, max([F,P])=      0.000000000000
 orbitals (Q,E):
 ---------------
 S :1...5            ( 2.00   -24.4993)  ( 2.00    -6.1004)  ( 0.00    -2.6599)  ( 0.00     0.7211)
                     ( 0.00    54.4424)
 P :1...3            ( 3.00    -6.1210)  ( 0.00    -2.6439)  ( 0.00    -1.4084)
 D :1...1            ( 0.00    -2.7133)
 F :1...1            ( 0.00    -0.3300)

 CYCLE    2
  SDIIS (wt  0.000):  1.0000 -0.0000
 A-DIIS (wt  1.000):  0.0000  1.0000
  DIIS coefficients:  0.0000  1.0000
 SCF Error: norm([F,P])=      6.451367365890, max([F,P])=      4.219703087224
 orbitals (Q,E):
 ---------------
 S :1...3            ( 2.00   -10.8287)  ( 2.00     0.0014)  ( 0.00     1.1966)
 P :1...2            ( 3.00     0.1843)  ( 0.00     0.9564)
 D :1...1            ( 0.00     1.8417)
 F :1...1            ( 0.00     4.7248)

 CYCLE    3
  SDIIS (wt  0.000):  0.2198  0.7802
 A-DIIS (wt  1.000):  0.2131  0.7869
  DIIS coefficients:  0.2131  0.7869
 SCF Error: norm([F,P])=      2.481517685351, max([F,P])=      1.954795594132
 orbitals (Q,E):
 ---------------
 S :1...3            ( 2.00   -15.1747)  ( 2.00    -1.2497)  ( 0.00     0.2017)
 P :1...2            ( 3.00    -0.8323)  ( 0.00     0.0719)
 D :1...1            ( 0.00     0.7940)
 F :1...1            ( 0.00     3.4887)

 CYCLE    4
  SDIIS (wt  0.000): -0.0612  0.1925  0.8687
 A-DIIS (wt  1.000):  0.0000  0.0259  0.9741
  DIIS coefficients:  0.0000  0.0259  0.9741
 SCF Error: norm([F,P])=      0.970371105527, max([F,P])=      0.641065486122
 orbitals (Q,E):
 ---------------
 S :1...3            ( 2.00   -13.4412)  ( 2.00    -0.4401)  ( 0.00     0.6963)
 P :1...2            ( 3.00    -0.0468)  ( 0.00     0.4437)
 D :1...1            ( 0.00     1.4306)
 F :1...1            ( 0.00     4.2280)

 CYCLE    5
  SDIIS (wt  0.000): -0.0222 -0.0718  0.4807  0.6133
 A-DIIS (wt  1.000):  0.0000  0.0000  0.4633  0.5367
  DIIS coefficients:  0.0000  0.0000  0.4633  0.5367
 SCF Error: norm([F,P])=      0.831034576935, max([F,P])=      0.578511378985
 orbitals (Q,E):
 ---------------
 S :1...3            ( 2.00   -14.1857)  ( 2.00    -0.7190)  ( 0.00     0.4998)
 P :1...2            ( 3.00    -0.2946)  ( 0.00     0.2748)
 D :1...1            ( 0.00     1.2103)
 F :1...1            ( 0.00     3.9682)

 CYCLE    6
  SDIIS (wt  0.696):  0.0027 -0.0052 -0.0171  0.0723  0.9473
 A-DIIS (wt  0.304):  0.0000  0.0000  0.0000  0.0000  1.0000
  DIIS coefficients:  0.0019 -0.0036 -0.0119  0.0503  0.9634
 SCF Error: norm([F,P])=      0.059655214985, max([F,P])=      0.031138717216
 orbitals (Q,E):
 ---------------
 S :1...3            ( 2.00   -14.1243)  ( 2.00    -0.6773)  ( 0.00     0.5219)
 P :1...2            ( 3.00    -0.2558)  ( 0.00     0.2921)
 D :1...1            ( 0.00     1.2456)
 F :1...1            ( 0.00     4.0096)

 CYCLE    7
  SDIIS (wt  0.824): -0.0002  0.0014  0.0138 -0.0266 -0.0370  1.0487
 A-DIIS (wt  0.176):  0.0000  0.0000  0.0000  0.0000  0.0360  0.9640
  DIIS coefficients: -0.0002  0.0011  0.0114 -0.0220 -0.0242  1.0338
 SCF Error: norm([F,P])=      0.027721651816, max([F,P])=      0.018404675135
 orbitals (Q,E):
 ---------------
 S :1...3            ( 2.00   -14.1511)  ( 2.00    -0.6888)  ( 0.00     0.5142)
 P :1...2            ( 3.00    -0.2669)  ( 0.00     0.2857)
 D :1...1            ( 0.00     1.2367)
 F :1...1            ( 0.00     3.9991)

 CYCLE    8
  SDIIS (wt  0.979): -0.0000  0.0002  0.0011 -0.0022 -0.0006  0.2099  0.7916
 A-DIIS (wt  0.021):  0.0000  0.0000  0.0000  0.0000  0.0000  0.0000  1.0000
  DIIS coefficients: -0.0000  0.0002  0.0011 -0.0021 -0.0006  0.2055  0.7960
 SCF Error: norm([F,P])=      0.004499232480, max([F,P])=      0.003081258258
 orbitals (Q,E):
 ---------------
 S :1...3            ( 2.00   -14.1473)  ( 2.00    -0.6873)  ( 0.00     0.5152)
 P :1...2            ( 3.00    -0.2655)  ( 0.00     0.2865)
 D :1...1            ( 0.00     1.2378)
 F :1...1            ( 0.00     4.0005)

 CYCLE    9
  SDIIS (wt  1.000):  0.0000 -0.0000 -0.0001  0.0001 -0.0002 -0.0094 -0.0232  1.0327
  DIIS coefficients:  0.0000 -0.0000 -0.0001  0.0001 -0.0002 -0.0094 -0.0232  1.0327
 SCF Error: norm([F,P])=      0.000019361449, max([F,P])=      0.000012105781
 orbitals (Q,E):
 ---------------
 S :1...3            ( 2.00   -14.1473)  ( 2.00    -0.6873)  ( 0.00     0.5152)
 P :1...2            ( 3.00    -0.2655)  ( 0.00     0.2865)
 D :1...1            ( 0.00     1.2378)
 F :1...1            ( 0.00     4.0005)

 CYCLE   10
  SDIIS (wt  1.000): -0.0000 -0.0000  0.0000  0.0000 -0.0001  0.0001  0.0232  0.9769
  DIIS coefficients: -0.0000 -0.0000  0.0000  0.0000 -0.0001  0.0001  0.0232  0.9769
 SCF Error: norm([F,P])=      0.000001838439, max([F,P])=      0.000001230955
 orbitals (Q,E):
 ---------------
 S :1...3            ( 2.00   -14.1473)  ( 2.00    -0.6873)  ( 0.00     0.5152)
 P :1...2            ( 3.00    -0.2655)  ( 0.00     0.2865)
 D :1...1            ( 0.00     1.2378)
 F :1...1            ( 0.00     4.0005)

 CYCLE   11
  SDIIS (wt  1.000): -0.0000 -0.0000 -0.0000 -0.0006 -0.0321  1.0328
  DIIS coefficients: -0.0000 -0.0000 -0.0000 -0.0006 -0.0321  1.0328
 SCF Error: norm([F,P])=      0.000000052960, max([F,P])=      0.000000032927
 orbitals (Q,E):
 ---------------
 S :1...3            ( 2.00   -14.1473)  ( 2.00    -0.6873)  ( 0.00     0.5152)
 P :1...2            ( 3.00    -0.2655)  ( 0.00     0.2865)
 D :1...1            ( 0.00     1.2378)
 F :1...1            ( 0.00     4.0005)

 CYCLE   12
  SDIIS (wt  1.000): -0.0000  0.0000 -0.0002  0.0076  0.9926
  DIIS coefficients: -0.0000  0.0000 -0.0002  0.0076  0.9926
 SCF Error: norm([F,P])=      0.000000000214, max([F,P])=      0.000000000118
 orbitals (Q,E):
 ---------------
 S :1...3            ( 2.00   -14.1473)  ( 2.00    -0.6873)  ( 0.00     0.5152)
 P :1...2            ( 3.00    -0.2655)  ( 0.00     0.2865)
 D :1...1            ( 0.00     1.2378)
 F :1...1            ( 0.00     4.0005)

 SCF CONVERGED

 CYCLE   13
1
 ***************************************************************************************************



                                                *******************
                                                *  R E S U L T S  *
                                                *******************
  
 *** Setting up for NEW gradients in Focky
 *** Using FIT density in Focky

 Orbital Energies, per Irrep and Spin:
 ======================================
                        Occup              E (au)              E (eV)       Diff (eV) with prev. cycle
                        -----      --------------------        ------       --------------------------
 S
               1        2.000     -0.14147275471391E+02      -384.967               8.94E-10
               2        2.000     -0.68732764310953E+00       -18.703               5.68E-10
               3        0.000      0.51515957710219E+00        14.018
               4        0.000      0.68959769444915E+01       187.649
               5        0.000      0.63979073432212E+02      1740.959
 P
               1        3.000     -0.26548379507191E+00        -7.224               5.44E-10
               2        0.000      0.28654429146964E+00         7.797
               3        0.000      0.32908032270942E+01        89.547
 D
               1        0.000      0.12378131244837E+01        33.683
 F
               1        0.000      0.40004783530592E+01       108.859


 Partially Occupied:
               1 P                -0.26548379507191E+00
  
 HOMO :        2 S                -0.68732764310953E+00
 LUMO :        2 P                 0.28654429146964E+00
  


 Orbital Energies, all Irreps
 ========================================

 Irrep        no.  (spin)   Occup              E (au)                E (eV)
 ---------------------------------------------------------------------------
 S             1             2.00       -0.14147275471391E+02      -384.9670
 S             2             2.00       -0.68732764310953E+00       -18.7031
 P             1             3.00       -0.26548379507191E+00        -7.2242
 P             2             0.00        0.28654429146964E+00         7.7973
[...]
 <Apr18-2019> <21:06:40>      4      0.00885987      0.00139375      0.4
 <Apr18-2019> <21:06:41>      5      0.00148622      0.00023809      0.0
 <Apr18-2019> <21:06:41>      6      0.00023133      0.00004644      0.0
 <Apr18-2019> <21:06:42>      7      0.00007521      0.00001346      0.0
 <Apr18-2019> <21:06:42>      8      0.00001750      0.00000274      0.0
 <Apr18-2019> <21:06:42>      9      0.00000661      0.00000099      0.0
 <Apr18-2019> <21:06:43>  SCF converged
 <Apr18-2019> <21:06:43>     10      0.00000166      0.00000021      0.0
 <Apr18-2019> <21:06:43>  >>>> TOTEN
 <Apr18-2019> <21:06:44>  >>>> POPAN
 <Apr18-2019> <21:06:44>  >>>> DEBYE
 <Apr18-2019> <21:06:44>  >>>> ENGRAD
 <Apr18-2019> <21:06:44>  current energy                               -1.23690901 Hartree
 <Apr18-2019> <21:06:44>  energy change                      -0.00021121     0.00010000    F
 <Apr18-2019> <21:06:44>  constrained gradient max            0.00639187     0.00010000    F
 <Apr18-2019> <21:06:44>  constrained gradient rms            0.00233115     0.00006667    F
 <Apr18-2019> <21:06:44>  gradient max                        0.00639187
 <Apr18-2019> <21:06:44>  gradient rms                        0.00233115
 <Apr18-2019> <21:06:44>  cart. step max                      0.03610154     0.01000000    F
 <Apr18-2019> <21:06:44>  cart. step rms                      0.01365941     0.00666667    F
  Coordinates in Geometry Cycle 33
    Atom         X           Y           Z   (Angstrom)
    1.B        -0.775779   -0.392223   -0.780104
    2.Br       -0.795307    0.765547   -2.435120
    3.Br       -1.543235   -2.233435   -1.076372
    4.Br       -1.528036    0.531949    0.838691
    5.H         1.255178    0.279286   -0.287674
    6.N         0.792195   -0.618876   -0.450405
    7.H         1.249685   -1.087950   -1.242135
    8.H         0.899720   -1.216008    0.382470
 <Apr18-2019> <21:06:44>  >>>> CORORT
 <Apr18-2019> <21:06:44>  >>>> CLSMAT
 <Apr18-2019> <21:06:44>  >>>> ORTHON
 <Apr18-2019> <21:06:44>  >>>> GENPT
 <Apr18-2019> <21:06:44>  Block Length= 128
 <Apr18-2019> <21:06:44>  >>>> PTBAS
 <Apr18-2019> <21:06:45>  >>>> CYCLE
 <Apr18-2019> <21:06:45>              |Error|         MaxErr       Wt(A-DIIS)
 <Apr18-2019> <21:06:45>      1      0.06730768      0.01606612
 <Apr18-2019> <21:06:46>      2      0.00979373      0.00181685    100.0
 <Apr18-2019> <21:06:46>      3      0.00521124      0.00091378    100.0
 <Apr18-2019> <21:06:46>      4      0.00643531      0.00138114    100.0
 <Apr18-2019> <21:06:47>      5      0.00173865      0.00024378      0.0
 <Apr18-2019> <21:06:47>      6      0.00021169      0.00003329      0.0
 <Apr18-2019> <21:06:48>      7      0.00007104      0.00001158      0.0
 <Apr18-2019> <21:06:48>      8      0.00000927      0.00000125      0.0
 <Apr18-2019> <21:06:49>      9      0.00000440      0.00000063      0.0
 <Apr18-2019> <21:06:49>  SCF converged
 <Apr18-2019> <21:06:49>     10      0.00000075      0.00000013      0.0
 <Apr18-2019> <21:06:49>  >>>> TOTEN
 <Apr18-2019> <21:06:50>  >>>> POPAN
 <Apr18-2019> <21:06:50>  >>>> DEBYE
 <Apr18-2019> <21:06:50>  >>>> ENGRAD
 <Apr18-2019> <21:06:50>  current energy                               -1.23701556 Hartree
 <Apr18-2019> <21:06:50>  energy change                      -0.00010655     0.00010000    F
 <Apr18-2019> <21:06:50>  constrained gradient max            0.01180269     0.00010000    F
 <Apr18-2019> <21:06:50>  constrained gradient rms            0.00298449     0.00006667    F
 <Apr18-2019> <21:06:50>  gradient max                        0.01180269
 <Apr18-2019> <21:06:50>  gradient rms                        0.00298449
 <Apr18-2019> <21:06:50>  cart. step max                      0.01121570     0.01000000    F
 <Apr18-2019> <21:06:50>  cart. step rms                      0.00587658     0.00666667    T
  Coordinates in Geometry Cycle 34
    Atom         X           Y           Z   (Angstrom)
    1.B        -0.775655   -0.393901   -0.780120
    2.Br       -0.788114    0.761522   -2.438668
    3.Br       -1.532105   -2.236997   -1.074413
    4.Br       -1.533270    0.535491    0.841464
    5.H         1.243962    0.281456   -0.278224
    6.N         0.788864   -0.626342   -0.454686
    7.H         1.259460   -1.082414   -1.246866
    8.H         0.891279   -1.210526    0.380864
 <Apr18-2019> <21:06:50>  >>>> CORORT
 <Apr18-2019> <21:06:50>  >>>> CLSMAT
 <Apr18-2019> <21:06:50>  >>>> ORTHON
 <Apr18-2019> <21:06:50>  >>>> GENPT
 <Apr18-2019> <21:06:51>  Block Length= 128
 <Apr18-2019> <21:06:51>  >>>> PTBAS
 <Apr18-2019> <21:06:51>  >>>> CYCLE
 <Apr18-2019> <21:06:51>              |Error|         MaxErr       Wt(A-DIIS)
 <Apr18-2019> <21:06:51>      1      0.04338884      0.01846839
 <Apr18-2019> <21:06:52>      2      0.00523465      0.00094052    100.0
 <Apr18-2019> <21:06:52>      3      0.00702407      0.00143896    100.0
 <Apr18-2019> <21:06:53>      4      0.00150867      0.00023619      0.0
 <Apr18-2019> <21:06:53>      5      0.00052486      0.00007315      0.0
 <Apr18-2019> <21:06:53>      6      0.00011008      0.00002195      0.0
 <Apr18-2019> <21:06:54>      7      0.00003100      0.00000455      0.0
 <Apr18-2019> <21:06:54>      8      0.00000672      0.00000085      0.0
 <Apr18-2019> <21:06:54>  SCF converged
 <Apr18-2019> <21:06:55>      9      0.00000240      0.00000039      0.0
 <Apr18-2019> <21:06:55>  >>>> TOTEN
 <Apr18-2019> <21:06:55>  >>>> POPAN
 <Apr18-2019> <21:06:55>  >>>> DEBYE
 <Apr18-2019> <21:06:55>  >>>> ENGRAD
 <Apr18-2019> <21:06:56>  current energy                               -1.23703288 Hartree
 <Apr18-2019> <21:06:56>  energy change                      -0.00001732     0.00010000    T
 <Apr18-2019> <21:06:56>  constrained gradient max            0.00825011     0.00010000    F
 <Apr18-2019> <21:06:56>  constrained gradient rms            0.00241557     0.00006667    F
 <Apr18-2019> <21:06:56>  gradient max                        0.00825011
 <Apr18-2019> <21:06:56>  gradient rms                        0.00241557
 <Apr18-2019> <21:06:56>  cart. step max                      0.00913857     0.01000000    T
 <Apr18-2019> <21:06:56>  cart. step rms                      0.00431719     0.00666667    T
  Coordinates in Geometry Cycle 35
    Atom         X           Y           Z   (Angstrom)
    1.B        -0.776363   -0.394350   -0.786692
    2.Br       -0.785836    0.760525   -2.443123
    3.Br       -1.535072   -2.237270   -1.080595
    4.Br       -1.536045    0.533561    0.833747
    5.H         1.246865    0.280575   -0.272947
    6.N         0.789881   -0.619851   -0.447963
    7.H         1.259710   -1.079267   -1.237728
    8.H         0.891280   -1.215634    0.384651
 <Apr18-2019> <21:06:56>  >>>> CORORT
 <Apr18-2019> <21:06:56>  >>>> CLSMAT
 <Apr18-2019> <21:06:56>  >>>> ORTHON
 <Apr18-2019> <21:06:56>  >>>> GENPT
 <Apr18-2019> <21:06:56>  Block Length= 128
 <Apr18-2019> <21:06:56>  >>>> PTBAS
 <Apr18-2019> <21:06:56>  >>>> CYCLE
 <Apr18-2019> <21:06:57>              |Error|         MaxErr       Wt(A-DIIS)
 <Apr18-2019> <21:06:57>      1      0.02914983      0.01365221
 <Apr18-2019> <21:06:57>      2      0.00357641      0.00065842    100.0
 <Apr18-2019> <21:06:58>      3      0.00216545      0.00045642    100.0
 <Apr18-2019> <21:06:58>      4      0.00219012      0.00029767      0.0
 <Apr18-2019> <21:06:59>      5      0.00024754      0.00003470      0.0
 <Apr18-2019> <21:06:59>      6      0.00013134      0.00001940      0.0
 <Apr18-2019> <21:06:59>      7      0.00001966      0.00000350      0.0
 <Apr18-2019> <21:07:00>      8      0.00000471      0.00000060      0.0
 <Apr18-2019> <21:07:00>  SCF converged
 <Apr18-2019> <21:07:00>      9      0.00000163      0.00000028      0.0
 <Apr18-2019> <21:07:00>  >>>> TOTEN
 <Apr18-2019> <21:07:01>  >>>> POPAN
 <Apr18-2019> <21:07:01>  >>>> DEBYE
 <Apr18-2019> <21:07:01>  >>>> ENGRAD
 <Apr18-2019> <21:07:02>  current energy                               -1.23705887 Hartree
 <Apr18-2019> <21:07:02>  energy change                      -0.00002599     0.00010000    T
 <Apr18-2019> <21:07:02>  constrained gradient max            0.00632765     0.00010000    F
 <Apr18-2019> <21:07:02>  constrained gradient rms            0.00162651     0.00006667    F
 <Apr18-2019> <21:07:02>  gradient max                        0.00632765
 <Apr18-2019> <21:07:02>  gradient rms                        0.00162651
 <Apr18-2019> <21:07:02>  cart. step max                      0.01938312     0.01000000    F
 <Apr18-2019> <21:07:02>  cart. step rms                      0.00785978     0.00666667    F
  Coordinates in Geometry Cycle 36
    Atom         X           Y           Z   (Angstrom)
    1.B        -0.774311   -0.384821   -0.791000
    2.Br       -0.776663    0.768074   -2.446390
    3.Br       -1.537078   -2.228640   -1.087379
    4.Br       -1.531666    0.541463    0.831801
    5.H         1.255654    0.269598   -0.273832
    6.N         0.787748   -0.627568   -0.446356
    7.H         1.252683   -1.098650   -1.230530
    8.H         0.878053   -1.211167    0.393037
 <Apr18-2019> <21:07:02>  >>>> CORORT
 <Apr18-2019> <21:07:02>  >>>> CLSMAT
 <Apr18-2019> <21:07:02>  >>>> ORTHON
 <Apr18-2019> <21:07:02>  >>>> GENPT
 <Apr18-2019> <21:07:02>  Block Length= 128
 <Apr18-2019> <21:07:02>  >>>> PTBAS
 <Apr18-2019> <21:07:02>  >>>> CYCLE
 <Apr18-2019> <21:07:03>              |Error|         MaxErr       Wt(A-DIIS)
 <Apr18-2019> <21:07:03>      1      0.02375146      0.00566020
 <Apr18-2019> <21:07:03>      2      0.00357560      0.00067244    100.0
 <Apr18-2019> <21:07:03>      3      0.00215303      0.00045833    100.0
 <Apr18-2019> <21:07:04>      4      0.00226131      0.00036242      0.0
 <Apr18-2019> <21:07:04>      5      0.00037383      0.00005878      0.0
 <Apr18-2019> <21:07:05>      6      0.00012116      0.00001728      0.0
 <Apr18-2019> <21:07:05>      7      0.00001626      0.00000308      0.0
 <Apr18-2019> <21:07:05>      8      0.00000549      0.00000083      0.0
 <Apr18-2019> <21:07:06>  SCF converged
 <Apr18-2019> <21:07:06>      9      0.00000190      0.00000031      0.0
 <Apr18-2019> <21:07:06>  >>>> TOTEN
 <Apr18-2019> <21:07:07>  >>>> POPAN
 <Apr18-2019> <21:07:07>  >>>> DEBYE
 <Apr18-2019> <21:07:07>  >>>> ENGRAD
 <Apr18-2019> <21:07:07>  current energy                               -1.23707568 Hartree
 <Apr18-2019> <21:07:07>  energy change                      -0.00001681     0.00010000    T
 <Apr18-2019> <21:07:07>  constrained gradient max            0.00083154     0.00010000    F
 <Apr18-2019> <21:07:07>  constrained gradient rms            0.00039222     0.00006667    F
 <Apr18-2019> <21:07:07>  gradient max                        0.00083154
 <Apr18-2019> <21:07:07>  gradient rms                        0.00039222
 <Apr18-2019> <21:07:07>  cart. step max                      0.00397757     0.01000000    T
 <Apr18-2019> <21:07:07>  cart. step rms                      0.00197627     0.00666667    T
  Coordinates in Geometry Cycle 37
    Atom         X           Y           Z   (Angstrom)
    1.B        -0.773805   -0.384357   -0.787845
    2.Br       -0.776467    0.768175   -2.442726
    3.Br       -1.537752   -2.227374   -1.084689
    4.Br       -1.531189    0.542107    0.834031
    5.H         1.256014    0.270083   -0.277810
    6.N         0.787896   -0.627606   -0.447833
    7.H         1.250076   -1.098888   -1.233997
    8.H         0.879646   -1.213849    0.390219
 <Apr18-2019> <21:07:07>  >>>> CORORT
 <Apr18-2019> <21:07:07>  >>>> CLSMAT
 <Apr18-2019> <21:07:07>  >>>> ORTHON
 <Apr18-2019> <21:07:07>  >>>> GENPT
 <Apr18-2019> <21:07:07>  Block Length= 128
 <Apr18-2019> <21:07:08>  >>>> PTBAS
 <Apr18-2019> <21:07:08>  >>>> CYCLE
 <Apr18-2019> <21:07:08>              |Error|         MaxErr       Wt(A-DIIS)
 <Apr18-2019> <21:07:08>      1      0.00629602      0.00107310
 <Apr18-2019> <21:07:09>      2      0.00149864      0.00028749    100.0
 <Apr18-2019> <21:07:09>      3      0.00080274      0.00018982    100.0
 <Apr18-2019> <21:07:09>      4      0.00097096      0.00016012      0.0
 <Apr18-2019> <21:07:10>      5      0.00016608      0.00002676      0.0
 <Apr18-2019> <21:07:10>      6      0.00001970      0.00000264      0.0
 <Apr18-2019> <21:07:11>      7      0.00000802      0.00000103      0.0
 <Apr18-2019> <21:07:11>      8      0.00000198      0.00000032      0.0
 <Apr18-2019> <21:07:11>  SCF converged
 <Apr18-2019> <21:07:12>      9      0.00000062      0.00000008      0.0
 <Apr18-2019> <21:07:12>  >>>> TOTEN
 <Apr18-2019> <21:07:12>  >>>> POPAN
 <Apr18-2019> <21:07:12>  >>>> DEBYE
 <Apr18-2019> <21:07:12>  >>>> ENGRAD
 <Apr18-2019> <21:07:13>  current energy                               -1.23707921 Hartree
 <Apr18-2019> <21:07:13>  energy change                      -0.00000353     0.00010000    T
 <Apr18-2019> <21:07:13>  constrained gradient max            0.00041642     0.00010000    F
 <Apr18-2019> <21:07:13>  constrained gradient rms            0.00014665     0.00006667    F
 <Apr18-2019> <21:07:13>  gradient max                        0.00041642
 <Apr18-2019> <21:07:13>  gradient rms                        0.00014665
 <Apr18-2019> <21:07:13>  cart. step max                      0.00377904     0.01000000    T
 <Apr18-2019> <21:07:13>  cart. step rms                      0.00167092     0.00666667    T
  Coordinates in Geometry Cycle 38
    Atom         X           Y           Z   (Angstrom)
    1.B        -0.773835   -0.385958   -0.789116
    2.Br       -0.776663    0.765793   -2.444723
    3.Br       -1.536208   -2.228968   -1.085321
    4.Br       -1.532441    0.541834    0.832398
    5.H         1.253878    0.271746   -0.274031
    6.N         0.787914   -0.626688   -0.446919
    7.H         1.252815   -1.095490   -1.233176
    8.H         0.878962   -1.213980    0.390239
 <Apr18-2019> <21:07:13>  >>>> CORORT
 <Apr18-2019> <21:07:13>  >>>> CLSMAT
 <Apr18-2019> <21:07:13>  >>>> ORTHON
 <Apr18-2019> <21:07:13>  >>>> GENPT
 <Apr18-2019> <21:07:13>  Block Length= 128
 <Apr18-2019> <21:07:13>  >>>> PTBAS
 <Apr18-2019> <21:07:13>  >>>> CYCLE
 <Apr18-2019> <21:07:14>              |Error|         MaxErr       Wt(A-DIIS)
 <Apr18-2019> <21:07:14>      1      0.00518561      0.00076079
 <Apr18-2019> <21:07:14>      2      0.00065857      0.00010335    100.0
 <Apr18-2019> <21:07:15>      3      0.00106679      0.00016754    100.0
 <Apr18-2019> <21:07:15>      4      0.00016770      0.00002745      0.0
 <Apr18-2019> <21:07:16>      5      0.00009657      0.00001257      0.0
 <Apr18-2019> <21:07:16>      6      0.00001426      0.00000217      0.0
 <Apr18-2019> <21:07:16>      7      0.00000261      0.00000050      0.0
 <Apr18-2019> <21:07:16>  SCF converged
 <Apr18-2019> <21:07:17>      8      0.00000111      0.00000017      0.0
 <Apr18-2019> <21:07:17>  >>>> TOTEN
 <Apr18-2019> <21:07:17>  >>>> POPAN
 <Apr18-2019> <21:07:18>  >>>> DEBYE
 <Apr18-2019> <21:07:18>  >>>> ENGRAD
 <Apr18-2019> <21:07:18>  current energy                               -1.23707956 Hartree
 <Apr18-2019> <21:07:18>  energy change                      -0.00000036     0.00010000    T
 <Apr18-2019> <21:07:18>  constrained gradient max            0.00017788     0.00010000    F
 <Apr18-2019> <21:07:18>  constrained gradient rms            0.00006318     0.00006667    T
 <Apr18-2019> <21:07:18>  gradient max                        0.00017788
 <Apr18-2019> <21:07:18>  gradient rms                        0.00006318
 <Apr18-2019> <21:07:18>  cart. step max                      0.00127691     0.01000000    T
 <Apr18-2019> <21:07:18>  cart. step rms                      0.00050754     0.00666667    T
  Coordinates in Geometry Cycle 39
    Atom         X           Y           Z   (Angstrom)
    1.B        -0.774043   -0.385438   -0.788960
    2.Br       -0.776665    0.766354   -2.444483
    3.Br       -1.536594   -2.228509   -1.085800
    4.Br       -1.532188    0.542239    0.832766
    5.H         1.254833    0.271086   -0.275011
    6.N         0.787867   -0.626917   -0.446919
    7.H         1.252342   -1.096767   -1.232857
    8.H         0.878868   -1.213758    0.390614
 <Apr18-2019> <21:07:18>  >>>> CORORT
 <Apr18-2019> <21:07:18>  >>>> CLSMAT
 <Apr18-2019> <21:07:18>  >>>> ORTHON
 <Apr18-2019> <21:07:18>  >>>> GENPT
 <Apr18-2019> <21:07:18>  Block Length= 128
 <Apr18-2019> <21:07:18>  >>>> PTBAS
 <Apr18-2019> <21:07:19>  >>>> CYCLE
 <Apr18-2019> <21:07:19>              |Error|         MaxErr       Wt(A-DIIS)
 <Apr18-2019> <21:07:19>      1      0.00165482      0.00028067
 <Apr18-2019> <21:07:20>      2      0.00023262      0.00004253    100.0
 <Apr18-2019> <21:07:20>      3      0.00040933      0.00004845    100.0
 <Apr18-2019> <21:07:20>      4      0.00006531      0.00001198      0.0
 <Apr18-2019> <21:07:21>      5      0.00003194      0.00000503      0.0
 <Apr18-2019> <21:07:21>      6      0.00000349      0.00000057      0.0
 <Apr18-2019> <21:07:21>  SCF converged
 <Apr18-2019> <21:07:22>      7      0.00000097      0.00000017      0.0
 <Apr18-2019> <21:07:22>  >>>> TOTEN
 <Apr18-2019> <21:07:22>  >>>> POPAN
 <Apr18-2019> <21:07:22>  >>>> DEBYE
 <Apr18-2019> <21:07:22>  >>>> ENGRAD
 <Apr18-2019> <21:07:23>  current energy                               -1.23707968 Hartree
 <Apr18-2019> <21:07:23>  energy change                      -0.00000012     0.00010000    T
 <Apr18-2019> <21:07:23>  constrained gradient max            0.00008335     0.00010000    T
 <Apr18-2019> <21:07:23>  constrained gradient rms            0.00003511     0.00006667    T
 <Apr18-2019> <21:07:23>  gradient max                        0.00008335
 <Apr18-2019> <21:07:23>  gradient rms                        0.00003511
 <Apr18-2019> <21:07:23>  cart. step max                      0.00055395     0.01000000    T
 <Apr18-2019> <21:07:23>  cart. step rms                      0.00024820     0.00666667    T
 <Apr18-2019> <21:07:23>  GEOMETRY CONVERGED
 <Apr18-2019> <21:07:23>  Calculating Energy Terms for Final Geometry
  Coordinates in Geometry Cycle 39
    Atom         X           Y           Z   (Angstrom)
    1.B        -0.774043   -0.385438   -0.788960
    2.Br       -0.776665    0.766354   -2.444483
    3.Br       -1.536594   -2.228509   -1.085800
    4.Br       -1.532188    0.542239    0.832766
    5.H         1.254833    0.271086   -0.275011
    6.N         0.787867   -0.626917   -0.446919
    7.H         1.252342   -1.096767   -1.232857
    8.H         0.878868   -1.213758    0.390614
 <Apr18-2019> <21:07:23>  >>>> CORORT
 <Apr18-2019> <21:07:23>  >>>> CLSMAT
 <Apr18-2019> <21:07:23>  >>>> ORTHON
 <Apr18-2019> <21:07:23>  >>>> GENPT
 <Apr18-2019> <21:07:23>  Block Length= 128
 <Apr18-2019> <21:07:23>  >>>> PTBAS
 <Apr18-2019> <21:07:23>  >>>> CYCLE
 <Apr18-2019> <21:07:24>              |Error|         MaxErr       Wt(A-DIIS)
 <Apr18-2019> <21:07:24>      1      0.00000038      0.00000008
 <Apr18-2019> <21:07:24>      2      0.00000064      0.00000015    100.0
 <Apr18-2019> <21:07:25>  SCF converged
 <Apr18-2019> <21:07:25>      3      0.00000119      0.00000029    100.0
 <Apr18-2019> <21:07:25>  >>>> TOTEN
 <Apr18-2019> <21:07:26>  >>>> POPAN
 <Apr18-2019> <21:07:26>  >>>> DEBYE
 <Apr18-2019> <21:07:26>  >>>> AMETS
 <Apr18-2019> <21:07:26>  >>>> POPUL
 <Apr18-2019> <21:07:26>   Bond Energy          -1.23707969 a.u.
 <Apr18-2019> <21:07:26>   Bond Energy         -33.66265103 eV
 <Apr18-2019> <21:07:26>   Bond Energy        -776.28       kcal/mol
 <Apr18-2019> <21:07:26>  >>>> ENHESS
 <Apr18-2019> <21:07:27>  === NUCLEUS:     1
 <Apr18-2019> <21:07:37>  === NUCLEUS:     2
 <Apr18-2019> <21:07:47>  === NUCLEUS:     3
 <Apr18-2019> <21:07:56>  === NUCLEUS:     4
 <Apr18-2019> <21:08:05>  === NUCLEUS:     5
 <Apr18-2019> <21:08:14>  === NUCLEUS:     6
 <Apr18-2019> <21:08:23>  === NUCLEUS:     7
 <Apr18-2019> <21:08:32>  === NUCLEUS:     8
 <Apr18-2019> <21:08:42>  >>>> CALC_HESS_PMAT
 <Apr18-2019> <21:08:44>  >>>> CALC_HESS_WMAT
 <Apr18-2019> <21:08:44>  NORMAL TERMINATION
 <Apr18-2019> <21:08:44>  END
