

 Parallel Execution: Process Information
 ==============================================================================
 Rank   Node Name                              NodeID   MyNodeRank  NodeMaster
    0   BAZIS-cn026                               0          0          0
    1   BAZIS-cn026                               0          1         -1
    2   BAZIS-cn026                               0          2         -1
    3   BAZIS-cn026                               0          3         -1
    4   BAZIS-cn026                               0          4         -1
    5   BAZIS-cn026                               0          5         -1
    6   BAZIS-cn026                               0          6         -1
    7   BAZIS-cn026                               0          7         -1
    8   BAZIS-cn026                               0          8         -1
    9   BAZIS-cn026                               0          9         -1
   10   BAZIS-cn026                               0         10         -1
   11   BAZIS-cn026                               0         11         -1
 ==============================================================================


May use up to 30771MB of RAM as shared memory on node 0


XC
    GGA BP86
END

SCF
    iterations 250
END

EPRINT
    SFO Eig Ovl
END

ZLMFIT
    Quality normal
END

BECKEGRID
    Quality good
End

SYMMETRY nosym
CHARGE -1

ATOMS
1.F        -4.919639    3.094640   -0.043018 f=FBr
2.Br       -3.844808    1.233411    0.082980 f=FBr
3.Cl       -6.010935    4.970868   -0.177163 f=Cl
END

Fragments
FBr /home/tcst25/advanced_comp_chemistry/exercise2/halogen/BrFCl/frag1_FBr.t21
Cl /home/tcst25/advanced_comp_chemistry/exercise2/halogen/BrFCl/frag2_Cl.t21
End
end input

 *******************************************************************************
 *                                                                             *
 *  -------------------------------------                                      *
 *   Amsterdam Density Functional  (ADF)         2017                          *
 *  -------------------------------------                                      *
 *                                               r58813 2017-04-12             *
 *                                                                             *
 *                                                                             *
 *                              =================                              *
 *                              |               |                              *
 *                              |     A D F     |                              *
 *                              |               |                              *
 *                              =================                              *
 *                                                                             *
 *                                                                             *
 *   Online information and documentation:  https://www.scm.com/support/       *
 *   E-mail:  support@scm.com   info@scm.com                                   *
 *                                                                             *
 *   Scientific publications using ADF results must be properly referenced     *
 *   See the User Manuals (or the web site) for recommended citations          *
 *   The terms and conditions of the End User License Agreement apply to       *
 *   the use of ADF, https://www.scm.com/license-terms/                        *
 *                                                                             *
 **********************  x86_64_linux_intel / intelmpi  ************************
 
 Licensed to: VU/FEW (+ SARA) / ALGEMEEN / Amsterdam / THE NETHERLANDS
 SCM User ID: u7668
  
 ADF 2017  RunTime: May09-2019 17:11:56  Nodes: 1  Procs: 12

 Temporary files are created in /local/datastore0/tcst25/189772/kid_0.0RByKE


Communication costs MPI_COMM_WORLD:      3.876 usec per message,   0.0181 usec per 8-byte item
Communication costs for intra-node:      3.861 usec per message,   0.0180 usec per 8-byte item

 *** (NO TITLE) ***



 ===========================
 A T T A C H E D   F I L E S
 ===========================
  



 ===============================
 M O D E L   P A R A M E T E R S
 ===============================
  
 DENSITY FUNCTIONAL POTENTIAL (scf)
    LDA:                               VWN                                      
    Gradient Corrections:              Becke88 Perdew86                        == Not Default ==

 SPIN  (restricted / unrestr.)
    Molecule:                          Restricted                               
    Fragments:                         Restricted                               

 OTHER ASPECTS
    Relativistic Corrections:          ---                                      

    Nuclear Charge Density Model:      Point Charge Nuclei                      
    Core Treatment:                    Frozen Orbital(s)                        

    Hyperfine or Zeeman Interaction:   ---                                      


 Fragment File(s)
 ----------------
 FBr:
         file : /home/tcst25/advanced_comp_chemistry/exercise2/halogen/BrFCl/frag1_FBr.t21
         jobid: ADF 2017  RunTime: May09-2019 16:32:19  Nodes: 1  Procs: 12
         title: *** (NO TITLE) ***
 Cl:
         file : /home/tcst25/advanced_comp_chemistry/exercise2/halogen/BrFCl/frag2_Cl.t21
         jobid: ADF 2017  RunTime: May09-2019 16:32:18  Nodes: 1  Procs: 12
         title: *** (NO TITLE) ***



                                        ************************************
                                        *  R U N   T Y P E : SINGLE POINT  *
                                        ************************************
  



 ===============
 G E O M E T R Y  ***  Planar Molecule  ***
 ===============
  

 ATOMS
 =====                            X Y Z                    CHARGE
                                (Angstrom)             Nucl     +Core       At.Mass
                       --------------------------    ----------------       -------
    1  F              -4.9196    3.0946   -0.0430      9.00      9.00       18.9984
    2  Br             -3.8448    1.2334    0.0830     35.00     35.00       78.9183
    3  Cl             -6.0109    4.9709   -0.1772     17.00     17.00       34.9689


 FRAGMENTS
 =========                                     Atoms in this Fragment     Cart. coord.s (Angstrom)
                                               -------------------------------------------------------
    1  FBr                                               1  F           -4.9196    3.0946   -0.0430
                                                         2  Br          -3.8448    1.2334    0.0830
    2  Cl                                                3  Cl          -6.0109    4.9709   -0.1772


 Interatomic Distance Matrix (Angstrom)
 --------------------------------------

   1)     0.000
   2)     2.153   0.000
   3)     2.175   4.328   0.000

 Min. Distance =    2.1530
 Max. Distance =    4.3276



 =====================================
 S Y M M E T R Y ,   E L E C T R O N S
 =====================================
  
 Symmetry: NOSYM

 Irreducible Representations, including subspecies
 -------------------------------------------------
 A


 Configuration of Valence Electrons
 ==================================
 ( determined in the SCF procedure )

 Total:   62

 Net Charge: -1 (Nuclei minus Electrons)

 Aufbau principle for MO occupations will be applied through SCF cycle no.     125
 Thereafter, the program will assign electrons to MOs that are spatially
 similar to the occupied MOs in a "reference" cycle ("KeepOrbitals").
 The reference cycle is always the PREVIOUS cycle: it will evolve with
 the SCF procedure.
1
 ***************************************************************************************************



                                      ****************************************
                                      *  B U I L D : (Fragments, Functions)  *
                                      ****************************************
  

 The individual fragments are copies of the corresponding 'Master' fragments defined on the fragment files.
 However, they may have been rotated (and translated) with respect to the Master. The local coordinate axes
 of each fragment (which define for instance the spatial orientation in the current molecule of a fragment
 P:x orbital) are not necessarily those of the molecule.
 The local frame (if different from the molecular one) is printed to enable an interpretation of the expan-
 sion of an MO in Fragment Orbitals.



                                             *************************
                                             *  Fragment Type : FBr  *
                                             *************************
  

 Fragment no.    1   (in the list of all fragments)
 -----------------
 The local coordinate frame is identical to the molecular frame.

 Check Atomic Coordinates:

                  Master (on file)          After Computed Tranformation               As specified on Input
           ----------------------------     ----------------------------     ---------------------------------
     1)    -4.91964   3.09464  -0.04302     -4.91964   3.09464  -0.04302       1  -4.91964   3.09464  -0.04302
     2)    -3.84481   1.23341   0.08298     -3.84481   1.23341   0.08298       2  -3.84481   1.23341   0.08298



                                              ************************
                                              *  Fragment Type : Cl  *
                                              ************************
  

 Fragment no.    2   (in the list of all fragments)
 -----------------
 The local coordinate frame is identical to the molecular frame.

 Check Atomic Coordinates:

                  Master (on file)          After Computed Tranformation               As specified on Input
           ----------------------------     ----------------------------     ---------------------------------
     1)    -6.01093   4.97087  -0.17716     -6.01093   4.97087  -0.17716       3  -6.01093   4.97087  -0.17716



 =======
 S F O s  ***  (Symmetrized Fragment Orbitals)  ***
 =======
  
 SFOs are linear combinations of (valence) Fragment Orbitals (FOs), such that the SFOs transform as the
 irreducible representations of the (molecular) symmetry group. Each SFO is therefore characterized by
 an irrep of the molecule and by a few (or only one) generating FOs.
 The SFOs constitute a symmetry-adapted basis for the Fock matrix. The MO eigenvector coefficients in
 this basis provide a direct interpretation of the MOs in terms of Frontier Orbital Theory.

 The SFOs are combined with auxiliary Core Functions (CFs) to ensure orthogonalization on the (frozen)
 Core Orbitals (COs). The Core-orthogonalized SFOs (CSFOs) constitute the true Fock basis.

 The FOs, and hence also the (C)SFOs are combinations of the elementary basis functions (BAS). The basis
 functions that participate in the description of the SFOs depend on the irrep. The indices of the
 involved functions are printed below for each irrep.
 (The complete list of primitive basis functions is printed in another section)

 Total nr. of (C)SFOs (summation over all irreps) :   116

 NOTE: a (C)SFO that is defined as a combination of more than one FO is usually NOT normalized.



                                       === A ===
 Nr. of SFOs :  116
 Cartesian basis functions that participate in this irrep (total number =   131) :
      1     2     3     4     5     6     9    12     7    10
     13     8    11    14    15    16    17    18    19    20
     21    22    23    24    25    26    27    28    29    30
     31    32    33    40    41    66    67    68    34    37
     42    45    69    72    75    35    38    43    46    70
     73    76    36    39    44    47    71    74    77    48
     54    60    78    49    55    61    79    50    56    62
     80    51    57    63    81    52    58    64    82    53
     59    65    83    84    85    86    87    88    89    90
     91    92    93    94    95    96    97   104   105   106
     98   101   107   110   113    99   102   108   111   114
    100   103   109   112   115   116   117   118   119   120
    121   122   123   124   125   126   127   128   129   130
    131

    SFO  (index         Fragment          Generating    Expansion in Fragment Orbitals
  indx  incl.CFs)   Occup   Orb.Energy   FragmentType  Coeff.   Orbital     on Fragment
 --------------------------------------------------------------------------------------
     1       1      2.000    -481.082 au  FBr           1.00      1 A               1
                        (  -13090.912 eV)
     2       2      2.000     -61.836 au  FBr           1.00      2 A               1
                        (   -1682.652 eV)
     3       3      2.000     -55.772 au  FBr           1.00      3 A               1
                        (   -1517.640 eV)
     4       4      2.000     -55.763 au  FBr           1.00      4 A               1
                        (   -1517.398 eV)
     5       5      2.000     -55.763 au  FBr           1.00      5 A               1
                        (   -1517.398 eV)
     6       6      2.000     -24.308 au  FBr           1.00      6 A               1
                        (    -661.455 eV)
     7       7      2.000      -8.456 au  FBr           1.00      7 A               1
                        (    -230.088 eV)
     8       8      2.000      -6.372 au  FBr           1.00      8 A               1
                        (    -173.393 eV)
     9       9      2.000      -6.347 au  FBr           1.00      9 A               1
                        (    -172.701 eV)
    10      10      2.000      -6.347 au  FBr           1.00     10 A               1
                        (    -172.701 eV)
    11      11      2.000      -2.575 au  FBr           1.00     11 A               1
                        (     -70.064 eV)
    12      12      2.000      -2.569 au  FBr           1.00     12 A               1
                        (     -69.900 eV)
    13      13      2.000      -2.569 au  FBr           1.00     13 A               1
                        (     -69.900 eV)
    14      14      2.000      -2.550 au  FBr           1.00     14 A               1
                        (     -69.397 eV)
    15      15      2.000      -2.550 au  FBr           1.00     15 A               1
                        (     -69.397 eV)
    16      16      2.000      -1.043 au  FBr           1.00     16 A               1
                        (     -28.393 eV)
    17      17      2.000      -0.744 au  FBr           1.00     17 A               1
                        (     -20.239 eV)
    18      18      2.000      -0.424 au  FBr           1.00     18 A               1
                        (     -11.527 eV)
    19      19      2.000      -0.357 au  FBr           1.00     19 A               1
                        (      -9.723 eV)
    20      20      2.000      -0.357 au  FBr           1.00     20 A               1
                        (      -9.723 eV)
    21      21      2.000      -0.297 au  FBr           1.00     21 A               1
                        (      -8.076 eV)
    22      22      2.000      -0.297 au  FBr           1.00     22 A               1
                        (      -8.076 eV)
    23      23       --        -0.259 au  FBr           1.00     23 A               1
                        (      -7.046 eV)
    24      24       --         0.034 au  FBr           1.00     24 A               1
                        (       0.917 eV)
    25      25       --         0.119 au  FBr           1.00     25 A               1
                        (       3.241 eV)
    26      26       --         0.129 au  FBr           1.00     26 A               1
                        (       3.505 eV)
    27      27       --         0.129 au  FBr           1.00     27 A               1
                        (       3.505 eV)
    28      28       --         0.234 au  FBr           1.00     28 A               1
                        (       6.371 eV)
    29      29       --         0.234 au  FBr           1.00     29 A               1
                        (       6.371 eV)
    30      30       --         0.246 au  FBr           1.00     30 A               1
                        (       6.707 eV)
    31      31       --         0.246 au  FBr           1.00     31 A               1
                        (       6.707 eV)
    32      32       --         0.249 au  FBr           1.00     32 A               1
                        (       6.789 eV)
    33      33       --         0.412 au  FBr           1.00     33 A               1
                        (      11.205 eV)
    34      34       --         0.557 au  FBr           1.00     34 A               1
                        (      15.147 eV)
    35      35       --         0.557 au  FBr           1.00     35 A               1
                        (      15.147 eV)
    36      36       --         0.703 au  FBr           1.00     36 A               1
                        (      19.118 eV)
    37      37       --         0.798 au  FBr           1.00     37 A               1
                        (      21.723 eV)
    38      38       --         0.798 au  FBr           1.00     38 A               1
                        (      21.723 eV)
    39      39       --         0.825 au  FBr           1.00     39 A               1
                        (      22.463 eV)
    40      40       --         0.826 au  FBr           1.00     40 A               1
                        (      22.463 eV)
    41      41       --         0.837 au  FBr           1.00     41 A               1
                        (      22.780 eV)
    42      42       --         0.837 au  FBr           1.00     42 A               1
                        (      22.781 eV)
    43      43       --         0.933 au  FBr           1.00     43 A               1
                        (      25.398 eV)
    44      44       --         1.177 au  FBr           1.00     44 A               1
                        (      32.023 eV)
    45      45       --         1.177 au  FBr           1.00     45 A               1
                        (      32.023 eV)
    46      46       --         1.204 au  FBr           1.00     46 A               1
                        (      32.760 eV)
    47      47       --         1.228 au  FBr           1.00     47 A               1
                        (      33.424 eV)
    48      48       --         1.228 au  FBr           1.00     48 A               1
                        (      33.424 eV)
    49      49       --         1.420 au  FBr           1.00     49 A               1
                        (      38.651 eV)
    50      50       --         1.501 au  FBr           1.00     50 A               1
                        (      40.857 eV)
    51      51       --         1.501 au  FBr           1.00     51 A               1
                        (      40.857 eV)
    52      52       --         2.249 au  FBr           1.00     52 A               1
                        (      61.194 eV)
    53      53       --         2.573 au  FBr           1.00     53 A               1
                        (      70.009 eV)
    54      54       --         2.652 au  FBr           1.00     54 A               1
                        (      72.163 eV)
    55      55       --         2.652 au  FBr           1.00     55 A               1
                        (      72.165 eV)
    56      56       --         2.771 au  FBr           1.00     56 A               1
                        (      75.407 eV)
    57      57       --         2.771 au  FBr           1.00     57 A               1
                        (      75.407 eV)
    58      58       --         3.341 au  FBr           1.00     58 A               1
                        (      90.902 eV)
    59      59       --         3.476 au  FBr           1.00     59 A               1
                        (      94.586 eV)
    60      60       --         3.476 au  FBr           1.00     60 A               1
                        (      94.586 eV)
    61      61       --         3.506 au  FBr           1.00     61 A               1
                        (      95.407 eV)
    62      62       --         3.506 au  FBr           1.00     62 A               1
                        (      95.407 eV)
    63      63       --         3.639 au  FBr           1.00     63 A               1
                        (      99.017 eV)
    64      64       --         3.639 au  FBr           1.00     64 A               1
                        (      99.017 eV)
    65      65       --         3.687 au  FBr           1.00     65 A               1
                        (     100.331 eV)
    66      66       --         4.782 au  FBr           1.00     66 A               1
                        (     130.116 eV)
    67      67       --         4.782 au  FBr           1.00     67 A               1
                        (     130.116 eV)
    68      68       --         5.110 au  FBr           1.00     68 A               1
                        (     139.040 eV)
    69      69       --         8.815 au  FBr           1.00     69 A               1
                        (     239.882 eV)
    70      70       --         8.816 au  FBr           1.00     70 A               1
                        (     239.886 eV)
    71      71       --         9.054 au  FBr           1.00     71 A               1
                        (     246.359 eV)
    72      72       --        14.673 au  FBr           1.00     72 A               1
                        (     399.268 eV)
    73      73       --        20.572 au  FBr           1.00     73 A               1
                        (     559.785 eV)
    74      74       --        20.572 au  FBr           1.00     74 A               1
                        (     559.788 eV)
    75      75       --        20.726 au  FBr           1.00     75 A               1
                        (     563.990 eV)
    76      76       --        20.726 au  FBr           1.00     76 A               1
                        (     563.992 eV)
    77      77       --        21.036 au  FBr           1.00     77 A               1
                        (     572.418 eV)
    78      78       --        50.159 au  FBr           1.00     78 A               1
                        (    1364.886 eV)
    79      79       --       100.857 au  FBr           1.00     79 A               1
                        (    2744.463 eV)
    80      80       --       100.857 au  FBr           1.00     80 A               1
                        (    2744.464 eV)
    81      81       --       101.424 au  FBr           1.00     81 A               1
                        (    2759.886 eV)
    82      82       --       748.294 au  FBr           1.00     82 A               1
                        (   20362.115 eV)
    83      83      2.000    -100.372 au  Cl            1.00      1 A               2
                        (   -2731.270 eV)
    84      84      2.000      -8.827 au  Cl            1.00      2 A               2
                        (    -240.193 eV)
    85      85      2.000      -6.649 au  Cl            1.00      3 A               2
                        (    -180.916 eV)
    86      86      2.000      -6.649 au  Cl            1.00      4 A               2
                        (    -180.916 eV)
    87      87      2.000      -6.649 au  Cl            1.00      5 A               2
                        (    -180.916 eV)
    88      88      2.000      -0.385 au  Cl            1.00      6 A               2
                        (     -10.473 eV)
    89      89      2.000       0.033 au  Cl            1.00      7 A               2
                        (       0.909 eV)
    90      90      2.000       0.033 au  Cl            1.00      8 A               2
                        (       0.909 eV)
    91      91      2.000       0.033 au  Cl            1.00      9 A               2
                        (       0.909 eV)
    92      92       --         0.475 au  Cl            1.00     10 A               2
                        (      12.914 eV)
    93      93       --         0.489 au  Cl            1.00     11 A               2
                        (      13.299 eV)
    94      94       --         0.489 au  Cl            1.00     12 A               2
                        (      13.299 eV)
    95      95       --         0.489 au  Cl            1.00     13 A               2
                        (      13.299 eV)
    96      96       --         0.741 au  Cl            1.00     14 A               2
                        (      20.162 eV)
    97      97       --         0.741 au  Cl            1.00     15 A               2
                        (      20.162 eV)
    98      98       --         0.741 au  Cl            1.00     16 A               2
                        (      20.162 eV)
    99      99       --         0.741 au  Cl            1.00     17 A               2
                        (      20.162 eV)
   100     100       --         0.741 au  Cl            1.00     18 A               2
                        (      20.162 eV)
   101     101       --         1.518 au  Cl            1.00     19 A               2
                        (      41.294 eV)
   102     102       --         1.518 au  Cl            1.00     20 A               2
                        (      41.294 eV)
   103     103       --         1.518 au  Cl            1.00     21 A               2
                        (      41.294 eV)
   104     104       --         1.518 au  Cl            1.00     22 A               2
                        (      41.294 eV)
   105     105       --         1.518 au  Cl            1.00     23 A               2
                        (      41.294 eV)
   106     106       --         1.518 au  Cl            1.00     24 A               2
                        (      41.294 eV)
   107     107       --         1.518 au  Cl            1.00     25 A               2
                        (      41.294 eV)
   108     108       --         2.351 au  Cl            1.00     26 A               2
                        (      63.962 eV)
   109     109       --         2.448 au  Cl            1.00     27 A               2
                        (      66.612 eV)
   110     110       --         2.448 au  Cl            1.00     28 A               2
                        (      66.612 eV)
   111     111       --         2.448 au  Cl            1.00     29 A               2
                        (      66.612 eV)
   112     112       --        13.113 au  Cl            1.00     30 A               2
                        (     356.814 eV)
   113     113       --        19.210 au  Cl            1.00     31 A               2
                        (     522.735 eV)
   114     114       --        19.210 au  Cl            1.00     32 A               2
                        (     522.735 eV)
   115     115       --        19.210 au  Cl            1.00     33 A               2
                        (     522.735 eV)
   116     116       --       215.062 au  Cl            1.00     34 A               2
                        (    5852.138 eV)



 ================================
 (Slater-type)  F U N C T I O N S  ***  (Basis and Fit)  ***
 ================================
  

 Atom Type    1  (F)
 ==============

 Valence Basis Sets:  10
 -----------------------
   1 S   10.880000
   1 S    7.700000
   2 S    3.240000
   2 S    1.940000
   2 S    0.740000
   2 P    4.540000
   2 P    2.300000
   2 P    1.240000
   3 D    2.000000
   4 F    3.000000

 Atom Type    2  (Br)
 ==============

 Valence Basis Sets:  20
 -----------------------
   1 S   41.300000
   1 S   32.800000
   2 S   13.900000
   2 P   19.450000
   2 P   13.100000
   3 S    7.200000
   3 S    4.950000
   3 P    7.900000
   3 P    5.050000
   3 D   10.900000
   3 D    6.050000
   3 D    3.500000
   4 S    4.500000
   4 S    2.800000
   4 S    1.800000
   4 P    3.250000
   4 P    1.950000
   4 P    1.200000
   4 D    1.800000
   4 F    1.800000

 Atom Type    3  (Cl)
 ==============

 Valence Basis Sets:  14
 -----------------------
   1 S   20.300000
   1 S   15.250000
   2 S    6.250000
   2 S    4.450000
   2 P    8.850000
   2 P    5.050000
   3 S    3.450000
   3 S    2.300000
   3 S    1.600000
   3 P    3.350000
   3 P    2.050000
   3 P    1.200000
   3 D    2.000000
   4 F    2.000000


 BAS: List of all Elementary Cartesian Basis Functions
 =====================================================

 The numbering in the list below (to the right of the function characteristics) is referred
 to in print-outs of MO eigenvectors and Mulliken populations in the BAS representation
 (as contrasted to the SFO representation).

 Notes:
 1. The functions are characterized by a polynomial prefactor (powers of x,y,z and r) and
    an exponential decay factor alpha.
 2. Since the basis sets are specific for an atom TYPE, the individual functions occur on
    all atoms of that type.
 3. The word 'Core' in the left margin signals that it is a Core Function (CF) : not a
    degree of freedom in the valence set, but only used to ensure orthogonalization of
    the other valence basis functions on the frozen Core Orbitals.


 (power of) X  Y  Z  R     Alpha  on Atom
            ==========     =====     ==========

 F                                    1
                                  ---------------------------------------------------------------------------
            0  0  0  0    10.880      1
            0  0  0  0     7.700      2
            0  0  0  1     3.240      3
            0  0  0  1     1.940      4
            0  0  0  1     0.740      5
            1  0  0  0     4.540      6
            0  1  0  0     4.540      7
            0  0  1  0     4.540      8
            1  0  0  0     2.300      9
            0  1  0  0     2.300     10
            0  0  1  0     2.300     11
            1  0  0  0     1.240     12
            0  1  0  0     1.240     13
            0  0  1  0     1.240     14
            2  0  0  0     2.000     15
            1  1  0  0     2.000     16
            1  0  1  0     2.000     17
            0  2  0  0     2.000     18
            0  1  1  0     2.000     19
            0  0  2  0     2.000     20
            3  0  0  0     3.000     21
            2  1  0  0     3.000     22
            2  0  1  0     3.000     23
            1  2  0  0     3.000     24
            1  1  1  0     3.000     25
            1  0  2  0     3.000     26
            0  3  0  0     3.000     27
            0  2  1  0     3.000     28
            0  1  2  0     3.000     29
            0  0  3  0     3.000     30

 Br                                   2
                                  ---------------------------------------------------------------------------
            0  0  0  0    41.300     31
            0  0  0  0    32.800     32
            0  0  0  1    13.900     33
            1  0  0  0    19.450     34
            0  1  0  0    19.450     35
            0  0  1  0    19.450     36
            1  0  0  0    13.100     37
            0  1  0  0    13.100     38
            0  0  1  0    13.100     39
            0  0  0  2     7.200     40
            0  0  0  2     4.950     41
            1  0  0  1     7.900     42
            0  1  0  1     7.900     43
            0  0  1  1     7.900     44
            1  0  0  1     5.050     45
            0  1  0  1     5.050     46
            0  0  1  1     5.050     47
            2  0  0  0    10.900     48
            1  1  0  0    10.900     49
            1  0  1  0    10.900     50
            0  2  0  0    10.900     51
            0  1  1  0    10.900     52
            0  0  2  0    10.900     53
            2  0  0  0     6.050     54
            1  1  0  0     6.050     55
            1  0  1  0     6.050     56
            0  2  0  0     6.050     57
            0  1  1  0     6.050     58
            0  0  2  0     6.050     59
            2  0  0  0     3.500     60
            1  1  0  0     3.500     61
            1  0  1  0     3.500     62
            0  2  0  0     3.500     63
            0  1  1  0     3.500     64
            0  0  2  0     3.500     65
            0  0  0  3     4.500     66
            0  0  0  3     2.800     67
            0  0  0  3     1.800     68
            1  0  0  2     3.250     69
            0  1  0  2     3.250     70
            0  0  1  2     3.250     71
            1  0  0  2     1.950     72
            0  1  0  2     1.950     73
            0  0  1  2     1.950     74
            1  0  0  2     1.200     75
            0  1  0  2     1.200     76
            0  0  1  2     1.200     77
            2  0  0  1     1.800     78
            1  1  0  1     1.800     79
            1  0  1  1     1.800     80
            0  2  0  1     1.800     81
            0  1  1  1     1.800     82
            0  0  2  1     1.800     83
            3  0  0  0     1.800     84
            2  1  0  0     1.800     85
            2  0  1  0     1.800     86
            1  2  0  0     1.800     87
            1  1  1  0     1.800     88
            1  0  2  0     1.800     89
            0  3  0  0     1.800     90
            0  2  1  0     1.800     91
            0  1  2  0     1.800     92
            0  0  3  0     1.800     93

 Cl                                   3
                                  ---------------------------------------------------------------------------
            0  0  0  0    20.300     94
            0  0  0  0    15.250     95
            0  0  0  1     6.250     96
            0  0  0  1     4.450     97
            1  0  0  0     8.850     98
            0  1  0  0     8.850     99
            0  0  1  0     8.850    100
            1  0  0  0     5.050    101
            0  1  0  0     5.050    102
            0  0  1  0     5.050    103
            0  0  0  2     3.450    104
            0  0  0  2     2.300    105
            0  0  0  2     1.600    106
            1  0  0  1     3.350    107
            0  1  0  1     3.350    108
            0  0  1  1     3.350    109
            1  0  0  1     2.050    110
            0  1  0  1     2.050    111
            0  0  1  1     2.050    112
            1  0  0  1     1.200    113
            0  1  0  1     1.200    114
            0  0  1  1     1.200    115
            2  0  0  0     2.000    116
            1  1  0  0     2.000    117
            1  0  1  0     2.000    118
            0  2  0  0     2.000    119
            0  1  1  0     2.000    120
            0  0  2  0     2.000    121
            3  0  0  0     2.000    122
            2  1  0  0     2.000    123
            2  0  1  0     2.000    124
            1  2  0  0     2.000    125
            1  1  1  0     2.000    126
            1  0  2  0     2.000    127
            0  3  0  0     2.000    128
            0  2  1  0     2.000    129
            0  1  2  0     2.000    130
            0  0  3  0     2.000    131

 Total number of charge fitting functions (nprimf)       361
 Total number of Cartesian basis functions (naos)        131
 Total number of Cartesian core functions  (ncos)          0

1
 ***************************************************************************************************



                                              ***********************
                                              *  T E C H N I C A L  *
                                              ***********************
  



 =============================================================
 P A R A L L E L I Z A T I O N  and  V E C T O R I Z A T I O N
 =============================================================
  
 Nr of parallel processes:                               12
 Maximum vector length in NumInt loops:                 128

 IO buffersize (Mb):                                     64.000000



 =====================
 S C F   U P D A T E S
 =====================
  
 Max. nr. of cycles:                               250
 Convergence criterion:                              0.0000010000
   secondary criterion:                              0.0010000000

 Mix parameter (when DIIS does not apply):           0.2000000000
 Mixed ADIIS+DIIS will be used
    Max number of expansion vectors:                10
    Pure ADIIS when Max([F,P]) is above              0.1000000000
    Pure DIIS when Max([F,P]) is below               0.0010000000
 Automatic ElectronSmearing (in case of problematic SCF convergence) disabled



 =================
 P R E C I S I O N  ***  (General: NumInt, NeglectFunctionTails, ...)  ***
 =================
  

 NumInt:           Target precision:                 6.0000000000
 -------           Initial precision:                6.0000000000
                   Min. precision (optimization):    6.0000000000

 Neglect Functions:          Basis functions:        0.1000000000E-07
 ------------------          Fit functions:          0.1000000000E-07



 ===========================
 L I N E A R   S C A L I N G
 ===========================
  

 Cut-off radii density fit:                        0.1000000000E-09
 Overlap cut-off criterion AO matrix elements:     0.1000000000E-07
 Cut-offs for Coulomb potential and fitted density:0.1000000000E-09
 Cut-off criterion for Coulomb multipole terms:    0.1000000000E-09
 Progressive Convergence parameter:                 0.000000000    
1
 ***************************************************************************************************



                                            ***************************
                                            *  C O M P U T A T I O N  *
                                            ***************************
  

 Number of elements of the density matrix on this node (used, total):      2016      8646



 ===========================================
 Numerical Integration : Fuzzy Cells (Becke)
 ===========================================
  
 Becke grid quality: GOOD           
  
 Lebedev angular grid order:             min:  11 max:  31
 Nr. of radial points:                   min:  65 max:  90

 Total nr. of points:      50773
 Nr. of blocks:              397
 Block length:               128
 Nr. of dummy points:         43


 Test of Precision of the Numerical Integration Grid
 ===================================================

 Integral of the Total Core Density:                   0.00000000000000



 ========================
 Density Fitting (zlmFit)
 ========================
  
 ZlmFit Fit Quality: NORMAL         
  
 Max L-expansion:                        min:   7 max:   7
 Nr. of radial interpolation points:     min:  51 max:  72



 =====
 S C F  ***  ScaSCF  ***
 =====
  
 Initial density matrix is calculated as sum of fragments

 CYCLE    1
 SCF Error: norm([F,P])=      0.931621743864, max([F,P])=      0.514066010042
 orbitals (Q,E):
 ---------------
 A :22...41          ( 2.00    -0.6325)  ( 2.00    -0.3875)  ( 2.00    -0.2591)  ( 2.00    -0.2078)
                     ( 2.00    -0.2078)  ( 2.00    -0.1238)  ( 2.00    -0.1238)  ( 2.00    -0.1058)
                     ( 2.00     0.0382)  ( 2.00     0.0382)  ( 0.00     0.0747)  ( 0.00     0.1678)
                     ( 0.00     0.2438)  ( 0.00     0.2438)  ( 0.00     0.2595)  ( 0.00     0.3506)
                     ( 0.00     0.3506)  ( 0.00     0.3513)  ( 0.00     0.3513)  ( 0.00     0.3778)

 CYCLE    2
  SDIIS (wt  0.000):  0.5682  0.4318
 A-DIIS (wt  1.000):  0.8570  0.1430
  DIIS coefficients:  0.8570  0.1430
 SCF Error: norm([F,P])=      1.076231395774, max([F,P])=      0.294431453378
 orbitals (Q,E):
 ---------------
 A :22...32          ( 2.00    -0.5616)  ( 2.00    -0.4686)  ( 2.00    -0.2154)  ( 2.00    -0.1511)
                     ( 2.00    -0.1511)  ( 2.00    -0.0967)  ( 2.00    -0.0967)  ( 2.00    -0.0820)
                     ( 2.00    -0.0313)  ( 2.00    -0.0313)  ( 0.00     0.0213)

 CYCLE    3
  SDIIS (wt  0.000):  0.2732 -0.1679  0.8947
 A-DIIS (wt  1.000):  0.7552  0.0000  0.2448
  DIIS coefficients:  0.7552  0.0000  0.2448
 SCF Error: norm([F,P])=      0.585612161358, max([F,P])=      0.201146720038
 orbitals (Q,E):
 ---------------
 A :22...32          ( 2.00    -0.5480)  ( 2.00    -0.4772)  ( 2.00    -0.2328)  ( 2.00    -0.1614)
                     ( 2.00    -0.1614)  ( 2.00    -0.1114)  ( 2.00    -0.1114)  ( 2.00    -0.0856)
                     ( 2.00    -0.0408)  ( 2.00    -0.0408)  ( 0.00     0.0036)

 CYCLE    4
  SDIIS (wt  0.000): -0.7262  0.2942  1.4321
 A-DIIS (wt  1.000):  0.0000  0.5216  0.4784
  DIIS coefficients:  0.0000  0.5216  0.4784
 SCF Error: norm([F,P])=      0.613925505803, max([F,P])=      0.271709799737
 orbitals (Q,E):
 ---------------
 A :22...32          ( 2.00    -0.7642)  ( 2.00    -0.3542)  ( 2.00    -0.3102)  ( 2.00    -0.3102)
                     ( 2.00    -0.2894)  ( 2.00    -0.1359)  ( 2.00    -0.1359)  ( 2.00    -0.1337)
                     ( 2.00     0.0949)  ( 2.00     0.0950)  ( 0.00     0.1411)

 CYCLE    5
  SDIIS (wt  0.000): -0.0537  0.7123  0.0987  0.2427
 A-DIIS (wt  1.000):  0.0000  0.7291  0.0000  0.2709
  DIIS coefficients:  0.0000  0.7291  0.0000  0.2709
 SCF Error: norm([F,P])=      1.505000632687, max([F,P])=      0.437279354874
 orbitals (Q,E):
 ---------------
 A :22...32          ( 2.00    -0.5635)  ( 2.00    -0.4694)  ( 2.00    -0.2134)  ( 2.00    -0.1440)
                     ( 2.00    -0.1440)  ( 2.00    -0.1081)  ( 2.00    -0.1081)  ( 2.00    -0.0955)
                     ( 2.00    -0.0462)  ( 2.00    -0.0462)  ( 0.00     0.0178)

 CYCLE    6
  SDIIS (wt  0.000): -0.1652  0.0049  0.6165 -0.0647  0.6085
 A-DIIS (wt  1.000):  0.0000  0.0059  0.4313  0.0000  0.5628
  DIIS coefficients:  0.0000  0.0059  0.4313  0.0000  0.5628
 SCF Error: norm([F,P])=      0.472624699054, max([F,P])=      0.139002743191
 orbitals (Q,E):
 ---------------
 A :22...32          ( 2.00    -0.5153)  ( 2.00    -0.5019)  ( 2.00    -0.2110)  ( 2.00    -0.1387)
                     ( 2.00    -0.1387)  ( 2.00    -0.0834)  ( 2.00    -0.0834)  ( 2.00    -0.0765)
                     ( 2.00    -0.0643)  ( 2.00    -0.0643)  ( 0.00     0.0039)

 CYCLE    7
  SDIIS (wt  0.016):  0.0187 -0.3913  0.4476  0.0016  0.2135  0.7099
 A-DIIS (wt  0.984):  0.0000  0.0000  0.0000  0.0000  0.0743  0.9257
  DIIS coefficients:  0.0003 -0.0062  0.0071  0.0000  0.0765  0.9222
 SCF Error: norm([F,P])=      0.224773248304, max([F,P])=      0.098425004414
 orbitals (Q,E):
 ---------------
 A :22...32          ( 2.00    -0.5234)  ( 2.00    -0.4986)  ( 2.00    -0.2839)  ( 2.00    -0.2298)
                     ( 2.00    -0.2298)  ( 2.00    -0.0829)  ( 2.00    -0.0829)  ( 2.00    -0.0821)
                     ( 2.00    -0.0757)  ( 2.00    -0.0757)  ( 0.00    -0.0280)

 CYCLE    8
  SDIIS (wt  0.000): -0.0406 -0.0350  0.1616 -0.0247  0.1538  0.6000  0.1849
 A-DIIS (wt  1.000):  0.0000  0.0000  0.0000  0.0000  0.0000  0.8204  0.1796
  DIIS coefficients:  0.0000  0.0000  0.0000  0.0000  0.0000  0.8204  0.1796
 SCF Error: norm([F,P])=      0.708895134317, max([F,P])=      0.288268689299
 orbitals (Q,E):
 ---------------
 A :22...32          ( 2.00    -0.5249)  ( 2.00    -0.5007)  ( 2.00    -0.2439)  ( 2.00    -0.1780)
                     ( 2.00    -0.1780)  ( 2.00    -0.0856)  ( 2.00    -0.0856)  ( 2.00    -0.0831)
                     ( 2.00    -0.0747)  ( 2.00    -0.0747)  ( 0.00    -0.0151)

 CYCLE    9
  SDIIS (wt  0.000): -0.0252 -0.0700  0.1569 -0.0134  0.0009  0.4379 -0.0855  0.5984
 A-DIIS (wt  1.000):  0.0000  0.0000  0.0000  0.0000  0.0000  0.5768  0.0000  0.4232
  DIIS coefficients:  0.0000  0.0000  0.0000  0.0000  0.0000  0.5768  0.0000  0.4232
 SCF Error: norm([F,P])=      0.256191825313, max([F,P])=      0.122371894921
 orbitals (Q,E):
 ---------------
 A :22...32          ( 2.00    -0.5200)  ( 2.00    -0.5011)  ( 2.00    -0.2379)  ( 2.00    -0.1704)
                     ( 2.00    -0.1703)  ( 2.00    -0.0899)  ( 2.00    -0.0899)  ( 2.00    -0.0793)
                     ( 2.00    -0.0656)  ( 2.00    -0.0656)  ( 0.00    -0.0115)

 CYCLE   10
  SDIIS (wt  0.000): -0.0049 -0.0336  0.0289 -0.0023 -0.0163  0.3854 -0.1072  0.5701  0.1799
 A-DIIS (wt  1.000):  0.0000  0.0000  0.0000  0.0000  0.0000  0.4861  0.0000  0.3840  0.1299
  DIIS coefficients:  0.0000  0.0000  0.0000  0.0000  0.0000  0.4861  0.0000  0.3840  0.1299
 SCF Error: norm([F,P])=      0.248932449472, max([F,P])=      0.104225705482
 orbitals (Q,E):
 ---------------
 A :22...32          ( 2.00    -0.5193)  ( 2.00    -0.5042)  ( 2.00    -0.2297)  ( 2.00    -0.1599)
                     ( 2.00    -0.1598)  ( 2.00    -0.0852)  ( 2.00    -0.0851)  ( 2.00    -0.0806)
                     ( 2.00    -0.0715)  ( 2.00    -0.0715)  ( 0.00    -0.0085)

 CYCLE   11
  SDIIS (wt  0.937): -0.0029 -0.0244  0.0273 -0.0009 -0.0089  0.2411 -0.0447  0.2676  0.0587  0.4870
 A-DIIS (wt  0.063):  0.0000  0.0000  0.0000  0.0000  0.0000  0.0000  0.0000  0.0000  0.0000  1.0000
  DIIS coefficients: -0.0027 -0.0228  0.0256 -0.0008 -0.0083  0.2259 -0.0419  0.2507  0.0550  0.5193
 SCF Error: norm([F,P])=      0.019750788861, max([F,P])=      0.007244484839
 orbitals (Q,E):
 ---------------
 A :22...32          ( 2.00    -0.5187)  ( 2.00    -0.5038)  ( 2.00    -0.2279)  ( 2.00    -0.1576)
                     ( 2.00    -0.1576)  ( 2.00    -0.0848)  ( 2.00    -0.0848)  ( 2.00    -0.0801)
                     ( 2.00    -0.0708)  ( 2.00    -0.0708)  ( 0.00    -0.0074)

 CYCLE   12
  SDIIS (wt  1.000): -0.0030  0.0026 -0.0001 -0.0004  0.0285 -0.0038  0.0278  0.0021  0.1620  0.7843
  DIIS coefficients: -0.0030  0.0026 -0.0001 -0.0004  0.0285 -0.0038  0.0278  0.0021  0.1620  0.7843
 SCF Error: norm([F,P])=      0.002545171724, max([F,P])=      0.000994749552
 orbitals (Q,E):
 ---------------
 A :22...32          ( 2.00    -0.5189)  ( 2.00    -0.5038)  ( 2.00    -0.2280)  ( 2.00    -0.1578)
                     ( 2.00    -0.1578)  ( 2.00    -0.0848)  ( 2.00    -0.0848)  ( 2.00    -0.0802)
                     ( 2.00    -0.0709)  ( 2.00    -0.0709)  ( 0.00    -0.0074)

 CYCLE   13
  SDIIS (wt  1.000): -0.0001 -0.0000  0.0001  0.0020  0.0003  0.0014 -0.0002  0.0393  0.3116  0.6456
  DIIS coefficients: -0.0001 -0.0000  0.0001  0.0020  0.0003  0.0014 -0.0002  0.0393  0.3116  0.6456
 SCF Error: norm([F,P])=      0.000481689042, max([F,P])=      0.000162367741
 orbitals (Q,E):
 ---------------
 A :22...32          ( 2.00    -0.5188)  ( 2.00    -0.5038)  ( 2.00    -0.2280)  ( 2.00    -0.1578)
                     ( 2.00    -0.1578)  ( 2.00    -0.0848)  ( 2.00    -0.0848)  ( 2.00    -0.0802)
                     ( 2.00    -0.0709)  ( 2.00    -0.0709)  ( 0.00    -0.0074)

 CYCLE   14
  SDIIS (wt  1.000): -0.0000 -0.0001  0.0001 -0.0000  0.0004  0.0009  0.0043  0.0567  0.2722  0.6655
  DIIS coefficients: -0.0000 -0.0001  0.0001 -0.0000  0.0004  0.0009  0.0043  0.0567  0.2722  0.6655
 SCF Error: norm([F,P])=      0.000265285139, max([F,P])=      0.000115798313
 orbitals (Q,E):
 ---------------
 A :22...32          ( 2.00    -0.5188)  ( 2.00    -0.5038)  ( 2.00    -0.2280)  ( 2.00    -0.1578)
                     ( 2.00    -0.1578)  ( 2.00    -0.0848)  ( 2.00    -0.0848)  ( 2.00    -0.0802)
                     ( 2.00    -0.0709)  ( 2.00    -0.0709)  ( 0.00    -0.0074)

 CYCLE   15
  SDIIS (wt  1.000): -0.0000  0.0001 -0.0000  0.0001  0.0003  0.0019  0.0142  0.0681  0.1807  0.7347
  DIIS coefficients: -0.0000  0.0001 -0.0000  0.0001  0.0003  0.0019  0.0142  0.0681  0.1807  0.7347
 SCF Error: norm([F,P])=      0.000025238874, max([F,P])=      0.000010738896
 orbitals (Q,E):
 ---------------
 A :22...32          ( 2.00    -0.5188)  ( 2.00    -0.5038)  ( 2.00    -0.2280)  ( 2.00    -0.1578)
                     ( 2.00    -0.1578)  ( 2.00    -0.0848)  ( 2.00    -0.0848)  ( 2.00    -0.0802)
                     ( 2.00    -0.0709)  ( 2.00    -0.0709)  ( 0.00    -0.0074)

 CYCLE   16
  SDIIS (wt  1.000):  0.0000  0.0000 -0.0000  0.0000  0.0003  0.0006 -0.0001  0.0006  0.2219  0.7765
  DIIS coefficients:  0.0000  0.0000 -0.0000  0.0000  0.0003  0.0006 -0.0001  0.0006  0.2219  0.7765
 SCF Error: norm([F,P])=      0.000010188495, max([F,P])=      0.000004016537
 orbitals (Q,E):
 ---------------
 A :22...32          ( 2.00    -0.5188)  ( 2.00    -0.5038)  ( 2.00    -0.2280)  ( 2.00    -0.1578)
                     ( 2.00    -0.1578)  ( 2.00    -0.0848)  ( 2.00    -0.0848)  ( 2.00    -0.0802)
                     ( 2.00    -0.0709)  ( 2.00    -0.0709)  ( 0.00    -0.0074)

 CYCLE   17
  SDIIS (wt  1.000):  0.0000 -0.0000  0.0000  0.0000 -0.0004 -0.0021 -0.0052  0.0685  0.3235  0.6156
  DIIS coefficients:  0.0000 -0.0000  0.0000  0.0000 -0.0004 -0.0021 -0.0052  0.0685  0.3235  0.6156
 SCF Error: norm([F,P])=      0.000000909398, max([F,P])=      0.000000191900
 orbitals (Q,E):
 ---------------
 A :22...32          ( 2.00    -0.5188)  ( 2.00    -0.5038)  ( 2.00    -0.2280)  ( 2.00    -0.1578)
                     ( 2.00    -0.1578)  ( 2.00    -0.0848)  ( 2.00    -0.0848)  ( 2.00    -0.0802)
                     ( 2.00    -0.0709)  ( 2.00    -0.0709)  ( 0.00    -0.0074)

 SCF CONVERGED

 CYCLE   18
1
 ***************************************************************************************************



                                                *******************
                                                *  R E S U L T S  *
                                                *******************
  
 *** Setting up for NEW gradients in Focky
 *** Using FIT density in Focky

 Orbital Energies, per Irrep and Spin:
 ======================================
                        Occup              E (au)              E (eV)       Diff (eV) with prev. cycle
                        -----      --------------------        ------       --------------------------
 A
              22        2.000     -0.51882942409668E+00       -14.118              -6.05E-07
              23        2.000     -0.50381590288433E+00       -13.710              -6.08E-07
              24        2.000     -0.22802269785093E+00        -6.205              -7.51E-07
              25        2.000     -0.15780965787567E+00        -4.294              -8.38E-07
              26        2.000     -0.15780575480526E+00        -4.294              -8.38E-07
              27        2.000     -0.84802649479840E-01        -2.308              -5.03E-07
              28        2.000     -0.84801474576295E-01        -2.308              -5.03E-07
              29        2.000     -0.80161634232185E-01        -2.181              -4.85E-07
              30        2.000     -0.70918989564107E-01        -1.930              -5.43E-07
              31        2.000     -0.70917471526461E-01        -1.930              -5.43E-07
              32        0.000     -0.74484005506170E-02        -0.203
              33        0.000      0.20325593883213E+00         5.531
              34        0.000      0.29772070193745E+00         8.101
              35        0.000      0.29989482350292E+00         8.161
              36        0.000      0.29991057169396E+00         8.161
              37        0.000      0.38642467663533E+00        10.515
              38        0.000      0.42313792411749E+00        11.514
              39        0.000      0.42314317613016E+00        11.514
              40        0.000      0.44965160012638E+00        12.236
              41        0.000      0.44965486350766E+00        12.236
  
 HOMO :       31 A                -0.70917471526461E-01
 LUMO :       32 A                -0.74484005506170E-02
  


 All Electron Calculation, thus no Orbital Energies of the Core Orbitals are calculated


 Fit test: (difference of exact and fit density, squared integrated, result summed over spins)
         Sum-of-Fragments:                             0.00085693756104
         Orthogonalized Fragments:                     0.00086697199025
         SCF:                                          0.00086656305129



 ==========================
 Electron Density at Nuclei
 ==========================
  
 The electron density is calculated at points on a small sphere around the center of a nucleus.
 The printed electron density is the average electron density on these points.
 The radius of the sphere is the printed approximate finite nuclear radius.

         Atom        Nuclear Radius (Angstrom)             Electron Density (a.u.)
         ----        -------------------------             -----------------------
     1)   F                 0.0000361580                              448.26080
     2)   Br                0.0000536685                            29313.74596
     3)   Cl                0.0000426624                             3210.78872



 =======================================
 M U L L I K E N   P O P U L A T I O N S
 =======================================
  
 The survey below gives for each atom:
 a) the total charge (Z minus electrons)
 b) the net spin polarization (nr of electrons spin-A minus spin-B)
 c) for each spin the atomic electron valence density (integrated) per L-value.

 Atom              Charge    Spin density          S         P         D         F
 ----              ------    ------------       ------    ------    ------    ------
 1 F              -0.2564                       3.9408    5.2952    0.0190    0.0014
 2 Br             -0.3245                       7.9924   17.2728   10.0462    0.0131
 3 Cl             -0.4191                       5.9908   11.4063    0.0170    0.0051

 Populations of individual BAS functions
 ----------------------------------------
 1 F            0.5755  1.4004  1.1241  0.8803 -0.0396  0.3800  0.3022  0.4188  0.9550  0.8223
                1.0211  0.4822  0.3808  0.5327 -0.0011  0.0078  0.0008  0.0166  0.0025 -0.0076
               -0.0011 -0.0019  0.0004  0.0040  0.0001 -0.0023  0.0061  0.0045 -0.0037 -0.0048
 2 Br           0.3611  1.5681  2.0732  0.7131  0.7127  0.7133  1.2649  1.2656  1.2645  1.4384
                0.5932  1.1371  1.1291  1.1410  0.8913  0.8979  0.8880  0.2677  0.4015  0.4017
                0.2676  0.4015  0.2678  0.7771  1.1649  1.1658  0.7756  1.1651  0.7778  0.2881
                0.4340  0.4325  0.2925  0.4334  0.2860  0.2735  1.2276  0.4572  0.5862  0.4799
                0.6386  0.9376  0.7574  1.0264  0.2889  0.2134  0.3261  0.0035  0.0144  0.0033
                0.0173  0.0095 -0.0025 -0.0019  0.0001  0.0005  0.0091  0.0018 -0.0031  0.0103
                0.0073 -0.0053 -0.0059
 3 Cl           0.5055  1.4529  1.7135  0.2516  0.7268  0.7227  0.7289  1.2712  1.2766  1.2684
                0.6158  1.0342  0.4174  0.2875  0.2389  0.3121  1.0121  0.8793  1.0793  0.5526
                0.4410  0.6088 -0.0000  0.0062  0.0010  0.0117  0.0028 -0.0047 -0.0014 -0.0008
                0.0004  0.0055  0.0007 -0.0024  0.0068  0.0048 -0.0041 -0.0045

 Gross Charges per Atom (Z minus electrons)
 ==========================================
            -0.2564   -0.3245   -0.4191
 Net Total: -1.00000000


 Atom-Atom Population Matrix (off-diagonal elements not doubled)
 ===============================================================

     1 :     9.3296
     2 :    -0.0205   35.3038
     3 :    -0.0527    0.0411   17.4307


 Frag-Frag Population Matrix (off-diagonal elements not doubled)
 ===============================================================

     1 :    44.5925
     2 :    -0.0116   17.4307



 =================================================
 H I R S H F E L D   C H A R G E   A N A L Y S I S
 =================================================
  
 For each fragment: the (numerical) integral of rho(scf) * rho(fragment)/rho(sum-of-fragments)
 (nuclear charges are included, electrons are counted negative)

 The fragments and their ordering are defined in the early G E O M E T R Y output section.
 If you use single-atom fragments, this usually implies that all atoms of the same
 chemical type are grouped together. This may not be the order in which you listed them
 in the input file!

    1  FBr                      -0.4947
    2  Cl                       -0.5053

 Sum of these charges (accuracy NumInt/Tails) =          -1.00000140



 =============================
 V O R O N O I   C H A R G E S
 =============================
  
 For each atom: the (numerical) integral of the total electronic charge density in its Voronoi cell,
 i.e. the region of space that is closer to that atom than to any other atom.
 (cf. Wigner-Seitz cells in crystals)

 Within the Voronoi cell the subintegrals over the atomic sphere and the remaining part are evaluated
 separately to give the numbers of electrons (negative charge) in these regions.
 The net total charge in the cell (including the nuclear charge) is also given.

 Values are provided for
    a) the Initial (sum-of-fragments) density
    b) the Orthogonalized-Fragments density
    c) the SCF density
    d) the Voronoi Deformation Density (VDD): the difference SCF-Initial for the complete atomic cell
 ---------------------------------------------------------------------------------------------------
 Total NetCharge:              -1.000                     -1.000                     -1.000    0.000
 (accuracy NumInt/Tails)

 Remark: the 'NetTotal' Voronoi charges often do not match the Mulliken and/or Hirshfeld charges very
 well. This is caused by the fact that chemically different atoms are not treated in accordance with
 their relative sizes. (Voronoi cells are defined by boundary planes halfway between the atoms.)
 However, the CHANGES in charge, comparing 'Initial' to 'SCF' for instance, do give a fair indication
 of the flow of charge caused by the relaxation from sum-of-fragments to self-consistency.

 Warning: the absolute accuracy of the VDD charges obtained using the Fuzzy Cells (Becke) integration
 scheme is much poorer than the one obtained with an 'equivalent' Voronoi integration grid. 



 =================================================================
 M U L T I P O L E   D E R I V E D   C H A R G E   A N A L Y S I S
 =================================================================

 This charge analysis uses the atomic multipoles (obtained from the fitted density) up to some level X,
 and reconstructs these multipoles exactly (up to level X) by distributing charges over all atoms.
 This is achieved by using Lagrange multipliers and a weight function to keep the multipoles local.

 Dummy atoms can be included (by setting INCDUM in MDC-block to 1) to obtain a fractional charge.
 This is generally useful and necessary only for small symmetrical molecules, when there are not
 enough degrees of freedom to reconstruct the multipoles.

 Since the atomic multipoles are reconstructed up to level X,
 the molecular multipoles are represented also up to level X.
 The recommended level is to reconstruct up to quadrupole : -> MDC-q charges.

 See: M. Swart, P.Th. van Duijnen, J.G. Snijders, J.Comput.Chem., (2001), p. 79-88.

 ------------------------------------------------------------- 
 Atomic electronic multipole moments from SCF equations (a.u.)
 ------------------------------------------------------------- 

   atom        charge        dip-x     dip-y     dip-z      quad-xx   quad-xy   quad-xz   quad-yy   quad-yz   quad-zz
 --------------------------------------------------------------------------------------------------------------------
    1 F     -0.810578    -0.092303  0.161444 -0.010128     0.038754  0.134484 -0.009240 -0.192637  0.016000  0.153883
    2 Br     0.010468    -0.534620  0.925364 -0.062934    -0.350436 -1.196710  0.080831  1.722869 -0.139986 -1.372433
    3 Cl    -0.199889     0.347084 -0.596973  0.042584    -0.231597 -0.821552  0.058881  1.169323 -0.101220 -0.937726

 --------------------------------------- 
 Multipole derived atomic charges (a.u.)
 --------------------------------------- 

 The MDC-m charges are just the Monopole terms in the multipole expansion, while for the MDC-d charges
 also the Dipoles are reconstructed. The usually preferred charges are the MDC-q charges.
 These reconstruct the Monopoles, Dipoles and Quadrupoles (both atomic AND molecular).

        Atom    Level:     MDC-m        MDC-d        MDC-q
 ---------------------------------------------------------
     1     F           -0.810578    -0.265339    -0.078689
     2     Br           0.010468    -0.332598    -0.433510
     3     Cl          -0.199889    -0.402063    -0.487802

 ------------------------------------------------ 
 Average absolute deviations in atomic multipoles
 ------------------------------------------------ 

 Stated here are the average differences between the atomic multipoles
 and the reconstructed atomic multipoles (from the distributed charges).
 If these values are not zero, this means there are not enough degrees of freedom,
 to be able to reconstruct the atomic multipoles. (This usually happens only
 for small and/or highly symmetric molecules). If this is the case, one could add
 dummy atoms as extra point charges (and setting INCDUM in MDC-block to 1).

 Level:                                 MDC-d        MDC-q
 ---------------------------------------------------------
 Charge   (a.u.)                       0.0000       0.0000
 Dipole   (Debye)                      0.0001       0.0230
 Quad.    (a.u.)                       0.8058       0.2033

 --------------------------------------- 
 Represented molecular multipole moments
 --------------------------------------- 

 Given here are the Molecular multipole moments from the atomic charges, and from the Fit Density.
 Note that the atomic charges represent the latter, NOT the ones from the Exact density.

            Q (a.u.)             Dipole moment (Debye)                                          Quadrupole moment (a.u.)
                                 x         y         z              xx        xy        xz        yy        yz        zz
------------------------------------------------------------------------------------------------------------------------
MDC-m        -1.0000       24.7318  -16.7592    0.3418        -72.6318   97.8309   -2.0770    2.3597    1.5267   70.2722
MDC-d        -1.0000       24.0205  -15.5142    0.2644        -69.1610   94.4389   -2.0259   -0.1476    1.9035   69.3086
MDC-q        -1.0000       23.9489  -15.3847    0.2586        -68.5479   95.5033   -2.1309   -1.7438    2.1196   70.2917
 
Fit.Dens.    -1.0000       24.0206  -15.5141    0.2643        -69.0452   95.9940   -2.1338   -0.7309    2.0904   69.7761



 =============
 Dipole Moment  ***  (Debye)  ***
 =============
  
 Vector   :        24.01493794    -15.50425989      0.26365815
 Magnitude:        28.58616510

 This molecular dipole moment is calculated with analytic integration
 ************************************************************************************
 Since the molecule is NOT NEUTRAL, the dipole moment depends on the choice of origin
 ************************************************************************************



 =========================================
 Quadrupole Moment (Buckingham convention)  ***  (a.u.)  ***
 =========================================
  
      quad-xx        quad-xy        quad-xz        quad-yy        quad-yz        quad-zz
    -69.02533817    94.98678195    -2.06554503    -0.71370972     1.97647056    69.73904788

 This molecular quadrupole moment is calculated with analytic integration
1



                                             *************************
                                             *  SFO MO coefficients  *
                                             *************************
  


                                       === A ===
 MOs expanded in CFs+SFOs
 ========================

 The SFOs have been characterized in an earlier part of output.
 To deduce the bonding / antibonding nature of SFO combinations in an MO, consider the products
 of the coefficients AND THE OVERLAP between the SFOs (may be NEGATIVE). The SFO overlap matrix
 is printed later, in the SFO Populations section.

 (The CF coefficients are not printed)

 MOs :      1        2        3        4        5        6        7        8        9       10
 occup:   2.00     2.00     2.00     2.00     2.00     2.00     2.00     2.00     2.00     2.00
 CF+SFO
     1   1.0000  -0.0000   0.0000   0.0000  -0.0000  -0.0000   0.0000  -0.0000  -0.0000   0.0000
     2  -0.0000  -0.0000   1.0000   0.0004  -0.0000  -0.0000   0.0000  -0.0000   0.0001   0.0000
     3  -0.0000  -0.0000  -0.0004   1.0000  -0.0007  -0.0001   0.0000  -0.0000   0.0000   0.0000
     4   0.0000   0.0000   0.0000   0.0007   0.9998   0.0182  -0.0000   0.0000  -0.0000  -0.0000
     5   0.0000   0.0000   0.0000   0.0001  -0.0182   0.9998  -0.0000   0.0000  -0.0000  -0.0000
     6  -0.0000   0.0000  -0.0000   0.0000  -0.0000  -0.0000   1.0000   0.0001  -0.0001   0.0000
     7   0.0000  -0.0000  -0.0001  -0.0000   0.0000   0.0000   0.0000  -0.0000   1.0000   0.0000
     8  -0.0000   0.0000   0.0000  -0.0000  -0.0000  -0.0000  -0.0000   0.0000   0.0018  -0.0000
     9  -0.0000   0.0000   0.0000   0.0000  -0.0000   0.0000  -0.0000   0.0000   0.0000  -0.0000
    10   0.0000  -0.0000  -0.0000  -0.0000  -0.0000  -0.0000   0.0000  -0.0000  -0.0000   0.0000
    11   0.0000   0.0000   0.0000   0.0000   0.0000   0.0000  -0.0000   0.0000   0.0015  -0.0000
    12  -0.0000  -0.0000  -0.0000  -0.0000   0.0000  -0.0000   0.0000  -0.0000  -0.0000   0.0000
    13   0.0000   0.0000   0.0000   0.0000  -0.0000  -0.0000  -0.0000   0.0000   0.0000  -0.0000
    14  -0.0000  -0.0000  -0.0000  -0.0000  -0.0000   0.0000   0.0000  -0.0000  -0.0000   0.0000
    15   0.0000   0.0000   0.0000   0.0000  -0.0000  -0.0000   0.0000   0.0000   0.0000  -0.0000
    16   0.0000  -0.0000   0.0000  -0.0000   0.0000   0.0000   0.0001  -0.0007   0.0005  -0.0002
    17  -0.0000   0.0000   0.0000   0.0000  -0.0000  -0.0000  -0.0000   0.0001  -0.0004   0.0001
    18  -0.0000   0.0000  -0.0000   0.0000  -0.0000  -0.0000   0.0001   0.0003  -0.0002   0.0003
    19  -0.0000   0.0000  -0.0000   0.0000  -0.0000  -0.0000  -0.0000   0.0000  -0.0000   0.0000
    20   0.0000  -0.0000   0.0000  -0.0000   0.0000  -0.0000   0.0000  -0.0000   0.0000  -0.0000
    21  -0.0000   0.0000  -0.0000   0.0000   0.0000  -0.0000  -0.0000   0.0000  -0.0000   0.0000
    22  -0.0000   0.0000  -0.0000   0.0000   0.0000   0.0000  -0.0000   0.0000  -0.0000   0.0000
    23   0.0000  -0.0000   0.0000  -0.0000   0.0000  -0.0000  -0.0001  -0.0003   0.0002  -0.0002
    24   0.0000  -0.0000   0.0000  -0.0000   0.0000   0.0000  -0.0000  -0.0012   0.0012  -0.0001
    25  -0.0000   0.0000  -0.0000   0.0000  -0.0000  -0.0000  -0.0000   0.0005  -0.0004   0.0000
    26   0.0000  -0.0000   0.0000  -0.0000  -0.0000   0.0000  -0.0000  -0.0000   0.0000  -0.0000
    27  -0.0000   0.0000  -0.0000   0.0000   0.0000   0.0000   0.0000   0.0000  -0.0000  -0.0000
    28   0.0000  -0.0000   0.0000  -0.0000  -0.0000   0.0000  -0.0000  -0.0000   0.0000   0.0000
    29  -0.0000   0.0000  -0.0000  -0.0000   0.0000   0.0000   0.0000   0.0000  -0.0000  -0.0000
    30  -0.0000   0.0000  -0.0000   0.0000   0.0000   0.0000   0.0000   0.0000  -0.0000   0.0000
    31  -0.0000   0.0000  -0.0000  -0.0000   0.0000  -0.0000   0.0000   0.0000  -0.0000   0.0000
    32   0.0000  -0.0000   0.0000  -0.0000   0.0000   0.0000  -0.0000  -0.0004   0.0003  -0.0002
    33   0.0000   0.0000  -0.0000   0.0000  -0.0000   0.0000  -0.0001   0.0003  -0.0003   0.0002
    34   0.0000  -0.0000   0.0000  -0.0000   0.0000   0.0000  -0.0000  -0.0000   0.0000  -0.0000
    35  -0.0000   0.0000  -0.0000   0.0000  -0.0000   0.0000   0.0000   0.0000  -0.0000   0.0000
    36  -0.0000   0.0000  -0.0000   0.0000  -0.0000  -0.0000  -0.0000   0.0001  -0.0002   0.0005
    37   0.0000  -0.0000   0.0000  -0.0000   0.0000   0.0000  -0.0000   0.0000  -0.0000  -0.0000
    38   0.0000  -0.0000   0.0000  -0.0000  -0.0000  -0.0000  -0.0000  -0.0000   0.0000  -0.0000
    39  -0.0000  -0.0000  -0.0000   0.0000  -0.0000   0.0000   0.0000  -0.0000  -0.0000   0.0000
    40   0.0000   0.0000   0.0000  -0.0000   0.0000   0.0000  -0.0000   0.0000   0.0000  -0.0000
    41   0.0000   0.0000   0.0000  -0.0000   0.0000   0.0000   0.0000   0.0000  -0.0000  -0.0000
    42  -0.0000   0.0000   0.0000   0.0000  -0.0000   0.0000  -0.0000   0.0000  -0.0000  -0.0000
    43   0.0000  -0.0000  -0.0000   0.0000  -0.0000   0.0000  -0.0001  -0.0000   0.0000   0.0001
    44  -0.0000   0.0000  -0.0000  -0.0000  -0.0000  -0.0000   0.0000  -0.0000  -0.0000   0.0000
    45   0.0000  -0.0000   0.0000   0.0000   0.0000  -0.0000   0.0000  -0.0000   0.0000  -0.0000
    46   0.0000   0.0000   0.0000  -0.0000   0.0000  -0.0000  -0.0000   0.0001  -0.0000  -0.0001
    47  -0.0000   0.0000   0.0000  -0.0000   0.0000   0.0000   0.0000   0.0000   0.0000  -0.0000
    48   0.0000   0.0000  -0.0000  -0.0000   0.0000  -0.0000   0.0000   0.0000  -0.0000  -0.0000
    49  -0.0000   0.0000  -0.0000   0.0000  -0.0000   0.0000   0.0001   0.0002  -0.0001  -0.0000
    50   0.0000  -0.0000  -0.0000   0.0000   0.0000   0.0000   0.0000  -0.0000   0.0000   0.0000
    51  -0.0000   0.0000   0.0000  -0.0000   0.0000  -0.0000   0.0000   0.0000  -0.0000  -0.0000
    52   0.0000   0.0000  -0.0000  -0.0000   0.0000  -0.0000  -0.0001   0.0000   0.0001  -0.0001
    53  -0.0000   0.0000   0.0000   0.0000  -0.0000  -0.0000  -0.0000   0.0002  -0.0006  -0.0001
    54   0.0000  -0.0000  -0.0000  -0.0000   0.0000  -0.0000   0.0000  -0.0000   0.0000   0.0000
    55   0.0000  -0.0000  -0.0000  -0.0000   0.0000   0.0000   0.0000  -0.0000   0.0000   0.0000
    56   0.0000  -0.0000   0.0000  -0.0000  -0.0000   0.0000  -0.0000  -0.0000   0.0000   0.0000
    57   0.0000  -0.0000   0.0000   0.0000  -0.0000  -0.0000  -0.0000  -0.0000   0.0000   0.0000
    58   0.0000   0.0000   0.0000   0.0000  -0.0000   0.0000  -0.0001  -0.0000  -0.0001  -0.0000
    59  -0.0000   0.0000  -0.0000  -0.0000   0.0000   0.0000  -0.0000  -0.0000   0.0000   0.0000
    60  -0.0000  -0.0000  -0.0000  -0.0000  -0.0000   0.0000  -0.0000   0.0000   0.0000   0.0000
    61  -0.0000  -0.0000   0.0000  -0.0000  -0.0000   0.0000  -0.0000  -0.0000  -0.0000   0.0000
    62  -0.0000  -0.0000  -0.0000  -0.0000  -0.0000  -0.0000  -0.0000  -0.0000  -0.0000   0.0000
    63  -0.0000   0.0000   0.0000  -0.0000  -0.0000  -0.0000  -0.0000   0.0000  -0.0000  -0.0000
    64   0.0000  -0.0000  -0.0000   0.0000   0.0000  -0.0000   0.0000  -0.0000   0.0000   0.0000
    65   0.0000   0.0000  -0.0000  -0.0000   0.0000   0.0000   0.0000   0.0001  -0.0000  -0.0001
    66  -0.0000   0.0000  -0.0000   0.0000   0.0000   0.0000  -0.0000   0.0000  -0.0000  -0.0000
    67   0.0000  -0.0000   0.0000  -0.0000  -0.0000   0.0000   0.0000  -0.0000   0.0000   0.0000
    68  -0.0000  -0.0000   0.0000  -0.0000   0.0000   0.0000  -0.0002  -0.0000   0.0000   0.0000
    69  -0.0000   0.0000   0.0000  -0.0000  -0.0000  -0.0000   0.0000   0.0000  -0.0000  -0.0000
    70   0.0000  -0.0000  -0.0000  -0.0000  -0.0000   0.0000  -0.0000  -0.0000   0.0000   0.0000
    71  -0.0000  -0.0000   0.0000   0.0000  -0.0000  -0.0000   0.0000  -0.0000  -0.0000  -0.0000
    72  -0.0000  -0.0000   0.0001   0.0000  -0.0000  -0.0000   0.0000  -0.0000   0.0001   0.0000
    73   0.0000   0.0000  -0.0000  -0.0000  -0.0000  -0.0000  -0.0000   0.0000   0.0000   0.0000
    74  -0.0000  -0.0000   0.0000  -0.0000  -0.0000   0.0000  -0.0000  -0.0000   0.0000   0.0000
    75  -0.0000   0.0000   0.0000   0.0000  -0.0000  -0.0000  -0.0000   0.0000  -0.0000   0.0000
    76   0.0000   0.0000   0.0000   0.0000  -0.0000   0.0000  -0.0000   0.0000  -0.0000   0.0000
    77   0.0000   0.0000   0.0000   0.0000  -0.0000   0.0000   0.0000   0.0000  -0.0001  -0.0000
    78  -0.0000   0.0000  -0.0000   0.0000  -0.0000  -0.0000   0.0002  -0.0000  -0.0000  -0.0000
    79   0.0000   0.0000  -0.0000  -0.0000  -0.0001   0.0000   0.0000   0.0000   0.0000  -0.0000
    80   0.0000   0.0000  -0.0000  -0.0000  -0.0000  -0.0001   0.0000   0.0000   0.0000  -0.0000
    81   0.0000  -0.0000  -0.0000   0.0001  -0.0000  -0.0000  -0.0000   0.0000   0.0000  -0.0000
    82  -0.0001   0.0000   0.0000  -0.0000   0.0000  -0.0000  -0.0000   0.0000   0.0000  -0.0000
    83   0.0000  -1.0000   0.0000  -0.0000   0.0000   0.0000  -0.0000   0.0000   0.0000   0.0000
    84   0.0000   0.0001   0.0000  -0.0000   0.0000   0.0000  -0.0000   0.9999   0.0002   0.0016
    85  -0.0000  -0.0000   0.0000  -0.0000  -0.0000  -0.0000  -0.0000   0.0001  -0.0000  -0.0484
    86   0.0000   0.0000  -0.0000   0.0000   0.0000  -0.0000   0.0000  -0.0014   0.0000   0.8696
    87  -0.0000  -0.0000   0.0000  -0.0000   0.0000  -0.0000  -0.0000   0.0008  -0.0000  -0.4914
    88  -0.0000   0.0000  -0.0000   0.0000  -0.0000  -0.0000   0.0000   0.0013  -0.0009   0.0003
    89  -0.0000   0.0000  -0.0000   0.0000  -0.0000   0.0000  -0.0000   0.0004  -0.0001   0.0001
    90  -0.0000   0.0000  -0.0000   0.0000   0.0000  -0.0000  -0.0000   0.0004  -0.0001   0.0001
    91  -0.0000   0.0000  -0.0000   0.0000   0.0000   0.0000  -0.0000   0.0000  -0.0000   0.0000
    92   0.0000  -0.0000   0.0000  -0.0000   0.0000   0.0000  -0.0000  -0.0005   0.0014  -0.0002
    93   0.0000  -0.0000   0.0000  -0.0000   0.0000   0.0000   0.0000  -0.0007   0.0006  -0.0002
    94   0.0000  -0.0000   0.0000  -0.0000  -0.0000  -0.0000   0.0000  -0.0000   0.0000  -0.0000
    95   0.0000  -0.0000   0.0000  -0.0000  -0.0000   0.0000   0.0000  -0.0000   0.0000  -0.0000
    96   0.0000   0.0000  -0.0000   0.0000   0.0000  -0.0000  -0.0000  -0.0001   0.0002   0.0002
    97  -0.0000  -0.0000   0.0000  -0.0000   0.0000  -0.0000   0.0000   0.0001  -0.0001  -0.0001
    98   0.0000   0.0000  -0.0000   0.0000   0.0000   0.0000  -0.0000  -0.0001   0.0001   0.0002
    99   0.0000   0.0000  -0.0000   0.0000  -0.0000  -0.0000  -0.0000  -0.0000   0.0001   0.0001
   100  -0.0000  -0.0000   0.0000  -0.0000  -0.0000  -0.0000   0.0000   0.0000  -0.0000  -0.0000
   101   0.0000   0.0000   0.0000   0.0000  -0.0000   0.0000  -0.0000   0.0000   0.0001   0.0001
   102  -0.0000  -0.0000  -0.0000  -0.0000   0.0000  -0.0000   0.0000   0.0000  -0.0000  -0.0000
   103  -0.0000  -0.0000  -0.0000  -0.0000   0.0000   0.0000   0.0000  -0.0000  -0.0000  -0.0000
   104   0.0000   0.0000   0.0000   0.0000  -0.0000  -0.0000  -0.0000   0.0000   0.0000   0.0000
   105   0.0000   0.0000   0.0000   0.0000   0.0000  -0.0000  -0.0000  -0.0000   0.0000   0.0000
   106   0.0000   0.0000   0.0000   0.0000   0.0000   0.0000  -0.0000   0.0000   0.0000   0.0001
   107   0.0000   0.0000   0.0000   0.0000  -0.0000  -0.0000  -0.0000   0.0000   0.0001   0.0002
   108  -0.0000   0.0000  -0.0000  -0.0000   0.0000   0.0000  -0.0000   0.0010  -0.0004  -0.0000
   109   0.0000  -0.0000  -0.0000   0.0000  -0.0000   0.0000   0.0000  -0.0000   0.0001   0.0002
   110  -0.0000   0.0000   0.0000  -0.0000  -0.0000   0.0000  -0.0000   0.0001  -0.0002  -0.0005
   111  -0.0000   0.0000   0.0000  -0.0000   0.0000   0.0000  -0.0000   0.0000  -0.0000  -0.0000
   112   0.0000   0.0001   0.0000  -0.0000   0.0000   0.0000  -0.0000   0.0003   0.0001   0.0000
   113   0.0000  -0.0000  -0.0000   0.0000  -0.0000   0.0000  -0.0000  -0.0000   0.0000   0.0003
   114  -0.0000   0.0000   0.0000  -0.0000  -0.0000   0.0000   0.0000   0.0001  -0.0000  -0.0005
   115  -0.0000   0.0000   0.0000  -0.0000  -0.0000  -0.0000   0.0000   0.0000  -0.0000  -0.0002
   116  -0.0000   0.0001  -0.0000   0.0000  -0.0000  -0.0000  -0.0000  -0.0000  -0.0000  -0.0000

 MOs :     11       12       13       14       15       16       17       18       19       20
 occup:   2.00     2.00     2.00     2.00     2.00     2.00     2.00     2.00     2.00     2.00
 CF+SFO
     1   0.0000  -0.0000   0.0000  -0.0000   0.0000   0.0000   0.0000   0.0000  -0.0000   0.0000
     2   0.0000  -0.0000  -0.0000   0.0000  -0.0000   0.0000   0.0000   0.0000  -0.0000   0.0000
     3   0.0000  -0.0000   0.0000   0.0000  -0.0000   0.0000   0.0000   0.0000  -0.0000   0.0000
     4  -0.0000   0.0000   0.0000  -0.0000  -0.0000   0.0000  -0.0000  -0.0000  -0.0000  -0.0000
     5   0.0000   0.0000   0.0000   0.0000  -0.0000   0.0000   0.0000  -0.0000   0.0000  -0.0000
     6   0.0000  -0.0000   0.0000   0.0000  -0.0000   0.0000  -0.0000  -0.0000  -0.0000  -0.0000
     7   0.0000  -0.0000  -0.0018   0.0000  -0.0000   0.0015   0.0000   0.0000  -0.0000   0.0000
     8   0.0000   0.0000   1.0000  -0.0000   0.0004  -0.0007  -0.0000  -0.0000   0.0000  -0.0000
     9   0.0000   0.0000  -0.0000  -1.0000   0.0058   0.0000   0.0003  -0.0007   0.0000  -0.0000
    10   0.0000  -0.0000   0.0004  -0.0058  -1.0000  -0.0000   0.0007   0.0003   0.0000   0.0000
    11   0.0000   0.0000  -0.0007  -0.0000   0.0000  -1.0000  -0.0011  -0.0005   0.0001  -0.0000
    12   0.0000  -0.0000   0.0000   0.0003   0.0007  -0.0011   0.9990   0.0443   0.0005  -0.0000
    13   0.0000   0.0000  -0.0000   0.0007  -0.0003   0.0004   0.0443  -0.9990  -0.0001  -0.0005
    14  -0.0000   0.0000   0.0000  -0.0000  -0.0000  -0.0001   0.0005   0.0001  -1.0000  -0.0051
    15   0.0000   0.0000  -0.0000   0.0000  -0.0000   0.0000  -0.0001   0.0005   0.0051  -1.0000
    16  -0.0000   0.0000  -0.0001  -0.0000   0.0000  -0.0002  -0.0000   0.0000   0.0000   0.0000
    17   0.0000  -0.0000   0.0000   0.0000  -0.0000  -0.0016  -0.0000  -0.0000   0.0000  -0.0000
    18   0.0000  -0.0000   0.0003   0.0000  -0.0000   0.0004   0.0000   0.0000  -0.0000  -0.0000
    19   0.0000   0.0000   0.0000   0.0000  -0.0000   0.0000   0.0000  -0.0000  -0.0000  -0.0000
    20   0.0000  -0.0000  -0.0000   0.0000   0.0000  -0.0000   0.0000   0.0000   0.0000  -0.0000
    21   0.0000  -0.0000   0.0000   0.0001   0.0001   0.0000  -0.0000   0.0000  -0.0000  -0.0000
    22  -0.0000  -0.0000   0.0000  -0.0001   0.0001   0.0000  -0.0000  -0.0000  -0.0000  -0.0000
    23  -0.0000   0.0000   0.0002  -0.0000   0.0000  -0.0002  -0.0000   0.0000   0.0000  -0.0000
    24  -0.0000   0.0000  -0.0002  -0.0000   0.0000   0.0001   0.0000   0.0000   0.0000   0.0000
    25   0.0000  -0.0000   0.0003   0.0000  -0.0000   0.0003   0.0000  -0.0000  -0.0000  -0.0000
    26   0.0000  -0.0000  -0.0000  -0.0000  -0.0000  -0.0000  -0.0000  -0.0000   0.0000   0.0000
    27   0.0000   0.0000  -0.0000  -0.0000   0.0000  -0.0000  -0.0000   0.0000   0.0000  -0.0000
    28   0.0000  -0.0000  -0.0000  -0.0000  -0.0000  -0.0000   0.0003   0.0001  -0.0000  -0.0000
    29   0.0000   0.0000   0.0000  -0.0000   0.0000   0.0000   0.0001  -0.0003  -0.0000   0.0000
    30   0.0000   0.0000   0.0000  -0.0000   0.0000   0.0000  -0.0000   0.0000   0.0001  -0.0006
    31  -0.0000   0.0000   0.0000   0.0000   0.0000  -0.0000   0.0000   0.0000  -0.0006  -0.0001
    32  -0.0000   0.0000  -0.0001  -0.0000   0.0000  -0.0002  -0.0000  -0.0000   0.0000  -0.0000
    33   0.0000  -0.0000   0.0001   0.0000  -0.0000   0.0005   0.0000   0.0000  -0.0000  -0.0000
    34   0.0000   0.0000  -0.0000  -0.0001   0.0000  -0.0000   0.0000  -0.0000  -0.0000   0.0000
    35   0.0000  -0.0000   0.0000  -0.0000  -0.0001   0.0000   0.0000   0.0000  -0.0000  -0.0000
    36   0.0000   0.0000   0.0001   0.0000  -0.0000  -0.0001  -0.0000  -0.0000  -0.0000   0.0000
    37   0.0000   0.0000   0.0000  -0.0000  -0.0000   0.0000   0.0000  -0.0000   0.0001  -0.0001
    38   0.0000  -0.0000  -0.0000   0.0000  -0.0000   0.0000  -0.0000  -0.0000   0.0001   0.0001
    39   0.0000  -0.0000   0.0000   0.0000   0.0001   0.0000  -0.0001  -0.0000   0.0000   0.0000
    40   0.0000   0.0000  -0.0000   0.0001  -0.0000   0.0000  -0.0000   0.0001   0.0000  -0.0000
[...]
  113    2.25681857044770E-16  2.70867782528116E-16 -7.92554170367068E-17  2.81079969082239E-16
  114    7.01033319207425E-17  7.80559654438355E-16 -3.56740168009214E-16 -5.05012365601238E-16
  115    1.79392618208066E-16 -2.37138242354180E-16 -5.04151991885065E-17 -2.89112504943782E-16
  116   -1.87702501111553E-16 -3.97332991161625E-16 -7.58128369110489E-17 -1.35708230677295E-16

 column         101                   102                   103                   104
 row
  101    1.00000000000000E+00
  102    4.65538208326053E-16  1.00000000000000E+00
  103   -5.20674221517291E-17  1.31772452350897E-16  1.00000000000000E+00
  104   -2.23345002331136E-17 -4.04151853726950E-16  7.07187441635194E-17  1.00000000000000E+00
  105    9.07204625652391E-17 -3.14449512012078E-16 -9.21569780683862E-16 -6.54518050519710E-14
  106   -1.50519465336596E-16 -7.16672542324545E-18 -5.43817054225520E-16 -4.17515254046686E-15
  107   -2.83428976733432E-16 -4.39337417468102E-17  2.72983614582076E-16  7.75602129416753E-17
  108   -9.94554005293122E-16  1.18611275955467E-16 -1.11141919396536E-16 -2.35812860784854E-16
  109   -3.50691254269965E-16  2.03099007206471E-16  1.82157479331691E-16  1.38637733830043E-16
  110    2.26118018132113E-15  2.34252799803940E-16  1.68626525045998E-16  1.93405375422069E-16
  111   -3.94683736800410E-17  1.08647688091292E-16 -6.54704333515107E-16  6.16138780324373E-16
  112    8.15190384728610E-16 -1.02538713698344E-16  5.83515577676114E-16  2.31487242194239E-16
  113   -1.75588619711726E-16  9.04083242550322E-17  3.80386647831370E-16  1.54682066480812E-16
  114   -2.84459339374208E-17 -2.35850844091402E-17  1.33548313205409E-16  2.03564119491176E-17
  115   -2.26736161601195E-18  3.46407908744554E-17  1.59259088420639E-16  1.96666005591467E-16
  116   -7.93635990259389E-17 -4.91418869843791E-17 -6.46726595887603E-17 -1.30050050589636E-16

 column         105                   106                   107                   108
 row
  105    1.00000000000000E+00
  106    1.01545778772748E-15  1.00000000000000E+00
  107   -4.94417899956868E-16 -2.94751553998233E-16  1.00000000000000E+00
  108    5.26236456925700E-17  1.32554806424006E-16  3.94307177715796E-16  1.00000000000001E+00
  109    1.17252279792639E-15  2.10097377257577E-16  1.85493015668640E-15 -6.21040321762117E-17
  110   -1.76089492461878E-16 -9.31053851061599E-17  8.68450704721217E-16  2.11222911990910E-16
  111   -1.53436791617831E-15 -9.27059761166539E-15  6.10969311777500E-16  2.67305386945091E-16
  112    3.31253225592994E-16 -1.25854537583208E-18 -2.32086815789441E-16 -2.97947227328489E-14
  113   -4.86031946680817E-16  4.15320304896832E-17 -1.77371372602790E-16  1.86622110587330E-16
  114    3.72833859147519E-17 -2.75941284889043E-16  3.40591259876685E-16  5.09718593152747E-16
  115   -3.40652582549505E-16  3.63474384342351E-16  2.75355442492008E-16 -1.71266885561267E-16
  116   -2.39680360282458E-16  9.45153243864238E-17 -5.14996031930615E-17  1.55474591534421E-14

 column         109                   110                   111                   112
 row
  109    1.00000000000000E+00
  110    6.84714329506064E-16  9.99999999999999E-01
  111   -3.93071541934209E-16 -4.75702597023961E-16  1.00000000000000E+00
  112   -4.91912266535567E-17  2.52959359324035E-15  1.98477183717101E-16  1.00000000000004E+00
  113    9.66814258605695E-16 -2.20545780124865E-16  8.24890738389464E-16  1.24190308424267E-15
  114   -1.11259895204220E-17 -5.31401366053036E-16  7.20014718750463E-16 -4.34354958989450E-15
  115   -1.12695668989376E-15 -3.65158021143697E-16  2.43988952187344E-16 -8.90988769139997E-16
  116   -2.52619106189123E-17 -1.10154940724527E-16  5.81674465538473E-17 -2.23339142318979E-14

 column         113                   114                   115                   116
 row
  113    1.00000000000000E+00
  114    5.66083024199245E-16  9.99999999999997E-01
  115    1.50419625960150E-15  9.29744126366907E-17  9.99999999999998E-01
  116    2.56739074444567E-16 -1.32055824608734E-16 -1.68376597386999E-16  1.00000000000001E+00


 SFO contributions (%) per orbital
 (multiplication by the orbital occupation yields the SFO Gross Populations)

 Orb.:       22     23     24     25     26     27     28     29     30     31     32     33     34     35
 occup:     2.00   2.00   2.00   2.00   2.00   2.00   2.00   2.00   2.00   2.00   0.00   0.00   0.00   0.00
 CF+SFO     ----   ----   ----   ----   ----   ----   ----   ----   ----   ----   ----   ----   ----   ----
 ------
     17:   30.09  69.69   0.07   0.00   0.00   0.00   0.00   0.05   0.00   0.00  -0.00   0.04  -0.00  -0.00
     18:    1.07   0.24  83.48   0.00   0.00   0.00   0.00  13.93   0.00   0.00   1.05  -0.05   0.16   0.00
     19:    0.00   0.00   0.00  88.69   5.18   2.09   2.49   0.00   0.82   0.54   0.00   0.00   0.00   0.03
     20:    0.00   0.00   0.00   5.18  88.69   2.49   2.10   0.00   0.54   0.81   0.00   0.00  -0.00   0.03
     21:    0.00   0.00   0.00   0.32   0.85  53.80  11.26   0.00  23.60   9.88   0.00   0.00   0.00   0.15
     22:    0.00   0.00   0.00   0.85   0.32  11.26  53.80   0.00   9.88  23.60   0.00   0.00   0.00   0.05
     23:    0.31   0.04   1.45   0.00   0.00   0.00   0.00  29.80   0.00   0.00  67.77   0.54   0.10   0.00
     24:   -0.20   0.14   0.00   0.00   0.00  -0.00  -0.00  -0.42  -0.00  -0.00  -0.06 111.29   0.59   0.00
     25:   -0.01  -0.02   0.04  -0.00   0.00   0.00   0.00   0.08   0.00   0.00  -0.08  -0.12  97.64   0.00
     26:   -0.00  -0.00   0.00   0.00   0.03   0.04   0.09  -0.00   0.02   0.08  -0.00  -0.00   0.00  22.33
     27:   -0.00  -0.00   0.00   0.03   0.00   0.09   0.04  -0.00   0.08   0.02   0.00   0.00   0.00  75.90
     88:   67.93  29.89   1.29   0.00   0.00   0.00   0.00   0.03   0.00   0.00   0.41  -0.45  -0.11  -0.00
     89:    0.00   0.03   6.59   0.41   2.02  11.00   4.25  27.61  19.17  13.61  15.34  -0.56  -0.21  -0.00
     90:    0.00   0.03   6.52   0.68   1.72  12.53   2.45  28.60  23.13   9.20  15.17  -0.55  -0.20  -0.00
     91:    0.00   0.00   0.05   3.72   1.07   6.55  23.39   0.31  22.51  41.99   0.12  -0.00  -0.00  -0.00
     92:    0.02   0.03  -0.12   0.00  -0.00   0.00   0.00   0.02   0.00   0.00   0.08  -5.44   2.74   0.00
     93:    0.02  -0.00  -0.04  -0.00  -0.00   0.00   0.00   0.35   0.00   0.00   0.05  -3.26  -1.00   0.00


 Summation over all MOs, multiplied by occupation: Total SFO Gross Populations in this Irrep
 ===========================================================================================

     2.00    2.00    2.00    2.00    2.00    2.00    2.00    2.00    2.00    2.00    2.00    2.00
     2.00    2.00    2.00    2.00    2.00    1.98    2.00    2.00    1.99    1.99    0.63   -0.01
     0.00    0.01    0.01   -0.00   -0.00    0.00    0.00   -0.00   -0.00   -0.00   -0.00   -0.01
     0.00    0.00    0.00    0.00    0.00    0.00   -0.00    0.00    0.00    0.00    0.00    0.00
     0.00    0.00    0.00   -0.00   -0.00    0.00    0.00    0.00    0.00    0.00    0.00    0.00
     0.00    0.00    0.00    0.00    0.00    0.00    0.00    0.00    0.00    0.00   -0.00    0.00
     0.00    0.00    0.00    0.00   -0.00    0.00    0.00    0.00    0.00   -0.00    2.00    2.00
     2.00    2.00    2.00    1.99    1.70    1.70    1.99   -0.00    0.00    0.01    0.01    0.01
     0.00    0.00    0.00    0.00    0.00    0.00    0.00    0.00    0.00    0.00    0.00   -0.00
     0.00   -0.00    0.00   -0.00   -0.00   -0.00   -0.00    0.00



 List of all MOs, ordered by energy, with the most significant SFO gross populations
 ===================================================================================

 Each percentage contribution in the table below corresponds to the indicated SFO.
 In general, a SFO may be a linear combination of several Fragment Orbitals on the same,
 or on symmetry-related Fragments. Only the first 'member' of such a combination is
 specified here. A full definition of all SFOs is given in an earlier part of the output.
 The numbering of the SFOs in this table does NOT include the Core Orbitals, and starts
 from one for each symmetry representation, as in the SFO definition list earlier.

       E(eV)  Occ       MO           %     SFO (first member)   E(eV)  Occ   Fragment
 -------------------------------------------------------------------------------------

     -14.118  2.00    22 A         67.93%     6 A             -10.473  2.00     2 Cl
                                   30.09%    17 A             -20.239  2.00     1 FBr
                                    1.07%    18 A             -11.527  2.00     1 FBr
     -13.710  2.00    23 A         69.69%    17 A             -20.239  2.00     1 FBr
                                   29.89%     6 A             -10.473  2.00     2 Cl
      -6.205  2.00    24 A         83.48%    18 A             -11.527  2.00     1 FBr
                                    6.59%     7 A               0.909  2.00     2 Cl
                                    6.52%     8 A               0.909  2.00     2 Cl
                                    1.45%    23 A              -7.046  0.00     1 FBr
                                    1.29%     6 A             -10.473  2.00     2 Cl
      -4.294  2.00    25 A         88.69%    19 A              -9.723  2.00     1 FBr
                                    5.18%    20 A              -9.723  2.00     1 FBr
                                    3.72%     9 A               0.909  2.00     2 Cl
      -4.294  2.00    26 A         88.69%    20 A              -9.723  2.00     1 FBr
                                    5.18%    19 A              -9.723  2.00     1 FBr
                                    2.02%     7 A               0.909  2.00     2 Cl
                                    1.72%     8 A               0.909  2.00     2 Cl
                                    1.07%     9 A               0.909  2.00     2 Cl
      -2.308  2.00    27 A         53.80%    21 A              -8.076  2.00     1 FBr
                                   12.53%     8 A               0.909  2.00     2 Cl
                                   11.26%    22 A              -8.076  2.00     1 FBr
                                   11.00%     7 A               0.909  2.00     2 Cl
                                    6.55%     9 A               0.909  2.00     2 Cl
                                    2.49%    20 A              -9.723  2.00     1 FBr
                                    2.09%    19 A              -9.723  2.00     1 FBr
      -2.308  2.00    28 A         53.80%    22 A              -8.076  2.00     1 FBr
                                   23.39%     9 A               0.909  2.00     2 Cl
                                   11.26%    21 A              -8.076  2.00     1 FBr
                                    4.25%     7 A               0.909  2.00     2 Cl
                                    2.49%    19 A              -9.723  2.00     1 FBr
                                    2.45%     8 A               0.909  2.00     2 Cl
                                    2.10%    20 A              -9.723  2.00     1 FBr
      -2.181  2.00    29 A         29.80%    23 A              -7.046  0.00     1 FBr
                                   28.60%     8 A               0.909  2.00     2 Cl
                                   27.61%     7 A               0.909  2.00     2 Cl
                                   13.93%    18 A             -11.527  2.00     1 FBr
      -1.930  2.00    30 A         23.60%    21 A              -8.076  2.00     1 FBr
                                   23.13%     8 A               0.909  2.00     2 Cl
                                   22.51%     9 A               0.909  2.00     2 Cl
                                   19.17%     7 A               0.909  2.00     2 Cl
                                    9.88%    22 A              -8.076  2.00     1 FBr
      -1.930  2.00    31 A         41.99%     9 A               0.909  2.00     2 Cl
                                   23.60%    22 A              -8.076  2.00     1 FBr
                                   13.61%     7 A               0.909  2.00     2 Cl
                                    9.88%    21 A              -8.076  2.00     1 FBr
                                    9.20%     8 A               0.909  2.00     2 Cl
      -0.203  0.00    32 A         67.77%    23 A              -7.046  0.00     1 FBr
                                   15.34%     7 A               0.909  2.00     2 Cl
                                   15.17%     8 A               0.909  2.00     2 Cl
                                    1.05%    18 A             -11.527  2.00     1 FBr



 =======================================================================
 Electrostatic potential at the Nuclei due to electrons and other nuclei
 =======================================================================
  
         Atom                  Potential
         ----                  ---------
     1)   F                  26.79294666
     2)   Br                176.13126949
     3)   Cl                 64.63495173
 
 
 ========================
 No memory problems found
 ========================
 
 Maximum number of active allocate calls:         636
 
 *******************************************************************************

                             A D F   E X I T
 NORMAL TERMINATION



 =================
 Timing Statistics
 =================
  
 Total Used :                     CPU=        6.11      System=        0.18     Elapsed=        6.56

 Calls  Section                     ( Mean, Percentage )
 ---------------------------------------------------------------------------------------------------
     3  ><      ................      0.00    0.00             0.00    0.00             0.00    0.02
     1  INIT    ................      0.46    7.51             0.02   13.12             0.49    7.41
     1  GEOMET  ................      0.04    0.67             0.00    2.19             0.25    3.79
     1  FRAGM   ................      0.01    0.21             0.00    2.73             0.02    0.38
     1  INPUTA  ................      0.00    0.00             0.00    0.00             0.00    0.01
     1  ATDEN   ................      0.00    0.08             0.00    0.00             0.01    0.08
     1  MAINSY  ................      0.01    0.15             0.00    2.73             0.02    0.25
     1  SYMFIT  ................      0.00    0.03             0.00    0.00             0.00    0.03
     1  CORORT  ................      0.00    0.00             0.00    0.00             0.00    0.01
     1  SYMORB  ................      0.00    0.07             0.00    0.00             0.00    0.05
     1  CLSMAT  ................      0.01    0.15             0.00    0.00             0.01    0.13
     1  ORTHON  ................      0.01    0.15             0.00    0.55             0.01    0.16
     1  GENPT   ................      0.12    1.96             0.00    2.73             0.13    1.91
     1  PTBAS   ................      0.04    0.64             0.00    0.00             0.04    0.59
    18  FOCKY   ................      0.12   35.97             0.00    9.29             0.12   33.90
    18  FOCKTR  ................      0.00    0.59             0.00    1.09             0.00    0.59
    18  SDIIS   ................      0.00    1.05             0.00    1.64             0.00    1.08
     1  COREPS  ................      0.10    1.70             0.00    0.55             0.11    1.62
     1  TOTEN   ................      0.33    5.37             0.00    2.73             0.33    5.10
     1  POPAN   ................      0.00    0.07             0.00    0.00             0.01    0.14
     1  DEBYE   ................      0.01    0.11             0.00    0.00             0.01    0.10
     1  INPUTE  ................      0.00    0.00             0.00    0.00             0.00    0.02
     1  SYMORE  ................      0.00    0.02             0.00    0.00             0.00    0.02
     1  METS    ................      0.00    0.02             0.00    0.00             0.00    0.01
     1  CETS    ................      0.02    0.34             0.00    1.09             0.03    0.41
     1  POPUL   ................      2.61   42.74             0.10   56.83             2.74   41.71
     1  EXIT PROCEDURE .........      0.02    0.41             0.01    2.73             0.03    0.48


 Currently Open Files (EXIT00)
 ====================

 Unit    Access Format  Status   Type       Ident (file)
 -------------------------------------------------------
   3      SEQ    FORM   TRANSP  NORMAL      LOGFILE
                                          ( logfile )


 Buffered I/O statistics
 =======================
 Memory available:                     67108864
 Number of records fitting in memory:     16131
 Input :   1.2% of                        57365  *4k bytes
 Output:  12.9% of                         4349  *4k bytes
 Records from serial files evicted:           0
                    others evicted:           0
 Hash table lookups:     163855 with          0 conflicts (  0.00%)

 ***************************************************************************************************
 (LOGFILE)
 <May09-2019> <17:11:56>  ADF 2017  RunTime: May09-2019 17:11:56  Nodes: 1  Procs: 12
 <May09-2019> <17:11:57>  *** (NO TITLE) ***
 <May09-2019> <17:11:57>  RunType   : SINGLE POINT
 <May09-2019> <17:11:57>  Net Charge: -1 (Nuclei minus Electrons)
 <May09-2019> <17:11:57>  Symmetry  : NOSYM
 <May09-2019> <17:11:57>  >>>> FRAGM
  Coordinates
    Atom         X           Y           Z   (Angstrom)
    1.F        -4.919639    3.094640   -0.043018
    2.Br       -3.844808    1.233411    0.082980
    3.Cl       -6.010935    4.970868   -0.177163
 <May09-2019> <17:11:57>  >>>> CORORT
 <May09-2019> <17:11:57>  >>>> CLSMAT
 <May09-2019> <17:11:57>  >>>> ORTHON
 <May09-2019> <17:11:57>  >>>> GENPT
 <May09-2019> <17:11:57>  Block Length= 128
 <May09-2019> <17:11:57>  >>>> PTBAS
 <May09-2019> <17:11:57>  >>>> CYCLE
 <May09-2019> <17:11:58>              |Error|         MaxErr       Wt(A-DIIS)
 <May09-2019> <17:11:58>      1      0.93162174      0.51406601
 <May09-2019> <17:11:58>      2      1.07623140      0.29443145    100.0
 <May09-2019> <17:11:58>      3      0.58561216      0.20114672    100.0
 <May09-2019> <17:11:58>      4      0.61392551      0.27170980    100.0
 <May09-2019> <17:11:58>      5      1.50500063      0.43727935    100.0
 <May09-2019> <17:11:58>      6      0.47262470      0.13900274    100.0
 <May09-2019> <17:11:58>      7      0.22477325      0.09842500     98.4
 <May09-2019> <17:11:59>      8      0.70889513      0.28826869    100.0
 <May09-2019> <17:11:59>      9      0.25619183      0.12237189    100.0
 <May09-2019> <17:11:59>     10      0.24893245      0.10422571    100.0
 <May09-2019> <17:11:59>     11      0.01975079      0.00724448      6.3
 <May09-2019> <17:11:59>     12      0.00254517      0.00099475      0.0
 <May09-2019> <17:11:59>     13      0.00048169      0.00016237      0.0
 <May09-2019> <17:11:59>     14      0.00026529      0.00011580      0.0
 <May09-2019> <17:11:59>     15      0.00002524      0.00001074      0.0
 <May09-2019> <17:11:59>     16      0.00001019      0.00000402      0.0
 <May09-2019> <17:12:00>     17      0.00000091      0.00000019      0.0
 <May09-2019> <17:12:00>  SCF converged
 <May09-2019> <17:12:00>     18      0.00000027      0.00000010      0.0
 <May09-2019> <17:12:00>  >>>> TOTEN
 <May09-2019> <17:12:00>  >>>> POPAN
 <May09-2019> <17:12:00>  >>>> DEBYE
 <May09-2019> <17:12:00>  >>>> AMETS
 <May09-2019> <17:12:03>   Bond Energy          -0.06311189 a.u.
 <May09-2019> <17:12:03>   Bond Energy          -1.71736194 eV
 <May09-2019> <17:12:03>   Bond Energy         -39.60       kcal/mol
 <May09-2019> <17:12:03>  >>>> POPUL
 <May09-2019> <17:12:03>  NORMAL TERMINATION
 <May09-2019> <17:12:03>  END
