

 Parallel Execution: Process Information
 ==============================================================================
 Rank   Node Name                              NodeID   MyNodeRank  NodeMaster
    0   BAZIS-cn021                               0          0          0
    1   BAZIS-cn021                               0          1         -1
    2   BAZIS-cn021                               0          2         -1
    3   BAZIS-cn021                               0          3         -1
    4   BAZIS-cn021                               0          4         -1
    5   BAZIS-cn021                               0          5         -1
    6   BAZIS-cn021                               0          6         -1
    7   BAZIS-cn021                               0          7         -1
    8   BAZIS-cn021                               0          8         -1
    9   BAZIS-cn021                               0          9         -1
   10   BAZIS-cn021                               0         10         -1
   11   BAZIS-cn021                               0         11         -1
 ==============================================================================


May use up to 30771MB of RAM as shared memory on node 0


XC
    GGA BP86
END

SCF
    iterations 250
END

EPRINT
    SFO Eig Ovl
END

ZLMFIT
    Quality normal
END

BECKEGRID
    Quality good
End

SYMMETRY nosym
CHARGE -1

ATOMS
1.Cl       -4.827276    2.943831   -0.043204 f=ClF
2.F        -3.782327    1.279943   -0.016185 f=ClF
3.Br       -6.165778    5.075146   -0.077812 f=Br
END

Fragments
ClF /home/tcst25/advanced_comp_chemistry/exercise2/halogen/FClBr/frag1_ClF.t21
Br /home/tcst25/advanced_comp_chemistry/exercise2/halogen/FClBr/frag2_Br.t21
End
end input

 *******************************************************************************
 *                                                                             *
 *  -------------------------------------                                      *
 *   Amsterdam Density Functional  (ADF)         2017                          *
 *  -------------------------------------                                      *
 *                                               r58813 2017-04-12             *
 *                                                                             *
 *                                                                             *
 *                              =================                              *
 *                              |               |                              *
 *                              |     A D F     |                              *
 *                              |               |                              *
 *                              =================                              *
 *                                                                             *
 *                                                                             *
 *   Online information and documentation:  https://www.scm.com/support/       *
 *   E-mail:  support@scm.com   info@scm.com                                   *
 *                                                                             *
 *   Scientific publications using ADF results must be properly referenced     *
 *   See the User Manuals (or the web site) for recommended citations          *
 *   The terms and conditions of the End User License Agreement apply to       *
 *   the use of ADF, https://www.scm.com/license-terms/                        *
 *                                                                             *
 **********************  x86_64_linux_intel / intelmpi  ************************
 
 Licensed to: VU/FEW (+ SARA) / ALGEMEEN / Amsterdam / THE NETHERLANDS
 SCM User ID: u7668
  
 ADF 2017  RunTime: May09-2019 17:12:12  Nodes: 1  Procs: 12

 Temporary files are created in /local/datastore0/tcst25/189786/kid_0.oygbJN


Communication costs MPI_COMM_WORLD:      3.928 usec per message,   0.0185 usec per 8-byte item
Communication costs for intra-node:      3.915 usec per message,   0.0180 usec per 8-byte item

 *** (NO TITLE) ***



 ===========================
 A T T A C H E D   F I L E S
 ===========================
  



 ===============================
 M O D E L   P A R A M E T E R S
 ===============================
  
 DENSITY FUNCTIONAL POTENTIAL (scf)
    LDA:                               VWN                                      
    Gradient Corrections:              Becke88 Perdew86                        == Not Default ==

 SPIN  (restricted / unrestr.)
    Molecule:                          Restricted                               
    Fragments:                         Restricted                               

 OTHER ASPECTS
    Relativistic Corrections:          ---                                      

    Nuclear Charge Density Model:      Point Charge Nuclei                      
    Core Treatment:                    Frozen Orbital(s)                        

    Hyperfine or Zeeman Interaction:   ---                                      


 Fragment File(s)
 ----------------
 ClF:
         file : /home/tcst25/advanced_comp_chemistry/exercise2/halogen/FClBr/frag1_ClF.t21
         jobid: ADF 2017  RunTime: May09-2019 16:32:31  Nodes: 1  Procs: 12
         title: *** (NO TITLE) ***
 Br:
         file : /home/tcst25/advanced_comp_chemistry/exercise2/halogen/FClBr/frag2_Br.t21
         jobid: ADF 2017  RunTime: May09-2019 16:32:31  Nodes: 1  Procs: 12
         title: *** (NO TITLE) ***



                                        ************************************
                                        *  R U N   T Y P E : SINGLE POINT  *
                                        ************************************
  



 ===============
 G E O M E T R Y  ***  Linear Molecule  ***
 ===============
  

 ATOMS
 =====                            X Y Z                    CHARGE
                                (Angstrom)             Nucl     +Core       At.Mass
                       --------------------------    ----------------       -------
    1  Cl             -4.8273    2.9438   -0.0432     17.00     17.00       34.9689
    2  F              -3.7823    1.2799   -0.0162      9.00      9.00       18.9984
    3  Br             -6.1658    5.0751   -0.0778     35.00     35.00       78.9183


 FRAGMENTS
 =========                                     Atoms in this Fragment     Cart. coord.s (Angstrom)
                                               -------------------------------------------------------
    1  ClF                                               1  Cl          -4.8273    2.9438   -0.0432
                                                         2  F           -3.7823    1.2799   -0.0162
    2  Br                                                3  Br          -6.1658    5.0751   -0.0778


 Interatomic Distance Matrix (Angstrom)
 --------------------------------------

   1)     0.000
   2)     1.965   0.000
   3)     2.517   4.482   0.000

 Min. Distance =    1.9650
 Max. Distance =    4.4820



 =====================================
 S Y M M E T R Y ,   E L E C T R O N S
 =====================================
  
 Symmetry: NOSYM

 Irreducible Representations, including subspecies
 -------------------------------------------------
 A


 Configuration of Valence Electrons
 ==================================
 ( determined in the SCF procedure )

 Total:   62

 Net Charge: -1 (Nuclei minus Electrons)

 Aufbau principle for MO occupations will be applied through SCF cycle no.     125
 Thereafter, the program will assign electrons to MOs that are spatially
 similar to the occupied MOs in a "reference" cycle ("KeepOrbitals").
 The reference cycle is always the PREVIOUS cycle: it will evolve with
 the SCF procedure.
1
 ***************************************************************************************************



                                      ****************************************
                                      *  B U I L D : (Fragments, Functions)  *
                                      ****************************************
  

 The individual fragments are copies of the corresponding 'Master' fragments defined on the fragment files.
 However, they may have been rotated (and translated) with respect to the Master. The local coordinate axes
 of each fragment (which define for instance the spatial orientation in the current molecule of a fragment
 P:x orbital) are not necessarily those of the molecule.
 The local frame (if different from the molecular one) is printed to enable an interpretation of the expan-
 sion of an MO in Fragment Orbitals.



                                             *************************
                                             *  Fragment Type : ClF  *
                                             *************************
  

 Fragment no.    1   (in the list of all fragments)
 -----------------
 The local coordinate frame is identical to the molecular frame.

 Check Atomic Coordinates:

                  Master (on file)          After Computed Tranformation               As specified on Input
           ----------------------------     ----------------------------     ---------------------------------
     1)    -4.82728   2.94383  -0.04320     -4.82728   2.94383  -0.04320       1  -4.82728   2.94383  -0.04320
     2)    -3.78233   1.27994  -0.01619     -3.78233   1.27994  -0.01619       2  -3.78233   1.27994  -0.01619



                                              ************************
                                              *  Fragment Type : Br  *
                                              ************************
  

 Fragment no.    2   (in the list of all fragments)
 -----------------
 The local coordinate frame is identical to the molecular frame.

 Check Atomic Coordinates:

                  Master (on file)          After Computed Tranformation               As specified on Input
           ----------------------------     ----------------------------     ---------------------------------
     1)    -6.16578   5.07515  -0.07781     -6.16578   5.07515  -0.07781       3  -6.16578   5.07515  -0.07781



 =======
 S F O s  ***  (Symmetrized Fragment Orbitals)  ***
 =======
  
 SFOs are linear combinations of (valence) Fragment Orbitals (FOs), such that the SFOs transform as the
 irreducible representations of the (molecular) symmetry group. Each SFO is therefore characterized by
 an irrep of the molecule and by a few (or only one) generating FOs.
 The SFOs constitute a symmetry-adapted basis for the Fock matrix. The MO eigenvector coefficients in
 this basis provide a direct interpretation of the MOs in terms of Frontier Orbital Theory.

 The SFOs are combined with auxiliary Core Functions (CFs) to ensure orthogonalization on the (frozen)
 Core Orbitals (COs). The Core-orthogonalized SFOs (CSFOs) constitute the true Fock basis.

 The FOs, and hence also the (C)SFOs are combinations of the elementary basis functions (BAS). The basis
 functions that participate in the description of the SFOs depend on the irrep. The indices of the
 involved functions are printed below for each irrep.
 (The complete list of primitive basis functions is printed in another section)

 Total nr. of (C)SFOs (summation over all irreps) :   116

 NOTE: a (C)SFO that is defined as a combination of more than one FO is usually NOT normalized.



                                       === A ===
 Nr. of SFOs :  116
 Cartesian basis functions that participate in this irrep (total number =   131) :
      1     2     3     4    11    12    13     5     8    14
     17    20     6     9    15    18    21     7    10    16
     19    22    23    24    25    26    27    28    29    30
     31    32    33    34    35    36    37    38    39    40
     41    42    43    44    47    50    45    48    51    46
     49    52    53    54    55    56    57    58    59    60
     61    62    63    64    65    66    67    68    69    70
     71    78    79   104   105   106    72    75    80    83
    107   110   113    73    76    81    84   108   111   114
     74    77    82    85   109   112   115    86    92    98
    116    87    93    99   117    88    94   100   118    89
     95   101   119    90    96   102   120    91    97   103
    121   122   123   124   125   126   127   128   129   130
    131

    SFO  (index         Fragment          Generating    Expansion in Fragment Orbitals
  indx  incl.CFs)   Occup   Orb.Energy   FragmentType  Coeff.   Orbital     on Fragment
 --------------------------------------------------------------------------------------
     1       1      2.000    -100.819 au  ClF           1.00      1 A               1
                        (   -2743.414 eV)
     2       2      2.000     -24.332 au  ClF           1.00      2 A               1
                        (    -662.099 eV)
     3       3      2.000      -9.266 au  ClF           1.00      3 A               1
                        (    -252.142 eV)
     4       4      2.000      -7.103 au  ClF           1.00      4 A               1
                        (    -193.288 eV)
     5       5      2.000      -7.081 au  ClF           1.00      5 A               1
                        (    -192.689 eV)
     6       6      2.000      -7.081 au  ClF           1.00      6 A               1
                        (    -192.689 eV)
     7       7      2.000      -1.069 au  ClF           1.00      7 A               1
                        (     -29.090 eV)
     8       8      2.000      -0.781 au  ClF           1.00      8 A               1
                        (     -21.240 eV)
     9       9      2.000      -0.455 au  ClF           1.00      9 A               1
                        (     -12.382 eV)
    10      10      2.000      -0.381 au  ClF           1.00     10 A               1
                        (     -10.379 eV)
    11      11      2.000      -0.381 au  ClF           1.00     11 A               1
                        (     -10.379 eV)
    12      12      2.000      -0.314 au  ClF           1.00     12 A               1
                        (      -8.549 eV)
    13      13      2.000      -0.314 au  ClF           1.00     13 A               1
                        (      -8.549 eV)
    14      14       --        -0.261 au  ClF           1.00     14 A               1
                        (      -7.093 eV)
    15      15       --         0.036 au  ClF           1.00     15 A               1
                        (       0.993 eV)
    16      16       --         0.187 au  ClF           1.00     16 A               1
                        (       5.087 eV)
    17      17       --         0.219 au  ClF           1.00     17 A               1
                        (       5.953 eV)
    18      18       --         0.219 au  ClF           1.00     18 A               1
                        (       5.953 eV)
    19      19       --         0.272 au  ClF           1.00     19 A               1
                        (       7.411 eV)
    20      20       --         0.319 au  ClF           1.00     20 A               1
                        (       8.690 eV)
    21      21       --         0.319 au  ClF           1.00     21 A               1
                        (       8.690 eV)
    22      22       --         0.368 au  ClF           1.00     22 A               1
                        (      10.018 eV)
    23      23       --         0.368 au  ClF           1.00     23 A               1
                        (      10.018 eV)
    24      24       --         0.478 au  ClF           1.00     24 A               1
                        (      13.016 eV)
    25      25       --         0.558 au  ClF           1.00     25 A               1
                        (      15.180 eV)
    26      26       --         0.558 au  ClF           1.00     26 A               1
                        (      15.180 eV)
    27      27       --         0.702 au  ClF           1.00     27 A               1
                        (      19.106 eV)
    28      28       --         1.027 au  ClF           1.00     28 A               1
                        (      27.955 eV)
    29      29       --         1.027 au  ClF           1.00     29 A               1
                        (      27.955 eV)
    30      30       --         1.059 au  ClF           1.00     30 A               1
                        (      28.824 eV)
    31      31       --         1.059 au  ClF           1.00     31 A               1
                        (      28.824 eV)
    32      32       --         1.179 au  ClF           1.00     32 A               1
                        (      32.092 eV)
    33      33       --         1.179 au  ClF           1.00     33 A               1
                        (      32.092 eV)
    34      34       --         1.296 au  ClF           1.00     34 A               1
                        (      35.279 eV)
    35      35       --         1.336 au  ClF           1.00     35 A               1
                        (      36.342 eV)
    36      36       --         1.336 au  ClF           1.00     36 A               1
                        (      36.342 eV)
    37      37       --         1.396 au  ClF           1.00     37 A               1
                        (      37.983 eV)
    38      38       --         1.570 au  ClF           1.00     38 A               1
                        (      42.722 eV)
    39      39       --         1.570 au  ClF           1.00     39 A               1
                        (      42.722 eV)
    40      40       --         1.858 au  ClF           1.00     40 A               1
                        (      50.572 eV)
    41      41       --         2.097 au  ClF           1.00     41 A               1
                        (      57.052 eV)
    42      42       --         2.097 au  ClF           1.00     42 A               1
                        (      57.052 eV)
    43      43       --         2.110 au  ClF           1.00     43 A               1
                        (      57.421 eV)
    44      44       --         2.634 au  ClF           1.00     44 A               1
                        (      71.671 eV)
    45      45       --         3.463 au  ClF           1.00     45 A               1
                        (      94.225 eV)
    46      46       --         3.463 au  ClF           1.00     46 A               1
                        (      94.225 eV)
    47      47       --         3.510 au  ClF           1.00     47 A               1
                        (      95.516 eV)
    48      48       --         3.510 au  ClF           1.00     48 A               1
                        (      95.517 eV)
    49      49       --         3.665 au  ClF           1.00     49 A               1
                        (      99.741 eV)
    50      50       --         3.665 au  ClF           1.00     50 A               1
                        (      99.741 eV)
    51      51       --         3.831 au  ClF           1.00     51 A               1
                        (     104.239 eV)
    52      52       --         4.718 au  ClF           1.00     52 A               1
                        (     128.385 eV)
    53      53       --         4.718 au  ClF           1.00     53 A               1
                        (     128.386 eV)
    54      54       --         5.180 au  ClF           1.00     54 A               1
                        (     140.958 eV)
    55      55       --        13.135 au  ClF           1.00     55 A               1
                        (     357.410 eV)
    56      56       --        18.842 au  ClF           1.00     56 A               1
                        (     512.712 eV)
    57      57       --        18.842 au  ClF           1.00     57 A               1
                        (     512.716 eV)
    58      58       --        19.288 au  ClF           1.00     58 A               1
                        (     524.843 eV)
    59      59       --        49.357 au  ClF           1.00     59 A               1
                        (    1343.070 eV)
    60      60       --       216.249 au  ClF           1.00     60 A               1
                        (    5884.423 eV)
    61      61      2.000    -480.688 au  Br            1.00      1 A               2
                        (  -13080.195 eV)
    62      62      2.000     -61.445 au  Br            1.00      2 A               2
                        (   -1672.008 eV)
    63      63      2.000     -55.375 au  Br            1.00      3 A               2
                        (   -1506.824 eV)
    64      64      2.000     -55.375 au  Br            1.00      4 A               2
                        (   -1506.824 eV)
    65      65      2.000     -55.375 au  Br            1.00      5 A               2
                        (   -1506.824 eV)
    66      66      2.000      -8.066 au  Br            1.00      6 A               2
                        (    -219.480 eV)
    67      67      2.000      -5.966 au  Br            1.00      7 A               2
                        (    -162.330 eV)
    68      68      2.000      -5.966 au  Br            1.00      8 A               2
                        (    -162.330 eV)
    69      69      2.000      -5.966 au  Br            1.00      9 A               2
                        (    -162.330 eV)
    70      70      2.000      -2.173 au  Br            1.00     10 A               2
                        (     -59.143 eV)
    71      71      2.000      -2.173 au  Br            1.00     11 A               2
                        (     -59.143 eV)
    72      72      2.000      -2.173 au  Br            1.00     12 A               2
                        (     -59.143 eV)
    73      73      2.000      -2.173 au  Br            1.00     13 A               2
                        (     -59.143 eV)
    74      74      2.000      -2.173 au  Br            1.00     14 A               2
                        (     -59.143 eV)
    75      75      2.000      -0.386 au  Br            1.00     15 A               2
                        (     -10.500 eV)
    76      76      2.000       0.016 au  Br            1.00     16 A               2
                        (       0.447 eV)
    77      77      2.000       0.016 au  Br            1.00     17 A               2
                        (       0.447 eV)
    78      78      2.000       0.016 au  Br            1.00     18 A               2
                        (       0.447 eV)
    79      79       --         0.352 au  Br            1.00     19 A               2
                        (       9.589 eV)
    80      80       --         0.352 au  Br            1.00     20 A               2
                        (       9.589 eV)
    81      81       --         0.352 au  Br            1.00     21 A               2
                        (       9.589 eV)
    82      82       --         0.501 au  Br            1.00     22 A               2
                        (      13.634 eV)
    83      83       --         0.551 au  Br            1.00     23 A               2
                        (      15.005 eV)
    84      84       --         0.551 au  Br            1.00     24 A               2
                        (      15.005 eV)
    85      85       --         0.551 au  Br            1.00     25 A               2
                        (      15.005 eV)
    86      86       --         0.551 au  Br            1.00     26 A               2
                        (      15.005 eV)
    87      87       --         0.551 au  Br            1.00     27 A               2
                        (      15.005 eV)
    88      88       --         1.141 au  Br            1.00     28 A               2
                        (      31.038 eV)
    89      89       --         1.141 au  Br            1.00     29 A               2
                        (      31.038 eV)
    90      90       --         1.141 au  Br            1.00     30 A               2
                        (      31.038 eV)
    91      91       --         1.141 au  Br            1.00     31 A               2
                        (      31.038 eV)
    92      92       --         1.141 au  Br            1.00     32 A               2
                        (      31.038 eV)
    93      93       --         1.141 au  Br            1.00     33 A               2
                        (      31.038 eV)
    94      94       --         1.141 au  Br            1.00     34 A               2
                        (      31.038 eV)
    95      95       --         1.505 au  Br            1.00     35 A               2
                        (      40.949 eV)
    96      96       --         1.505 au  Br            1.00     36 A               2
                        (      40.949 eV)
    97      97       --         1.505 au  Br            1.00     37 A               2
                        (      40.949 eV)
    98      98       --         2.776 au  Br            1.00     38 A               2
                        (      75.551 eV)
    99      99       --         3.002 au  Br            1.00     39 A               2
                        (      81.690 eV)
   100     100       --         3.002 au  Br            1.00     40 A               2
                        (      81.690 eV)
   101     101       --         3.002 au  Br            1.00     41 A               2
                        (      81.690 eV)
   102     102       --         3.002 au  Br            1.00     42 A               2
                        (      81.690 eV)
   103     103       --         3.002 au  Br            1.00     43 A               2
                        (      81.690 eV)
   104     104       --         9.163 au  Br            1.00     44 A               2
                        (     249.341 eV)
   105     105       --         9.163 au  Br            1.00     45 A               2
                        (     249.341 eV)
   106     106       --         9.163 au  Br            1.00     46 A               2
                        (     249.341 eV)
   107     107       --        14.623 au  Br            1.00     47 A               2
                        (     397.911 eV)
   108     108       --        20.941 au  Br            1.00     48 A               2
                        (     569.821 eV)
   109     109       --        20.941 au  Br            1.00     49 A               2
                        (     569.821 eV)
   110     110       --        20.941 au  Br            1.00     50 A               2
                        (     569.821 eV)
   111     111       --        20.941 au  Br            1.00     51 A               2
                        (     569.821 eV)
   112     112       --        20.941 au  Br            1.00     52 A               2
                        (     569.821 eV)
   113     113       --       101.209 au  Br            1.00     53 A               2
                        (    2754.029 eV)
   114     114       --       101.209 au  Br            1.00     54 A               2
                        (    2754.029 eV)
   115     115       --       101.209 au  Br            1.00     55 A               2
                        (    2754.029 eV)
   116     116       --       746.807 au  Br            1.00     56 A               2
                        (   20321.657 eV)



 ================================
 (Slater-type)  F U N C T I O N S  ***  (Basis and Fit)  ***
 ================================
  

 Atom Type    1  (Cl)
 ==============

 Valence Basis Sets:  14
 -----------------------
   1 S   20.300000
   1 S   15.250000
   2 S    6.250000
   2 S    4.450000
   2 P    8.850000
   2 P    5.050000
   3 S    3.450000
   3 S    2.300000
   3 S    1.600000
   3 P    3.350000
   3 P    2.050000
   3 P    1.200000
   3 D    2.000000
   4 F    2.000000

 Atom Type    2  (F)
 ==============

 Valence Basis Sets:  10
 -----------------------
   1 S   10.880000
   1 S    7.700000
   2 S    3.240000
   2 S    1.940000
   2 S    0.740000
   2 P    4.540000
   2 P    2.300000
   2 P    1.240000
   3 D    2.000000
   4 F    3.000000

 Atom Type    3  (Br)
 ==============

 Valence Basis Sets:  20
 -----------------------
   1 S   41.300000
   1 S   32.800000
   2 S   13.900000
   2 P   19.450000
   2 P   13.100000
   3 S    7.200000
   3 S    4.950000
   3 P    7.900000
   3 P    5.050000
   3 D   10.900000
   3 D    6.050000
   3 D    3.500000
   4 S    4.500000
   4 S    2.800000
   4 S    1.800000
   4 P    3.250000
   4 P    1.950000
   4 P    1.200000
   4 D    1.800000
   4 F    1.800000


 BAS: List of all Elementary Cartesian Basis Functions
 =====================================================

 The numbering in the list below (to the right of the function characteristics) is referred
 to in print-outs of MO eigenvectors and Mulliken populations in the BAS representation
 (as contrasted to the SFO representation).

 Notes:
 1. The functions are characterized by a polynomial prefactor (powers of x,y,z and r) and
    an exponential decay factor alpha.
 2. Since the basis sets are specific for an atom TYPE, the individual functions occur on
    all atoms of that type.
 3. The word 'Core' in the left margin signals that it is a Core Function (CF) : not a
    degree of freedom in the valence set, but only used to ensure orthogonalization of
    the other valence basis functions on the frozen Core Orbitals.


 (power of) X  Y  Z  R     Alpha  on Atom
            ==========     =====     ==========

 Cl                                   1
                                  ---------------------------------------------------------------------------
            0  0  0  0    20.300      1
            0  0  0  0    15.250      2
            0  0  0  1     6.250      3
            0  0  0  1     4.450      4
            1  0  0  0     8.850      5
            0  1  0  0     8.850      6
            0  0  1  0     8.850      7
            1  0  0  0     5.050      8
            0  1  0  0     5.050      9
            0  0  1  0     5.050     10
            0  0  0  2     3.450     11
            0  0  0  2     2.300     12
            0  0  0  2     1.600     13
            1  0  0  1     3.350     14
            0  1  0  1     3.350     15
            0  0  1  1     3.350     16
            1  0  0  1     2.050     17
            0  1  0  1     2.050     18
            0  0  1  1     2.050     19
            1  0  0  1     1.200     20
            0  1  0  1     1.200     21
            0  0  1  1     1.200     22
            2  0  0  0     2.000     23
            1  1  0  0     2.000     24
            1  0  1  0     2.000     25
            0  2  0  0     2.000     26
            0  1  1  0     2.000     27
            0  0  2  0     2.000     28
            3  0  0  0     2.000     29
            2  1  0  0     2.000     30
            2  0  1  0     2.000     31
            1  2  0  0     2.000     32
            1  1  1  0     2.000     33
            1  0  2  0     2.000     34
            0  3  0  0     2.000     35
            0  2  1  0     2.000     36
            0  1  2  0     2.000     37
            0  0  3  0     2.000     38

 F                                    2
                                  ---------------------------------------------------------------------------
            0  0  0  0    10.880     39
            0  0  0  0     7.700     40
            0  0  0  1     3.240     41
            0  0  0  1     1.940     42
            0  0  0  1     0.740     43
            1  0  0  0     4.540     44
            0  1  0  0     4.540     45
            0  0  1  0     4.540     46
            1  0  0  0     2.300     47
            0  1  0  0     2.300     48
            0  0  1  0     2.300     49
            1  0  0  0     1.240     50
            0  1  0  0     1.240     51
            0  0  1  0     1.240     52
            2  0  0  0     2.000     53
            1  1  0  0     2.000     54
            1  0  1  0     2.000     55
            0  2  0  0     2.000     56
            0  1  1  0     2.000     57
            0  0  2  0     2.000     58
            3  0  0  0     3.000     59
            2  1  0  0     3.000     60
            2  0  1  0     3.000     61
            1  2  0  0     3.000     62
            1  1  1  0     3.000     63
            1  0  2  0     3.000     64
            0  3  0  0     3.000     65
            0  2  1  0     3.000     66
            0  1  2  0     3.000     67
            0  0  3  0     3.000     68

 Br                                   3
                                  ---------------------------------------------------------------------------
            0  0  0  0    41.300     69
            0  0  0  0    32.800     70
            0  0  0  1    13.900     71
            1  0  0  0    19.450     72
            0  1  0  0    19.450     73
            0  0  1  0    19.450     74
            1  0  0  0    13.100     75
            0  1  0  0    13.100     76
            0  0  1  0    13.100     77
            0  0  0  2     7.200     78
            0  0  0  2     4.950     79
            1  0  0  1     7.900     80
            0  1  0  1     7.900     81
            0  0  1  1     7.900     82
            1  0  0  1     5.050     83
            0  1  0  1     5.050     84
            0  0  1  1     5.050     85
            2  0  0  0    10.900     86
            1  1  0  0    10.900     87
            1  0  1  0    10.900     88
            0  2  0  0    10.900     89
            0  1  1  0    10.900     90
            0  0  2  0    10.900     91
            2  0  0  0     6.050     92
            1  1  0  0     6.050     93
            1  0  1  0     6.050     94
            0  2  0  0     6.050     95
            0  1  1  0     6.050     96
            0  0  2  0     6.050     97
            2  0  0  0     3.500     98
            1  1  0  0     3.500     99
            1  0  1  0     3.500    100
            0  2  0  0     3.500    101
            0  1  1  0     3.500    102
            0  0  2  0     3.500    103
            0  0  0  3     4.500    104
            0  0  0  3     2.800    105
            0  0  0  3     1.800    106
            1  0  0  2     3.250    107
            0  1  0  2     3.250    108
            0  0  1  2     3.250    109
            1  0  0  2     1.950    110
            0  1  0  2     1.950    111
            0  0  1  2     1.950    112
            1  0  0  2     1.200    113
            0  1  0  2     1.200    114
            0  0  1  2     1.200    115
            2  0  0  1     1.800    116
            1  1  0  1     1.800    117
            1  0  1  1     1.800    118
            0  2  0  1     1.800    119
            0  1  1  1     1.800    120
            0  0  2  1     1.800    121
            3  0  0  0     1.800    122
            2  1  0  0     1.800    123
            2  0  1  0     1.800    124
            1  2  0  0     1.800    125
            1  1  1  0     1.800    126
            1  0  2  0     1.800    127
            0  3  0  0     1.800    128
            0  2  1  0     1.800    129
            0  1  2  0     1.800    130
            0  0  3  0     1.800    131

 Total number of charge fitting functions (nprimf)       361
 Total number of Cartesian basis functions (naos)        131
 Total number of Cartesian core functions  (ncos)          0

1
 ***************************************************************************************************



                                              ***********************
                                              *  T E C H N I C A L  *
                                              ***********************
  



 =============================================================
 P A R A L L E L I Z A T I O N  and  V E C T O R I Z A T I O N
 =============================================================
  
 Nr of parallel processes:                               12
 Maximum vector length in NumInt loops:                 128

 IO buffersize (Mb):                                     64.000000



 =====================
 S C F   U P D A T E S
 =====================
  
 Max. nr. of cycles:                               250
 Convergence criterion:                              0.0000010000
   secondary criterion:                              0.0010000000

 Mix parameter (when DIIS does not apply):           0.2000000000
 Mixed ADIIS+DIIS will be used
    Max number of expansion vectors:                10
    Pure ADIIS when Max([F,P]) is above              0.1000000000
    Pure DIIS when Max([F,P]) is below               0.0010000000
 Automatic ElectronSmearing (in case of problematic SCF convergence) disabled



 =================
 P R E C I S I O N  ***  (General: NumInt, NeglectFunctionTails, ...)  ***
 =================
  

 NumInt:           Target precision:                 6.0000000000
 -------           Initial precision:                6.0000000000
                   Min. precision (optimization):    6.0000000000

 Neglect Functions:          Basis functions:        0.1000000000E-07
 ------------------          Fit functions:          0.1000000000E-07



 ===========================
 L I N E A R   S C A L I N G
 ===========================
  

 Cut-off radii density fit:                        0.1000000000E-09
 Overlap cut-off criterion AO matrix elements:     0.1000000000E-07
 Cut-offs for Coulomb potential and fitted density:0.1000000000E-09
 Cut-off criterion for Coulomb multipole terms:    0.1000000000E-09
 Progressive Convergence parameter:                 0.000000000    
1
 ***************************************************************************************************



                                            ***************************
                                            *  C O M P U T A T I O N  *
                                            ***************************
  

 Number of elements of the density matrix on this node (used, total):      2016      8646



 ===========================================
 Numerical Integration : Fuzzy Cells (Becke)
 ===========================================
  
 Becke grid quality: GOOD           
  
 Lebedev angular grid order:             min:  11 max:  31
 Nr. of radial points:                   min:  65 max:  90

 Total nr. of points:      50774
 Nr. of blocks:              397
 Block length:               128
 Nr. of dummy points:         42


 Test of Precision of the Numerical Integration Grid
 ===================================================

 Integral of the Total Core Density:                   0.00000000000000



 ========================
 Density Fitting (zlmFit)
 ========================
  
 ZlmFit Fit Quality: NORMAL         
  
 Max L-expansion:                        min:   7 max:   7
 Nr. of radial interpolation points:     min:  51 max:  72



 =====
 S C F  ***  ScaSCF  ***
 =====
  
 Initial density matrix is calculated as sum of fragments

 CYCLE    1
 SCF Error: norm([F,P])=      1.271868275420, max([F,P])=      0.809932886490
 orbitals (Q,E):
 ---------------
 A :22...41          ( 2.00    -0.6072)  ( 2.00    -0.4376)  ( 2.00    -0.3186)  ( 2.00    -0.2631)
                     ( 2.00    -0.2631)  ( 2.00    -0.1449)  ( 2.00    -0.1449)  ( 2.00    -0.1258)
                     ( 2.00    -0.0211)  ( 2.00    -0.0211)  ( 0.00     0.0326)  ( 0.00     0.1575)
                     ( 0.00     0.3096)  ( 0.00     0.3306)  ( 0.00     0.3306)  ( 0.00     0.3931)
                     ( 0.00     0.4068)  ( 0.00     0.4068)  ( 0.00     0.4307)  ( 0.00     0.4307)

 CYCLE    2
  SDIIS (wt  0.000):  0.4251  0.5749
 A-DIIS (wt  1.000):  0.9256  0.0744
  DIIS coefficients:  0.9256  0.0744
 SCF Error: norm([F,P])=      1.087414681682, max([F,P])=      0.481422049183
 orbitals (Q,E):
 ---------------
 A :22...32          ( 2.00    -0.5874)  ( 2.00    -0.4592)  ( 2.00    -0.2836)  ( 2.00    -0.2202)
                     ( 2.00    -0.2202)  ( 2.00    -0.1273)  ( 2.00    -0.1273)  ( 2.00    -0.1144)
                     ( 2.00    -0.0406)  ( 2.00    -0.0406)  ( 0.00     0.0258)

 CYCLE    3
  SDIIS (wt  0.000):  0.0779 -1.6524  2.5745
 A-DIIS (wt  1.000):  0.8881  0.0000  0.1119
  DIIS coefficients:  0.8881  0.0000  0.1119
 SCF Error: norm([F,P])=      0.747671466248, max([F,P])=      0.361135896709
 orbitals (Q,E):
 ---------------
 A :22...32          ( 2.00    -0.5868)  ( 2.00    -0.4617)  ( 2.00    -0.2781)  ( 2.00    -0.2130)
                     ( 2.00    -0.2130)  ( 2.00    -0.1261)  ( 2.00    -0.1261)  ( 2.00    -0.1131)
                     ( 2.00    -0.0430)  ( 2.00    -0.0430)  ( 0.00     0.0249)

 CYCLE    4
  SDIIS (wt  0.000): -1.4295 -0.5705  3.0000
 A-DIIS (wt  1.000):  0.0000  0.0000  1.0000
  DIIS coefficients:  0.0000  0.0000  1.0000
 SCF Error: norm([F,P])=      0.700600610638, max([F,P])=      0.343562286502
 orbitals (Q,E):
 ---------------
 A :22...32          ( 2.00    -0.4992)  ( 2.00    -0.4359)  ( 2.00    -0.2542)  ( 2.00    -0.2398)
                     ( 2.00    -0.2398)  ( 2.00    -0.0169)  ( 2.00    -0.0169)  ( 2.00     0.0003)
                     ( 2.00     0.1778)  ( 2.00     0.1864)  ( 0.00     0.1864)

 CYCLE    5
  SDIIS (wt  0.000): -1.1618 -0.8788  3.0000  0.0406
 A-DIIS (wt  1.000):  0.0000  0.0000  0.9378  0.0622
  DIIS coefficients:  0.0000  0.0000  0.9378  0.0622
 SCF Error: norm([F,P])=      3.729084010794, max([F,P])=      1.330320628985
 orbitals (Q,E):
 ---------------
 A :22...32          ( 2.00    -0.6309)  ( 2.00    -0.4607)  ( 2.00    -0.2186)  ( 2.00    -0.1912)
                     ( 2.00    -0.1911)  ( 2.00    -0.0518)  ( 2.00    -0.0395)  ( 2.00    -0.0389)
                     ( 2.00     0.0489)  ( 2.00     0.0506)  ( 0.00     0.1267)

 CYCLE    6
  SDIIS (wt  0.000): -0.6392 -1.5400  3.0000 -0.0108  0.1900
 A-DIIS (wt  1.000):  0.0000  0.0000  0.6848  0.0000  0.3152
  DIIS coefficients:  0.0000  0.0000  0.6848  0.0000  0.3152
 SCF Error: norm([F,P])=      1.489781447185, max([F,P])=      0.561471428945
 orbitals (Q,E):
 ---------------
 A :22...32          ( 2.00    -0.5437)  ( 2.00    -0.4838)  ( 2.00    -0.1947)  ( 2.00    -0.1193)
                     ( 2.00    -0.1193)  ( 2.00    -0.1010)  ( 2.00    -0.1009)  ( 2.00    -0.0991)
                     ( 2.00    -0.0391)  ( 2.00    -0.0390)  ( 0.00     0.0613)

 CYCLE    7
  SDIIS (wt  0.000): -0.1122 -2.0000  2.6110  0.0005  0.0877  0.4130
 A-DIIS (wt  1.000):  0.0000  0.0000  0.2688  0.0000  0.0000  0.7312
  DIIS coefficients:  0.0000  0.0000  0.2688  0.0000  0.0000  0.7312
 SCF Error: norm([F,P])=      0.335155285644, max([F,P])=      0.135272298505
 orbitals (Q,E):
 ---------------
 A :22...32          ( 2.00    -0.6012)  ( 2.00    -0.4838)  ( 2.00    -0.2282)  ( 2.00    -0.1644)
                     ( 2.00    -0.1643)  ( 2.00    -0.0800)  ( 2.00    -0.0779)  ( 2.00    -0.0779)
                     ( 2.00    -0.0576)  ( 2.00    -0.0576)  ( 0.00     0.0292)

 CYCLE    8
  SDIIS (wt  0.000): -0.2589  0.8183 -0.3088  0.0005 -0.0454  0.4968  0.2975
 A-DIIS (wt  1.000):  0.0000  0.0000  0.1976  0.0000  0.0000  0.5459  0.2565
  DIIS coefficients:  0.0000  0.0000  0.1976  0.0000  0.0000  0.5459  0.2565
 SCF Error: norm([F,P])=      0.590945306840, max([F,P])=      0.252354171878
 orbitals (Q,E):
 ---------------
 A :22...32          ( 2.00    -0.5671)  ( 2.00    -0.4811)  ( 2.00    -0.2278)  ( 2.00    -0.1527)
                     ( 2.00    -0.1527)  ( 2.00    -0.1011)  ( 2.00    -0.1011)  ( 2.00    -0.0970)
                     ( 2.00    -0.0602)  ( 2.00    -0.0601)  ( 0.00     0.0315)

 CYCLE    9
  SDIIS (wt  0.206): -0.1861  1.3733 -1.2044 -0.0004 -0.0108  0.2747  0.1904  0.5634
 A-DIIS (wt  0.794):  0.0000  0.0000  0.0000  0.0000  0.0000  0.2150  0.0624  0.7226
  DIIS coefficients: -0.0384  0.2832 -0.2484 -0.0001 -0.0022  0.2273  0.0888  0.6898
 SCF Error: norm([F,P])=      0.189318882721, max([F,P])=      0.079582881762
 orbitals (Q,E):
 ---------------
 A :22...32          ( 2.00    -0.5623)  ( 2.00    -0.4952)  ( 2.00    -0.2108)  ( 2.00    -0.1338)
                     ( 2.00    -0.1338)  ( 2.00    -0.0908)  ( 2.00    -0.0907)  ( 2.00    -0.0907)
                     ( 2.00    -0.0571)  ( 2.00    -0.0571)  ( 0.00     0.0408)

 CYCLE   10
  SDIIS (wt  0.000): -0.0000 -0.4702  0.5010  0.0000 -0.0187  0.1190 -0.0151  0.5064  0.3776
 A-DIIS (wt  1.000):  0.0000  0.0000  0.0000  0.0000  0.0000  0.0000  0.0000  0.6005  0.3995
  DIIS coefficients:  0.0000  0.0000  0.0000  0.0000  0.0000  0.0000  0.0000  0.6005  0.3995
 SCF Error: norm([F,P])=      0.295338774243, max([F,P])=      0.112416234743
 orbitals (Q,E):
 ---------------
 A :22...32          ( 2.00    -0.5517)  ( 2.00    -0.4897)  ( 2.00    -0.2142)  ( 2.00    -0.1367)
                     ( 2.00    -0.1367)  ( 2.00    -0.0975)  ( 2.00    -0.0968)  ( 2.00    -0.0968)
                     ( 2.00    -0.0585)  ( 2.00    -0.0585)  ( 0.00     0.0408)

 CYCLE   11
  SDIIS (wt  0.648):  0.0340 -0.7445  0.7539  0.0000 -0.0091  0.0094  0.0364  0.2987  0.2073  0.4138
 A-DIIS (wt  0.352):  0.0000  0.0000  0.0000  0.0000  0.0000  0.0000  0.0000  0.3619  0.1873  0.4508
  DIIS coefficients:  0.0220 -0.4821  0.4882  0.0000 -0.0059  0.0061  0.0236  0.3210  0.2002  0.4268
 SCF Error: norm([F,P])=      0.109217654761, max([F,P])=      0.035890446396
 orbitals (Q,E):
 ---------------
 A :22...32          ( 2.00    -0.5630)  ( 2.00    -0.4875)  ( 2.00    -0.2185)  ( 2.00    -0.1415)
                     ( 2.00    -0.1415)  ( 2.00    -0.0947)  ( 2.00    -0.0947)  ( 2.00    -0.0941)
                     ( 2.00    -0.0613)  ( 2.00    -0.0613)  ( 0.00     0.0357)

 CYCLE   12
  SDIIS (wt  0.879): -0.0659  0.0641 -0.0000 -0.0030 -0.0088 -0.0073  0.1806  0.0934  0.2152  0.5317
 A-DIIS (wt  0.121):  0.0000  0.0000  0.0000  0.0000  0.0000  0.0000  0.0000  0.0000  0.0283  0.9717
  DIIS coefficients: -0.0579  0.0564 -0.0000 -0.0027 -0.0078 -0.0064  0.1588  0.0821  0.1927  0.5848
 SCF Error: norm([F,P])=      0.032689655083, max([F,P])=      0.012948362398
 orbitals (Q,E):
 ---------------
 A :22...32          ( 2.00    -0.5609)  ( 2.00    -0.4877)  ( 2.00    -0.2188)  ( 2.00    -0.1417)
                     ( 2.00    -0.1417)  ( 2.00    -0.0958)  ( 2.00    -0.0958)  ( 2.00    -0.0954)
                     ( 2.00    -0.0612)  ( 2.00    -0.0612)  ( 0.00     0.0359)

 CYCLE   13
  SDIIS (wt  0.963): -0.0016 -0.0000 -0.0002 -0.0022 -0.0037  0.0153  0.0187  0.0240  0.2649  0.6850
 A-DIIS (wt  0.037):  0.0000  0.0000  0.0000  0.0000  0.0000  0.0000  0.0000  0.0000  0.1814  0.8186
  DIIS coefficients: -0.0016 -0.0000 -0.0002 -0.0022 -0.0036  0.0147  0.0180  0.0231  0.2618  0.6900
 SCF Error: norm([F,P])=      0.011968967087, max([F,P])=      0.004675534206
 orbitals (Q,E):
 ---------------
 A :22...32          ( 2.00    -0.5612)  ( 2.00    -0.4877)  ( 2.00    -0.2185)  ( 2.00    -0.1414)
                     ( 2.00    -0.1414)  ( 2.00    -0.0955)  ( 2.00    -0.0955)  ( 2.00    -0.0950)
                     ( 2.00    -0.0612)  ( 2.00    -0.0612)  ( 0.00     0.0360)

 CYCLE   14
  SDIIS (wt  1.000):  0.0000 -0.0001  0.0005 -0.0004 -0.0024  0.0030 -0.0023  0.0631  0.2708  0.6677
  DIIS coefficients:  0.0000 -0.0001  0.0005 -0.0004 -0.0024  0.0030 -0.0023  0.0631  0.2708  0.6677
 SCF Error: norm([F,P])=      0.000540820016, max([F,P])=      0.000153477775
 orbitals (Q,E):
 ---------------
 A :22...32          ( 2.00    -0.5612)  ( 2.00    -0.4877)  ( 2.00    -0.2185)  ( 2.00    -0.1414)
                     ( 2.00    -0.1414)  ( 2.00    -0.0955)  ( 2.00    -0.0955)  ( 2.00    -0.0951)
                     ( 2.00    -0.0612)  ( 2.00    -0.0612)  ( 0.00     0.0360)

 CYCLE   15
  SDIIS (wt  1.000): -0.0000  0.0001 -0.0001 -0.0005  0.0004 -0.0002  0.0130  0.0577  0.1886  0.7410
  DIIS coefficients: -0.0000  0.0001 -0.0001 -0.0005  0.0004 -0.0002  0.0130  0.0577  0.1886  0.7410
 SCF Error: norm([F,P])=      0.000079139132, max([F,P])=      0.000033091461
 orbitals (Q,E):
 ---------------
 A :22...32          ( 2.00    -0.5612)  ( 2.00    -0.4877)  ( 2.00    -0.2186)  ( 2.00    -0.1414)
                     ( 2.00    -0.1414)  ( 2.00    -0.0955)  ( 2.00    -0.0955)  ( 2.00    -0.0951)
                     ( 2.00    -0.0612)  ( 2.00    -0.0612)  ( 0.00     0.0360)

 CYCLE   16
  SDIIS (wt  1.000):  0.0000 -0.0000 -0.0001  0.0000 -0.0001  0.0029  0.0133  0.0540  0.3032  0.6268
  DIIS coefficients:  0.0000 -0.0000 -0.0001  0.0000 -0.0001  0.0029  0.0133  0.0540  0.3032  0.6268
 SCF Error: norm([F,P])=      0.000012974602, max([F,P])=      0.000004487044
 orbitals (Q,E):
 ---------------
 A :22...32          ( 2.00    -0.5612)  ( 2.00    -0.4877)  ( 2.00    -0.2186)  ( 2.00    -0.1414)
                     ( 2.00    -0.1414)  ( 2.00    -0.0955)  ( 2.00    -0.0955)  ( 2.00    -0.0951)
                     ( 2.00    -0.0612)  ( 2.00    -0.0612)  ( 0.00     0.0360)

 CYCLE   17
  SDIIS (wt  1.000): -0.0000 -0.0000  0.0000  0.0000  0.0009  0.0040  0.0156  0.0879  0.1881  0.7035
  DIIS coefficients: -0.0000 -0.0000  0.0000  0.0000  0.0009  0.0040  0.0156  0.0879  0.1881  0.7035
 SCF Error: norm([F,P])=      0.000001346879, max([F,P])=      0.000000525298
 orbitals (Q,E):
 ---------------
 A :22...32          ( 2.00    -0.5612)  ( 2.00    -0.4877)  ( 2.00    -0.2186)  ( 2.00    -0.1414)
                     ( 2.00    -0.1414)  ( 2.00    -0.0955)  ( 2.00    -0.0955)  ( 2.00    -0.0951)
                     ( 2.00    -0.0612)  ( 2.00    -0.0612)  ( 0.00     0.0360)

 SCF CONVERGED

 CYCLE   18
1
 ***************************************************************************************************



                                                *******************
                                                *  R E S U L T S  *
                                                *******************
  
 *** Setting up for NEW gradients in Focky
 *** Using FIT density in Focky

 Orbital Energies, per Irrep and Spin:
 ======================================
                        Occup              E (au)              E (eV)       Diff (eV) with prev. cycle
                        -----      --------------------        ------       --------------------------
 A
              22        2.000     -0.56121723578076E+00       -15.271               7.00E-07
              23        2.000     -0.48772483986246E+00       -13.272               1.26E-06
              24        2.000     -0.21855040103094E+00        -5.947               8.30E-08
              25        2.000     -0.14142340205806E+00        -3.848              -2.14E-07
              26        2.000     -0.14142199589124E+00        -3.848              -2.16E-07
              27        2.000     -0.95495949776161E-01        -2.599               5.05E-07
              28        2.000     -0.95494853528457E-01        -2.599               5.05E-07
              29        2.000     -0.95078791961720E-01        -2.587               6.43E-07
              30        2.000     -0.61190919328919E-01        -1.665               6.38E-07
              31        2.000     -0.61189540499578E-01        -1.665               6.39E-07
              32        0.000      0.35989537175834E-01         0.979
              33        0.000      0.20780044437602E+00         5.655
              34        0.000      0.27652659719157E+00         7.525
              35        0.000      0.30432187027156E+00         8.281
              36        0.000      0.30432358816287E+00         8.281
              37        0.000      0.38034719182183E+00        10.350
              38        0.000      0.40011078759697E+00        10.888
              39        0.000      0.40011373259610E+00        10.888
              40        0.000      0.45360539676999E+00        12.343
              41        0.000      0.45360792476390E+00        12.343
  
 HOMO :       31 A                -0.61189540499578E-01
 LUMO :       32 A                 0.35989537175834E-01
  


 All Electron Calculation, thus no Orbital Energies of the Core Orbitals are calculated


 Fit test: (difference of exact and fit density, squared integrated, result summed over spins)
         Sum-of-Fragments:                             0.00085615548584
         Orthogonalized Fragments:                     0.00085909174118
         SCF:                                          0.00085994179830



 ==========================
 Electron Density at Nuclei
 ==========================
  
 The electron density is calculated at points on a small sphere around the center of a nucleus.
 The printed electron density is the average electron density on these points.
 The radius of the sphere is the printed approximate finite nuclear radius.

         Atom        Nuclear Radius (Angstrom)             Electron Density (a.u.)
         ----        -------------------------             -----------------------
     1)   Cl                0.0000426624                             3211.94330
     2)   F                 0.0000361580                              447.55467
     3)   Br                0.0000536685                            29313.21597



 =======================================
 M U L L I K E N   P O P U L A T I O N S
 =======================================
  
 The survey below gives for each atom:
 a) the total charge (Z minus electrons)
 b) the net spin polarization (nr of electrons spin-A minus spin-B)
 c) for each spin the atomic electron valence density (integrated) per L-value.

 Atom              Charge    Spin density          S         P         D         F
 ----              ------    ------------       ------    ------    ------    ------
 1 Cl              0.0289                       5.9757   10.8878    0.0931    0.0146
 2 F              -0.5041                       3.9917    5.5001    0.0113    0.0010
 3 Br             -0.5248                       7.9932   17.4828   10.0392    0.0096

 Populations of individual BAS functions
 ----------------------------------------
 1 Cl           0.5054  1.4528  1.7141  0.2462  0.7265  0.7194  0.7310  1.2728  1.2819  1.2668
                0.6430  1.0818  0.3324  0.2611  0.1808  0.3133  1.0379  0.8408  1.1663  0.3848
                0.1981  0.5062  0.0056  0.0395  0.0047  0.0305  0.0119  0.0008 -0.0014  0.0009
                0.0011  0.0097  0.0022 -0.0039  0.0110  0.0082 -0.0062 -0.0071
 2 F            0.5758  1.4010  1.0906  0.9083  0.0161  0.3834  0.3391  0.4122  0.9231  0.8541
                0.9681  0.5493  0.4692  0.6015  0.0002  0.0042  0.0007  0.0091  0.0019 -0.0048
               -0.0005 -0.0013  0.0005  0.0029  0.0001 -0.0020  0.0045  0.0035 -0.0029 -0.0039
 3 Br           0.3611  1.5681  2.0732  0.7130  0.7128  0.7132  1.2649  1.2654  1.2646  1.4374
                0.5951  1.1370  1.1323  1.1401  0.8918  0.8964  0.8888  0.2677  0.4014  0.4016
                0.2677  0.4015  0.2676  0.7769  1.1647  1.1654  0.7755  1.1650  0.7778  0.2886
                0.4339  0.4329  0.2912  0.4334  0.2870  0.2715  1.2064  0.4804  0.5807  0.5075
                0.6283  0.9564  0.8719  1.0114  0.3093  0.2475  0.3495  0.0034  0.0118  0.0034
                0.0184  0.0083 -0.0062 -0.0030  0.0005  0.0012  0.0112  0.0015 -0.0053  0.0126
                0.0083 -0.0093 -0.0081

 Gross Charges per Atom (Z minus electrons)
 ==========================================
             0.0289   -0.5041   -0.5248
 Net Total: -1.00000000


 Atom-Atom Population Matrix (off-diagonal elements not doubled)
 ===============================================================

     1 :    16.9717
     2 :     0.0204    9.4776
     3 :    -0.0210    0.0061   35.5397


 Frag-Frag Population Matrix (off-diagonal elements not doubled)
 ===============================================================

     1 :    26.4901
     2 :    -0.0149   35.5397



 =================================================
 H I R S H F E L D   C H A R G E   A N A L Y S I S
 =================================================
  
 For each fragment: the (numerical) integral of rho(scf) * rho(fragment)/rho(sum-of-fragments)
 (nuclear charges are included, electrons are counted negative)

 The fragments and their ordering are defined in the early G E O M E T R Y output section.
 If you use single-atom fragments, this usually implies that all atoms of the same
 chemical type are grouped together. This may not be the order in which you listed them
 in the input file!

    1  ClF                      -0.3835
    2  Br                       -0.6165

 Sum of these charges (accuracy NumInt/Tails) =          -0.99999757



 =============================
 V O R O N O I   C H A R G E S
 =============================
  
 For each atom: the (numerical) integral of the total electronic charge density in its Voronoi cell,
 i.e. the region of space that is closer to that atom than to any other atom.
 (cf. Wigner-Seitz cells in crystals)

 Within the Voronoi cell the subintegrals over the atomic sphere and the remaining part are evaluated
 separately to give the numbers of electrons (negative charge) in these regions.
 The net total charge in the cell (including the nuclear charge) is also given.

 Values are provided for
    a) the Initial (sum-of-fragments) density
    b) the Orthogonalized-Fragments density
    c) the SCF density
    d) the Voronoi Deformation Density (VDD): the difference SCF-Initial for the complete atomic cell
 ---------------------------------------------------------------------------------------------------
 Total NetCharge:              -1.000                     -1.000                     -1.000    0.000
 (accuracy NumInt/Tails)

 Remark: the 'NetTotal' Voronoi charges often do not match the Mulliken and/or Hirshfeld charges very
 well. This is caused by the fact that chemically different atoms are not treated in accordance with
 their relative sizes. (Voronoi cells are defined by boundary planes halfway between the atoms.)
 However, the CHANGES in charge, comparing 'Initial' to 'SCF' for instance, do give a fair indication
 of the flow of charge caused by the relaxation from sum-of-fragments to self-consistency.

 Warning: the absolute accuracy of the VDD charges obtained using the Fuzzy Cells (Becke) integration
 scheme is much poorer than the one obtained with an 'equivalent' Voronoi integration grid. 



 =================================================================
 M U L T I P O L E   D E R I V E D   C H A R G E   A N A L Y S I S
 =================================================================

 This charge analysis uses the atomic multipoles (obtained from the fitted density) up to some level X,
 and reconstructs these multipoles exactly (up to level X) by distributing charges over all atoms.
 This is achieved by using Lagrange multipliers and a weight function to keep the multipoles local.

 Dummy atoms can be included (by setting INCDUM in MDC-block to 1) to obtain a fractional charge.
 This is generally useful and necessary only for small symmetrical molecules, when there are not
 enough degrees of freedom to reconstruct the multipoles.

 Since the atomic multipoles are reconstructed up to level X,
 the molecular multipoles are represented also up to level X.
 The recommended level is to reconstruct up to quadrupole : -> MDC-q charges.

 See: M. Swart, P.Th. van Duijnen, J.G. Snijders, J.Comput.Chem., (2001), p. 79-88.

 ------------------------------------------------------------- 
 Atomic electronic multipole moments from SCF equations (a.u.)
 ------------------------------------------------------------- 

   atom        charge        dip-x     dip-y     dip-z      quad-xx   quad-xy   quad-xz   quad-yy   quad-yz   quad-zz
 --------------------------------------------------------------------------------------------------------------------
    1 Cl     0.068153     0.430513 -0.685547  0.011121    -0.162181 -0.964383  0.015688  1.232286 -0.024955 -1.070105
    2 F     -0.706173     0.155509 -0.247737  0.004008    -0.008659 -0.053119  0.000878  0.067423 -0.001409 -0.058764
    3 Br    -0.361981     0.258094 -0.410886  0.006667    -0.149170 -0.886885  0.014394  1.133365 -0.022928 -0.984195

 --------------------------------------- 
 Multipole derived atomic charges (a.u.)
 --------------------------------------- 

 The MDC-m charges are just the Monopole terms in the multipole expansion, while for the MDC-d charges
 also the Dipoles are reconstructed. The usually preferred charges are the MDC-q charges.
 These reconstruct the Monopoles, Dipoles and Quadrupoles (both atomic AND molecular).

        Atom    Level:     MDC-m        MDC-d        MDC-q
 ---------------------------------------------------------
     1     Cl           0.068153     0.013415    -0.005843
     2     F           -0.706173    -0.488014    -0.477199
     3     Br          -0.361981    -0.525401    -0.516958

 ------------------------------------------------ 
 Average absolute deviations in atomic multipoles
 ------------------------------------------------ 

 Stated here are the average differences between the atomic multipoles
 and the reconstructed atomic multipoles (from the distributed charges).
 If these values are not zero, this means there are not enough degrees of freedom,
 to be able to reconstruct the atomic multipoles. (This usually happens only
 for small and/or highly symmetric molecules). If this is the case, one could add
 dummy atoms as extra point charges (and setting INCDUM in MDC-block to 1).

 Level:                                 MDC-d        MDC-q
 ---------------------------------------------------------
 Charge   (a.u.)                       0.0000       0.0000
 Dipole   (Debye)                      0.0001       0.0001
 Quad.    (a.u.)                       0.4123       0.1632

 --------------------------------------- 
 Represented molecular multipole moments
 --------------------------------------- 

 Given here are the Molecular multipole moments from the atomic charges, and from the Fit Density.
 Note that the atomic charges represent the latter, NOT the ones from the Exact density.

            Q (a.u.)             Dipole moment (Debye)                                          Quadrupole moment (a.u.)
                                 x         y         z              xx        xy        xz        yy        yz        zz
------------------------------------------------------------------------------------------------------------------------
MDC-m        -1.0000       21.9692  -12.2017    0.1760        -61.8854   73.7998   -1.0857    4.4608    0.7977   57.4246
MDC-d        -1.0000       24.1149  -15.6182    0.2315        -69.7548   99.7018   -1.4953   -3.1886    1.1564   72.9434
MDC-q        -1.0000       24.1149  -15.6182    0.2315        -69.7806   99.4720   -1.4916   -2.9929    1.1505   72.7735
 
Fit.Dens.    -1.0000       24.1148  -15.6183    0.2314        -69.9417   98.9829   -1.4832   -1.7654    1.1376   71.7071



 =============
 Dipole Moment  ***  (Debye)  ***
 =============
  
 Vector   :        24.12448862    -15.63340082      0.23175696
 Magnitude:        28.74800660

 This molecular dipole moment is calculated with analytic integration
 ************************************************************************************
 Since the molecule is NOT NEUTRAL, the dipole moment depends on the choice of origin
 ************************************************************************************



 =========================================
 Quadrupole Moment (Buckingham convention)  ***  (a.u.)  ***
 =========================================
  
      quad-xx        quad-xy        quad-xz        quad-yy        quad-yz        quad-zz
    -69.97770075    98.15024185    -1.46992467    -1.80178470     1.11483847    71.77948545

 This molecular quadrupole moment is calculated with analytic integration
1



                                             *************************
                                             *  SFO MO coefficients  *
                                             *************************
  


                                       === A ===
 MOs expanded in CFs+SFOs
 ========================

 The SFOs have been characterized in an earlier part of output.
 To deduce the bonding / antibonding nature of SFO combinations in an MO, consider the products
 of the coefficients AND THE OVERLAP between the SFOs (may be NEGATIVE). The SFO overlap matrix
 is printed later, in the SFO Populations section.

 (The CF coefficients are not printed)

 MOs :      1        2        3        4        5        6        7        8        9       10
 occup:   2.00     2.00     2.00     2.00     2.00     2.00     2.00     2.00     2.00     2.00
 CF+SFO
     1   0.0000   1.0000   0.0000  -0.0000   0.0000  -0.0000  -0.0000  -0.0001  -0.0001   0.0000
     2   0.0000   0.0000   0.0000  -0.0000   0.0000  -0.0000   1.0000   0.0000  -0.0000  -0.0000
     3  -0.0000   0.0001  -0.0000   0.0000  -0.0000   0.0000   0.0000   1.0000   0.0011  -0.0045
     4   0.0000   0.0000   0.0000   0.0000   0.0000  -0.0000  -0.0000  -0.0046  -0.0004  -1.0000
     5  -0.0000  -0.0000   0.0000  -0.0000   0.0000  -0.0000  -0.0000  -0.0000   0.0000  -0.0001
     6  -0.0000  -0.0000  -0.0000   0.0000   0.0000   0.0000   0.0000   0.0000   0.0000   0.0000
     7   0.0000   0.0000   0.0000  -0.0000   0.0000  -0.0000  -0.0001   0.0001  -0.0007  -0.0001
     8  -0.0000  -0.0000  -0.0000   0.0000  -0.0000   0.0000   0.0001  -0.0007   0.0056   0.0005
     9  -0.0000  -0.0000  -0.0000   0.0000  -0.0000   0.0000   0.0000  -0.0001   0.0037   0.0002
    10  -0.0000  -0.0000  -0.0000   0.0000  -0.0000   0.0000  -0.0000  -0.0000   0.0000   0.0000
    11   0.0000  -0.0000   0.0000  -0.0000  -0.0000  -0.0000   0.0000   0.0000  -0.0000  -0.0000
    12  -0.0000  -0.0000   0.0000  -0.0000  -0.0000   0.0000   0.0000  -0.0000   0.0000  -0.0000
    13   0.0000   0.0000   0.0000  -0.0000  -0.0000  -0.0000  -0.0000   0.0000  -0.0000  -0.0000
    14  -0.0000   0.0000  -0.0000   0.0000  -0.0000   0.0000   0.0002   0.0000   0.0043   0.0003
    15  -0.0000  -0.0000  -0.0000   0.0000  -0.0000   0.0000   0.0001  -0.0001   0.0036   0.0003
    16  -0.0000  -0.0000  -0.0000   0.0000  -0.0000   0.0000   0.0001  -0.0003   0.0075   0.0008
    17   0.0000   0.0000  -0.0000   0.0000  -0.0000   0.0000  -0.0000   0.0000  -0.0000  -0.0000
    18  -0.0000  -0.0000  -0.0000   0.0000  -0.0000  -0.0000   0.0000  -0.0000   0.0000   0.0000
    19   0.0000  -0.0000   0.0000   0.0000  -0.0000  -0.0000   0.0000  -0.0001  -0.0002   0.0003
    20  -0.0000  -0.0000   0.0000   0.0000   0.0000  -0.0000  -0.0000  -0.0000   0.0000   0.0000
    21  -0.0000  -0.0000   0.0000   0.0000  -0.0000  -0.0000   0.0000  -0.0000   0.0000   0.0000
    22  -0.0000  -0.0000   0.0000  -0.0000   0.0000  -0.0000   0.0000  -0.0000   0.0000  -0.0000
    23  -0.0000  -0.0000   0.0000  -0.0000  -0.0000  -0.0000  -0.0000  -0.0000   0.0000  -0.0000
    24  -0.0000   0.0000   0.0000   0.0000  -0.0000   0.0000  -0.0000   0.0001   0.0003   0.0004
    25  -0.0000  -0.0000   0.0000  -0.0000   0.0000   0.0000   0.0000   0.0000   0.0000   0.0000
    26  -0.0000   0.0000   0.0000   0.0000   0.0000  -0.0000  -0.0000  -0.0000   0.0000  -0.0000
    27   0.0000  -0.0000  -0.0000   0.0000   0.0000  -0.0000  -0.0000  -0.0001  -0.0002  -0.0002
    28   0.0000  -0.0000   0.0000   0.0000   0.0000  -0.0000   0.0000   0.0000  -0.0000   0.0000
    29   0.0000   0.0000  -0.0000   0.0000   0.0000   0.0000  -0.0000   0.0000  -0.0000  -0.0000
    30  -0.0000  -0.0000   0.0000  -0.0000   0.0000  -0.0000   0.0000   0.0000   0.0000   0.0000
    31  -0.0000   0.0000   0.0000   0.0000  -0.0000  -0.0000   0.0000   0.0000   0.0000   0.0000
    32  -0.0000  -0.0000   0.0000   0.0000  -0.0000   0.0000   0.0000  -0.0000   0.0000   0.0000
    33  -0.0000  -0.0000   0.0000   0.0000  -0.0000  -0.0000   0.0000  -0.0000   0.0000   0.0000
    34  -0.0000  -0.0000   0.0000   0.0000  -0.0000  -0.0000   0.0001   0.0001   0.0003   0.0002
    35   0.0000   0.0000   0.0000  -0.0000  -0.0000  -0.0000   0.0000  -0.0000  -0.0000  -0.0000
    36  -0.0000  -0.0000  -0.0000  -0.0000  -0.0000   0.0000  -0.0000  -0.0000  -0.0000  -0.0000
    37  -0.0000  -0.0000   0.0000   0.0000  -0.0000   0.0000  -0.0000  -0.0001   0.0004   0.0002
    38  -0.0000   0.0000  -0.0000   0.0000  -0.0000   0.0000  -0.0000  -0.0000  -0.0000   0.0000
    39  -0.0000  -0.0000  -0.0000   0.0000  -0.0000  -0.0000  -0.0000  -0.0000   0.0000  -0.0000
    40  -0.0000   0.0000  -0.0000   0.0000   0.0000   0.0000  -0.0001  -0.0000   0.0003  -0.0005
    41  -0.0000   0.0000   0.0000   0.0000  -0.0000   0.0000  -0.0000   0.0000   0.0000   0.0000
    42   0.0000  -0.0000  -0.0000  -0.0000  -0.0000  -0.0000   0.0000  -0.0000  -0.0000  -0.0000
    43   0.0000  -0.0000  -0.0000  -0.0000   0.0000   0.0000   0.0000  -0.0008  -0.0002  -0.0002
    44   0.0000   0.0000  -0.0000  -0.0000   0.0000  -0.0000   0.0000   0.0002  -0.0003  -0.0004
    45   0.0000  -0.0000  -0.0000  -0.0000  -0.0000  -0.0000   0.0000  -0.0000  -0.0000   0.0000
    46  -0.0000   0.0000   0.0000   0.0000   0.0000  -0.0000  -0.0000   0.0000   0.0000   0.0000
    47   0.0000  -0.0000   0.0000  -0.0000   0.0000  -0.0000  -0.0000  -0.0000   0.0000   0.0000
    48  -0.0000  -0.0000   0.0000  -0.0000  -0.0000  -0.0000  -0.0000  -0.0000   0.0000   0.0000
    49  -0.0000   0.0000  -0.0000   0.0000  -0.0000   0.0000   0.0000   0.0000   0.0000  -0.0000
    50  -0.0000   0.0000   0.0000  -0.0000   0.0000   0.0000   0.0000   0.0000   0.0000   0.0000
    51  -0.0000   0.0000  -0.0000  -0.0000   0.0000   0.0000   0.0000   0.0000  -0.0000  -0.0001
    52   0.0000  -0.0000   0.0000  -0.0000  -0.0000  -0.0000  -0.0000   0.0000  -0.0000   0.0000
    53   0.0000   0.0000  -0.0000   0.0000   0.0000  -0.0000   0.0000   0.0000  -0.0000   0.0000
    54  -0.0000   0.0000  -0.0000  -0.0000  -0.0000   0.0000   0.0001   0.0001   0.0001  -0.0000
    55   0.0000  -0.0001   0.0000   0.0000  -0.0000  -0.0000   0.0000  -0.0003  -0.0001   0.0000
    56  -0.0000  -0.0000  -0.0000  -0.0000   0.0000   0.0000  -0.0000  -0.0000   0.0000   0.0000
    57  -0.0000  -0.0000  -0.0000  -0.0000  -0.0000   0.0000   0.0000   0.0000   0.0000   0.0000
    58  -0.0000  -0.0000  -0.0000  -0.0000   0.0000   0.0000   0.0000  -0.0001   0.0001  -0.0005
    59   0.0000  -0.0000  -0.0000  -0.0000   0.0000  -0.0000  -0.0002  -0.0000  -0.0000  -0.0000
    60   0.0000   0.0001   0.0000   0.0000  -0.0000  -0.0000   0.0000  -0.0000   0.0000   0.0000
    61  -1.0000   0.0000  -0.0000  -0.0000  -0.0000  -0.0000  -0.0000   0.0000  -0.0000  -0.0000
    62   0.0000   0.0000  -1.0000  -0.0004  -0.0000  -0.0000  -0.0000   0.0000  -0.0002  -0.0000
    63   0.0000  -0.0000   0.0000  -0.0159   0.9726  -0.2320   0.0000  -0.0000   0.0000   0.0000
    64  -0.0000   0.0000  -0.0003   0.7119   0.1740   0.6804  -0.0000   0.0000  -0.0000  -0.0000
    65  -0.0000   0.0000  -0.0003   0.7021  -0.1543  -0.6951  -0.0000   0.0000  -0.0000  -0.0000
    66  -0.0000   0.0000   0.0001   0.0000   0.0000   0.0000  -0.0000   0.0001   0.9988  -0.0001
    67   0.0000   0.0000  -0.0000   0.0000  -0.0000  -0.0000  -0.0000   0.0000   0.0003  -0.0000
    68   0.0000   0.0000  -0.0000   0.0000   0.0000   0.0000  -0.0000   0.0000   0.0016  -0.0001
    69   0.0000   0.0000  -0.0000   0.0000  -0.0000   0.0000  -0.0000   0.0000   0.0000  -0.0000
    70   0.0000   0.0000  -0.0000   0.0000  -0.0000  -0.0000  -0.0000   0.0000   0.0005  -0.0000
    71   0.0000   0.0000  -0.0000   0.0000   0.0000  -0.0000  -0.0000   0.0000   0.0001  -0.0000
    72   0.0000   0.0000  -0.0000   0.0000   0.0000   0.0000  -0.0000   0.0000   0.0003  -0.0000
    73  -0.0000  -0.0000   0.0000  -0.0000   0.0000   0.0000   0.0000  -0.0000  -0.0005   0.0000
    74   0.0000   0.0000  -0.0000   0.0000   0.0000  -0.0000  -0.0000   0.0000   0.0004  -0.0000
    75  -0.0000  -0.0000   0.0000   0.0000   0.0000   0.0000   0.0001  -0.0003   0.0059   0.0005
    76   0.0000   0.0000   0.0000  -0.0000   0.0000   0.0000  -0.0000   0.0001  -0.0018  -0.0002
    77   0.0000   0.0000   0.0000  -0.0000   0.0000  -0.0000  -0.0001   0.0002  -0.0058  -0.0007
    78   0.0000   0.0000   0.0000  -0.0000  -0.0000   0.0000  -0.0000   0.0000  -0.0002  -0.0000
    79  -0.0000  -0.0000  -0.0000  -0.0000  -0.0000  -0.0000   0.0000  -0.0002   0.0024   0.0001
    80   0.0000   0.0000   0.0000   0.0000  -0.0000  -0.0000  -0.0000   0.0003  -0.0033  -0.0001
    81  -0.0000  -0.0000  -0.0000  -0.0000   0.0000  -0.0000   0.0000  -0.0000   0.0000   0.0000
    82   0.0000   0.0000   0.0000  -0.0000   0.0000   0.0000  -0.0001   0.0002  -0.0050  -0.0004
    83   0.0000  -0.0000   0.0000  -0.0000   0.0000  -0.0000  -0.0000  -0.0000  -0.0001  -0.0000
    84  -0.0000   0.0000  -0.0000   0.0000  -0.0000  -0.0000   0.0000   0.0001   0.0021   0.0004
    85   0.0000  -0.0000   0.0000  -0.0000  -0.0000  -0.0000  -0.0000  -0.0001  -0.0016  -0.0003
    86  -0.0000   0.0000  -0.0000   0.0000  -0.0000   0.0000   0.0000   0.0000   0.0006   0.0001
    87   0.0000  -0.0000   0.0000  -0.0000  -0.0000   0.0000  -0.0000  -0.0001  -0.0010  -0.0002
    88  -0.0000   0.0000   0.0000   0.0000   0.0000  -0.0000   0.0000   0.0001   0.0001   0.0001
    89  -0.0000   0.0000   0.0000   0.0000  -0.0000  -0.0000   0.0000   0.0003   0.0007   0.0003
    90  -0.0000   0.0000   0.0000   0.0000   0.0000  -0.0000   0.0000   0.0000   0.0001   0.0000
    91   0.0000  -0.0000  -0.0000  -0.0000  -0.0000  -0.0000  -0.0000  -0.0000  -0.0001  -0.0000
    92   0.0000  -0.0000  -0.0000  -0.0000  -0.0000   0.0000  -0.0000  -0.0000  -0.0000  -0.0000
    93  -0.0000   0.0000   0.0000   0.0000   0.0000  -0.0000   0.0000   0.0000   0.0000   0.0000
    94  -0.0000   0.0000   0.0000   0.0000  -0.0000   0.0000   0.0000   0.0001   0.0003   0.0001
    95   0.0000  -0.0000  -0.0000   0.0000  -0.0000  -0.0000  -0.0000  -0.0001  -0.0007  -0.0002
    96   0.0000  -0.0000  -0.0000   0.0000   0.0000   0.0000  -0.0000  -0.0001  -0.0010  -0.0002
    97  -0.0000   0.0000   0.0000  -0.0000  -0.0000   0.0000   0.0000   0.0001   0.0005   0.0001
    98  -0.0000  -0.0000   0.0000   0.0000   0.0000   0.0000   0.0000  -0.0001   0.0010  -0.0001
    99  -0.0000   0.0000   0.0000  -0.0000   0.0000  -0.0000   0.0000   0.0000   0.0001   0.0000
   100   0.0000  -0.0000  -0.0000   0.0000   0.0000  -0.0000  -0.0000  -0.0000  -0.0005  -0.0001
   101  -0.0000   0.0000   0.0000  -0.0000  -0.0000  -0.0000   0.0000   0.0000   0.0004   0.0001
   102   0.0000  -0.0000  -0.0000   0.0000  -0.0000  -0.0000  -0.0000  -0.0001  -0.0007  -0.0001
   103  -0.0000   0.0000   0.0000  -0.0000   0.0000  -0.0000   0.0000   0.0000   0.0000   0.0000
   104   0.0000  -0.0000   0.0000   0.0000  -0.0000   0.0000  -0.0000  -0.0000  -0.0000  -0.0000
   105   0.0000  -0.0000   0.0000   0.0000  -0.0000  -0.0000  -0.0000  -0.0001  -0.0000  -0.0000
   106  -0.0000   0.0000  -0.0000  -0.0000  -0.0000  -0.0000   0.0000   0.0000   0.0000   0.0000
   107  -0.0000   0.0000   0.0001   0.0000   0.0000   0.0000  -0.0000   0.0000  -0.0002   0.0000
   108  -0.0000   0.0000  -0.0000   0.0000   0.0000  -0.0000   0.0000   0.0000   0.0000   0.0000
   109   0.0000  -0.0000   0.0000  -0.0000  -0.0000  -0.0000  -0.0000  -0.0000  -0.0000  -0.0000
   110   0.0000  -0.0000   0.0000  -0.0000  -0.0000   0.0000  -0.0000  -0.0000  -0.0000  -0.0000
   111  -0.0000   0.0000  -0.0000   0.0000   0.0000   0.0000   0.0000   0.0000   0.0000   0.0000
   112   0.0000  -0.0000   0.0000  -0.0000   0.0000   0.0000  -0.0000  -0.0000  -0.0000  -0.0000
   113  -0.0000   0.0000   0.0000  -0.0000  -0.0000   0.0000   0.0000   0.0000   0.0000   0.0000
   114  -0.0000   0.0000   0.0000  -0.0000   0.0001   0.0000   0.0000   0.0000   0.0000   0.0000
   115  -0.0000   0.0000   0.0000  -0.0001  -0.0000  -0.0000   0.0000   0.0000   0.0000   0.0000
   116  -0.0001  -0.0000   0.0000   0.0000   0.0000   0.0000   0.0000  -0.0000   0.0000   0.0000

 MOs :     11       12       13       14       15       16       17       18       19       20
 occup:   2.00     2.00     2.00     2.00     2.00     2.00     2.00     2.00     2.00     2.00
 CF+SFO
     1  -0.0000  -0.0000  -0.0000   0.0000   0.0000  -0.0000  -0.0000   0.0000   0.0000   0.0000
     2   0.0000   0.0000   0.0000   0.0000   0.0000  -0.0000   0.0000   0.0000   0.0000   0.0000
     3   0.0000   0.0000   0.0000  -0.0000  -0.0000   0.0000   0.0000  -0.0000  -0.0000  -0.0000
     4   0.0001  -0.0000  -0.0001   0.0000   0.0000   0.0000  -0.0000   0.0000   0.0000   0.0000
     5  -0.9852   0.1717   0.0000   0.0000   0.0000  -0.0000   0.0000  -0.0000  -0.0000  -0.0000
     6  -0.1717  -0.9852   0.0000   0.0000  -0.0000   0.0000   0.0000   0.0000   0.0000  -0.0000
     7   0.0000   0.0000   0.0000   0.0000   0.0000  -0.0001   0.0000   0.0000   0.0000   0.0000
     8  -0.0000  -0.0000   0.0003  -0.0000  -0.0000   0.0008  -0.0000  -0.0000  -0.0000  -0.0000
     9  -0.0000  -0.0000   0.0004  -0.0000  -0.0000   0.0006  -0.0000  -0.0000  -0.0000  -0.0000
    10  -0.0001  -0.0000   0.0000  -0.0000  -0.0000   0.0000   0.0000  -0.0001   0.0000  -0.0000
    11   0.0000  -0.0001  -0.0000  -0.0000   0.0000  -0.0000   0.0001   0.0000  -0.0000  -0.0000
    12  -0.0001  -0.0001  -0.0000  -0.0000  -0.0000   0.0000   0.0001  -0.0000   0.0000   0.0000
    13   0.0001  -0.0001  -0.0000  -0.0000   0.0000  -0.0000   0.0000   0.0001  -0.0000   0.0000
    14  -0.0000  -0.0000   0.0005  -0.0000  -0.0000   0.0007  -0.0000  -0.0000  -0.0000  -0.0000
    15  -0.0000  -0.0000   0.0001  -0.0000  -0.0000   0.0003  -0.0000  -0.0000  -0.0000  -0.0000
    16  -0.0000  -0.0000   0.0005  -0.0000  -0.0000   0.0006  -0.0000  -0.0000  -0.0000  -0.0000
    17  -0.0001  -0.0000  -0.0000   0.0001   0.0000  -0.0000  -0.0001   0.0001  -0.0000   0.0000
    18   0.0000  -0.0001   0.0000   0.0000  -0.0001   0.0000  -0.0001  -0.0001   0.0000   0.0000
    19   0.0000   0.0000   0.0002   0.0000   0.0000   0.0002  -0.0000  -0.0000   0.0000   0.0000
    20  -0.0001  -0.0002   0.0000  -0.0001   0.0000  -0.0000  -0.0002   0.0000   0.0000  -0.0000
    21  -0.0002   0.0001   0.0000  -0.0000  -0.0001   0.0000   0.0000   0.0002  -0.0000  -0.0000
    22  -0.0000   0.0000  -0.0000   0.0000  -0.0000  -0.0000  -0.0000   0.0000   0.0000  -0.0000
    23  -0.0000  -0.0000  -0.0000  -0.0000  -0.0000  -0.0000  -0.0000   0.0000   0.0000   0.0000
    24  -0.0000   0.0000   0.0001   0.0000  -0.0000   0.0003  -0.0000  -0.0000  -0.0000  -0.0000
    25  -0.0000  -0.0001   0.0000  -0.0000   0.0000  -0.0000  -0.0000  -0.0000   0.0000  -0.0000
    26  -0.0001   0.0000   0.0000  -0.0000  -0.0000   0.0000  -0.0000   0.0000   0.0000  -0.0000
    27   0.0000  -0.0000  -0.0000   0.0000   0.0000  -0.0001   0.0000   0.0000   0.0000   0.0000
    28   0.0000   0.0000   0.0000   0.0000  -0.0000  -0.0000   0.0000   0.0000   0.0000  -0.0000
    29  -0.0000   0.0000   0.0000  -0.0000  -0.0000   0.0000   0.0000   0.0000  -0.0000  -0.0000
    30   0.0000   0.0001  -0.0000   0.0001   0.0000   0.0000   0.0001  -0.0000  -0.0000   0.0000
    31   0.0001  -0.0000   0.0000  -0.0000   0.0001  -0.0000  -0.0000  -0.0001  -0.0000  -0.0000
    32   0.0000   0.0000   0.0000   0.0000  -0.0000   0.0000   0.0000   0.0000  -0.0000   0.0000
    33   0.0000  -0.0000   0.0000  -0.0000  -0.0000   0.0000   0.0000   0.0000   0.0000   0.0000
    34  -0.0000  -0.0000   0.0001   0.0000  -0.0000   0.0002  -0.0000  -0.0000  -0.0000  -0.0000
    35  -0.0000   0.0000  -0.0000  -0.0000  -0.0000  -0.0000  -0.0000   0.0000   0.0000   0.0000
    36  -0.0000  -0.0000  -0.0000  -0.0000   0.0000  -0.0000   0.0000  -0.0000  -0.0000   0.0000
    37  -0.0000  -0.0000   0.0001  -0.0000  -0.0000   0.0000  -0.0000  -0.0000  -0.0000  -0.0000
    38   0.0000   0.0001   0.0000  -0.0000   0.0000  -0.0000  -0.0001  -0.0000   0.0000  -0.0000
[...]
  103   -6.57266075062646E-16 -3.20474553288556E-16  1.00000000000000E+00
  104   -1.77320007995473E-16  2.90929345947889E-16  4.87206043924524E-16  1.00000000000000E+00
  105   -3.94008545662330E-16  3.31021600752614E-16 -6.67305043585850E-16 -2.01228280451937E-16
  106    1.02421568959020E-15  4.92803259169295E-16 -3.13843966530301E-16  1.34450198062970E-16
  107   -2.11687716026760E-15 -9.32395021854457E-16 -1.31654338436361E-16  2.07064871093411E-16
  108    3.15607063567908E-16 -1.60355539483635E-16 -6.43542087944653E-16  3.71833247453341E-16
  109   -9.41032918266769E-16 -6.44725745247511E-17  3.61461700056416E-16  4.87487679196779E-16
  110   -1.84355562917041E-17 -1.87550094738051E-16 -8.56161798107629E-16 -4.19220763457642E-16
  111    6.39681518462824E-16 -2.62811109536299E-16 -1.92205898393394E-16 -2.56399520628825E-16
  112    6.47370049759941E-16  2.03699411828676E-15  2.74300616398207E-16 -4.78444065686659E-16
  113   -1.56440918815257E-16 -1.16317082254745E-16 -4.87172375085423E-16  7.48197126528581E-16
  114   -5.49114055824875E-16  5.35935844439598E-17  1.16887166328613E-15 -7.23584982255755E-16
  115    5.52645054940570E-16 -2.80882226593724E-16  3.22712973405899E-16  2.03055119846602E-17
  116    6.82776318122746E-16  5.31584325169643E-16  5.83334650115092E-17  1.89045048332951E-17

 column         105                   106                   107                   108
 row
  105    1.00000000000000E+00
  106   -1.82744342221448E-15  1.00000000000000E+00
  107   -7.74319430367035E-16  2.73259158370285E-16  1.00000000000003E+00
  108    3.26134326526075E-16 -5.11568948620143E-16  4.52659734055843E-16  9.99999999999999E-01
  109   -4.87504178037880E-16 -7.33777917228020E-16  5.57215449509329E-16  8.25240526600734E-17
  110    1.67240309305702E-16  4.77200668469385E-16 -3.51378260855915E-16  6.31472897355564E-16
  111   -1.37440485846324E-16 -5.73484753780016E-16 -5.25335207252376E-16 -1.70239982189813E-16
  112    6.12288903082538E-16 -2.17766178642723E-16  5.58378253692342E-16 -1.40927958718186E-16
  113   -1.28246051068230E-15 -1.09237913449559E-15  9.11219714333802E-17  1.45820720874499E-16
  114   -8.04708175403277E-16 -7.95319387385152E-16 -2.33115183270580E-16  3.35585231465504E-16
  115   -2.18510587592717E-15 -7.80298598304985E-17 -5.99148821414778E-17  5.56771614171135E-16
  116    2.46886387202105E-16 -1.71266673803031E-16 -1.31988604074040E-14  1.01554506991286E-15

 column         109                   110                   111                   112
 row
  109    9.99999999999997E-01
  110    4.90318776704558E-16  1.00000000000000E+00
  111    5.98229390311591E-16 -3.11926178498038E-16  1.00000000000000E+00
  112   -6.13993232634088E-16  5.17420157507595E-16 -1.19552216070687E-15  9.99999999999998E-01
  113    1.82889631367523E-16  2.92981527694484E-16  1.72400781022642E-16 -3.86653978611364E-16
  114   -1.34735480090849E-15  4.68640075807629E-16  4.75241640701449E-16  6.65617435697179E-16
  115    1.54883595967607E-15 -8.00820789242977E-16 -2.78148046426199E-16 -5.66989180707962E-16
  116   -8.13449784961562E-16  2.65358481715827E-17 -1.66240719107202E-15 -1.54173548927439E-16

 column         113                   114                   115                   116
 row
  113    1.00000000000001E+00
  114    1.20892042519274E-15  1.00000000000001E+00
  115   -1.22442827900049E-15 -1.45018982683227E-17  1.00000000000000E+00
  116   -1.90436723465290E-16 -1.20658149270481E-16 -5.01843304325650E-16  1.00000000000000E+00


 SFO contributions (%) per orbital
 (multiplication by the orbital occupation yields the SFO Gross Populations)

 Orb.:       22     23     24     25     26     27     28     29     30     31     32     33     34     35
 occup:     2.00   2.00   2.00   2.00   2.00   2.00   2.00   2.00   2.00   2.00   0.00   0.00   0.00   0.00
 CF+SFO     ----   ----   ----   ----   ----   ----   ----   ----   ----   ----   ----   ----   ----   ----
 ------
      8:   81.62  16.95   0.51   0.00   0.00   0.00   0.00   0.81  -0.00   0.00   0.17  -0.05  -0.34   0.00
      9:    0.39   0.64  81.07   0.00   0.00   0.00   0.00  16.95   0.00   0.00   0.44  -0.17  -0.42  -0.00
     10:    0.00  -0.00   0.00  85.87   0.84   9.77   3.23   0.00   0.08   0.09   0.00  -0.00   0.00  -0.00
     11:    0.00   0.00   0.00   0.84  85.87   3.23   9.77   0.00   0.09   0.08   0.00   0.00   0.00  -0.00
     12:    0.00   0.00   0.00   4.33   3.61  37.13   3.99   0.00  50.29   0.00   0.00   0.00   0.00   0.02
     13:    0.00   0.00   0.00   3.61   4.33   3.99  37.13   0.00   0.00  50.29   0.00  -0.00  -0.00   0.00
     14:    0.25   0.56   1.90   0.00   0.00   0.00   0.00  24.55   0.00   0.00  69.19   1.35  -1.05  -0.00
     15:    0.01  -0.09  -0.00  -0.00   0.00  -0.00  -0.00  -0.33  -0.00  -0.00   0.73 105.77  -2.28  -0.00
     16:   -0.01  -0.54  -0.04  -0.00  -0.00  -0.00  -0.00  -1.25   0.00  -0.00  -1.06  -3.00   2.85   0.00
     17:   -0.00   0.00   0.00   0.14   0.03  -0.06  -0.00  -0.00  -0.25  -0.02   0.00   0.00   0.00   1.87
     75:   16.33  82.30   1.20   0.00   0.00  -0.00  -0.00  -0.01   0.00   0.00   0.64  -0.06   0.02   0.00
     76:    0.12   0.01   1.32   3.35   1.31  12.77  28.70   5.16   3.30  41.16   2.45  -0.04   0.18   0.08
     77:    1.25   0.06  13.33   0.39   0.08   1.84   2.28  52.74   0.71   3.77  24.68  -0.39   1.86   0.01
     78:    0.00   0.00   0.02   1.38   3.74  30.90  14.53   0.10  44.85   3.94   0.04  -0.00   0.00   0.27
     79:   -0.12  -0.02  -0.01  -0.08  -0.04  -0.01  -0.05   0.28   0.01   0.37  -0.10  -0.48  33.62  11.15
     80:   -0.23  -0.03  -0.01  -0.04  -0.02  -0.01  -0.02   0.55   0.01   0.19  -0.18  -0.92  64.72   6.38
     81:   -0.00  -0.00  -0.00  -0.07  -0.12  -0.07  -0.02   0.00   0.56   0.02  -0.00  -0.00   0.01  79.51
     82:   -0.08   0.04   0.01   0.00   0.00  -0.00  -0.00  -0.02   0.00  -0.00   0.24  -2.31  -0.37  -0.00
     84:    0.20  -0.03   0.28   0.03   0.05   0.00   0.06  -0.02   0.00   0.11   1.22  -0.16  -0.02   0.00


 Summation over all MOs, multiplied by occupation: Total SFO Gross Populations in this Irrep
 ===========================================================================================

     2.00    2.00    2.00    2.00    2.00    2.00    2.00    2.00    1.98    2.00    2.00    1.99
     1.99    0.55   -0.01   -0.04   -0.00   -0.00    0.01    0.01    0.01    0.00    0.00    0.01
     0.00    0.00    0.00    0.00    0.00    0.00    0.00   -0.00   -0.00    0.00    0.00    0.00
     0.00    0.00    0.00    0.00    0.00    0.00   -0.00   -0.00    0.00    0.00    0.00    0.00
     0.00    0.00   -0.00    0.00    0.00    0.00    0.00   -0.00   -0.00   -0.00   -0.00    0.00
     2.00    2.00    2.00    2.00    2.00    2.00    2.00    2.00    2.00    2.00    2.00    2.00
     2.00    2.00    2.00    1.94    1.53    1.99    0.01    0.01    0.01   -0.00    0.00    0.01
     0.01    0.00    0.01    0.00    0.00    0.00    0.00    0.00    0.00    0.00    0.00    0.00
     0.00    0.00   -0.00   -0.00   -0.00   -0.00   -0.00   -0.00   -0.00   -0.00    0.00   -0.00
    -0.00   -0.00   -0.00   -0.00    0.00    0.00    0.00   -0.00



 List of all MOs, ordered by energy, with the most significant SFO gross populations
 ===================================================================================

 Each percentage contribution in the table below corresponds to the indicated SFO.
 In general, a SFO may be a linear combination of several Fragment Orbitals on the same,
 or on symmetry-related Fragments. Only the first 'member' of such a combination is
 specified here. A full definition of all SFOs is given in an earlier part of the output.
 The numbering of the SFOs in this table does NOT include the Core Orbitals, and starts
 from one for each symmetry representation, as in the SFO definition list earlier.

       E(eV)  Occ       MO           %     SFO (first member)   E(eV)  Occ   Fragment
 -------------------------------------------------------------------------------------

     -15.271  2.00    22 A         81.62%     8 A             -21.240  2.00     1 ClF
                                   16.33%    15 A             -10.500  2.00     2 Br
                                    1.25%    17 A               0.447  2.00     2 Br
     -13.272  2.00    23 A         82.30%    15 A             -10.500  2.00     2 Br
                                   16.95%     8 A             -21.240  2.00     1 ClF
      -5.947  2.00    24 A         81.07%     9 A             -12.382  2.00     1 ClF
                                   13.33%    17 A               0.447  2.00     2 Br
                                    1.90%    14 A              -7.093  0.00     1 ClF
                                    1.32%    16 A               0.447  2.00     2 Br
                                    1.20%    15 A             -10.500  2.00     2 Br
      -3.848  2.00    25 A         85.87%    10 A             -10.379  2.00     1 ClF
                                    4.33%    12 A              -8.549  2.00     1 ClF
                                    3.61%    13 A              -8.549  2.00     1 ClF
                                    3.35%    16 A               0.447  2.00     2 Br
                                    1.38%    18 A               0.447  2.00     2 Br
      -3.848  2.00    26 A         85.87%    11 A             -10.379  2.00     1 ClF
                                    4.33%    13 A              -8.549  2.00     1 ClF
                                    3.74%    18 A               0.447  2.00     2 Br
                                    3.61%    12 A              -8.549  2.00     1 ClF
                                    1.31%    16 A               0.447  2.00     2 Br
      -2.599  2.00    27 A         37.13%    12 A              -8.549  2.00     1 ClF
                                   30.90%    18 A               0.447  2.00     2 Br
                                   12.77%    16 A               0.447  2.00     2 Br
                                    9.77%    10 A             -10.379  2.00     1 ClF
                                    3.99%    13 A              -8.549  2.00     1 ClF
                                    3.23%    11 A             -10.379  2.00     1 ClF
                                    1.84%    17 A               0.447  2.00     2 Br
      -2.599  2.00    28 A         37.13%    13 A              -8.549  2.00     1 ClF
                                   28.70%    16 A               0.447  2.00     2 Br
                                   14.53%    18 A               0.447  2.00     2 Br
                                    9.77%    11 A             -10.379  2.00     1 ClF
                                    3.99%    12 A              -8.549  2.00     1 ClF
                                    3.23%    10 A             -10.379  2.00     1 ClF
                                    2.28%    17 A               0.447  2.00     2 Br
      -2.587  2.00    29 A         52.74%    17 A               0.447  2.00     2 Br
                                   24.55%    14 A              -7.093  0.00     1 ClF
                                   16.95%     9 A             -12.382  2.00     1 ClF
                                    5.16%    16 A               0.447  2.00     2 Br
                                   -1.25%    16 A               5.087  0.00     1 ClF
      -1.665  2.00    30 A         50.29%    12 A              -8.549  2.00     1 ClF
                                   44.85%    18 A               0.447  2.00     2 Br
                                    3.30%    16 A               0.447  2.00     2 Br
      -1.665  2.00    31 A         50.29%    13 A              -8.549  2.00     1 ClF
                                   41.16%    16 A               0.447  2.00     2 Br
                                    3.94%    18 A               0.447  2.00     2 Br
                                    3.77%    17 A               0.447  2.00     2 Br
       0.979  0.00    32 A         69.19%    14 A              -7.093  0.00     1 ClF
                                   24.68%    17 A               0.447  2.00     2 Br
                                    2.45%    16 A               0.447  2.00     2 Br
                                    1.22%    24 A              15.005  0.00     2 Br
                                   -1.06%    16 A               5.087  0.00     1 ClF
       5.655  0.00    33 A        105.77%    15 A               0.993  0.00     1 ClF
                                   -3.00%    16 A               5.087  0.00     1 ClF
                                   -2.31%    22 A              13.634  0.00     2 Br
                                    1.35%    14 A              -7.093  0.00     1 ClF



 =======================================================================
 Electrostatic potential at the Nuclei due to electrons and other nuclei
 =======================================================================
  
         Atom                  Potential
         ----                  ---------
     1)   Cl                 64.58393167
     2)   F                  26.84219388
     3)   Br                176.14895456
 
 
 ========================
 No memory problems found
 ========================
 
 Maximum number of active allocate calls:         636
 
 *******************************************************************************

                             A D F   E X I T
 NORMAL TERMINATION



 =================
 Timing Statistics
 =================
  
 Total Used :                     CPU=        6.04      System=        0.20     Elapsed=        6.51

 Calls  Section                     ( Mean, Percentage )
 ---------------------------------------------------------------------------------------------------
     3  ><      ................      0.00    0.02             0.00    0.00             0.00    0.02
     1  INIT    ................      0.45    7.50             0.02   11.73             0.48    7.37
     1  GEOMET  ................      0.03    0.53             0.01    3.57             0.25    3.78
     1  FRAGM   ................      0.01    0.22             0.00    2.55             0.03    0.40
     1  INPUTA  ................      0.00    0.00             0.00    0.00             0.00    0.01
     1  ATDEN   ................      0.00    0.07             0.00    0.51             0.01    0.08
     1  MAINSY  ................      0.01    0.13             0.00    2.04             0.02    0.25
     1  SYMFIT  ................      0.00    0.02             0.00    0.51             0.00    0.04
     1  CORORT  ................      0.00    0.02             0.00    0.00             0.00    0.01
     1  SYMORB  ................      0.00    0.05             0.00    0.00             0.00    0.05
     1  CLSMAT  ................      0.01    0.13             0.00    0.00             0.01    0.12
     1  ORTHON  ................      0.01    0.18             0.00    0.00             0.01    0.17
     1  GENPT   ................      0.12    2.07             0.00    2.55             0.13    2.01
     1  PTBAS   ................      0.04    0.63             0.00    0.51             0.04    0.59
    18  FOCKY   ................      0.12   35.59             0.00   12.76             0.12   33.50
    18  FOCKTR  ................      0.00    0.60             0.00    0.51             0.00    0.60
    18  SDIIS   ................      0.00    1.14             0.00    0.51             0.00    1.11
     1  COREPS  ................      0.10    1.62             0.00    1.53             0.10    1.56
     1  TOTEN   ................      0.32    5.37             0.00    2.04             0.33    5.05
     1  POPAN   ................      0.00    0.03             0.00    1.02             0.01    0.13
     1  DEBYE   ................      0.01    0.12             0.00    0.00             0.01    0.10
     1  INPUTE  ................      0.00    0.00             0.00    0.00             0.00    0.02
     1  SYMORE  ................      0.00    0.02             0.00    0.00             0.00    0.02
     1  METS    ................      0.00    0.02             0.00    0.00             0.00    0.01
     1  CETS    ................      0.01    0.20             0.00    1.53             0.03    0.43
     1  POPUL   ................      2.61   43.30             0.11   54.59             2.74   42.12
     1  EXIT PROCEDURE .........      0.03    0.45             0.00    1.53             0.03    0.48


 Currently Open Files (EXIT00)
 ====================

 Unit    Access Format  Status   Type       Ident (file)
 -------------------------------------------------------
   3      SEQ    FORM   TRANSP  NORMAL      LOGFILE
                                          ( logfile )


 Buffered I/O statistics
 =======================
 Memory available:                     67108864
 Number of records fitting in memory:     16131
 Input :   1.2% of                        57315  *4k bytes
 Output:  12.8% of                         4339  *4k bytes
 Records from serial files evicted:           0
                    others evicted:           0
 Hash table lookups:     163680 with          0 conflicts (  0.00%)

 ***************************************************************************************************
 (LOGFILE)
 <May09-2019> <17:12:12>  ADF 2017  RunTime: May09-2019 17:12:12  Nodes: 1  Procs: 12
 <May09-2019> <17:12:12>  *** (NO TITLE) ***
 <May09-2019> <17:12:12>  RunType   : SINGLE POINT
 <May09-2019> <17:12:13>  Net Charge: -1 (Nuclei minus Electrons)
 <May09-2019> <17:12:13>  Symmetry  : NOSYM
 <May09-2019> <17:12:13>  >>>> FRAGM
  Coordinates
    Atom         X           Y           Z   (Angstrom)
    1.Cl       -4.827276    2.943831   -0.043204
    2.F        -3.782327    1.279943   -0.016185
    3.Br       -6.165778    5.075146   -0.077812
 <May09-2019> <17:12:13>  >>>> CORORT
 <May09-2019> <17:12:13>  >>>> CLSMAT
 <May09-2019> <17:12:13>  >>>> ORTHON
 <May09-2019> <17:12:13>  >>>> GENPT
 <May09-2019> <17:12:13>  Block Length= 128
 <May09-2019> <17:12:13>  >>>> PTBAS
 <May09-2019> <17:12:13>  >>>> CYCLE
 <May09-2019> <17:12:13>              |Error|         MaxErr       Wt(A-DIIS)
 <May09-2019> <17:12:13>      1      1.27186828      0.80993289
 <May09-2019> <17:12:13>      2      1.08741468      0.48142205    100.0
 <May09-2019> <17:12:13>      3      0.74767147      0.36113590    100.0
 <May09-2019> <17:12:14>      4      0.70060061      0.34356229    100.0
 <May09-2019> <17:12:14>      5      3.72908401      1.33032063    100.0
 <May09-2019> <17:12:14>      6      1.48978145      0.56147143    100.0
 <May09-2019> <17:12:14>      7      0.33515529      0.13527230    100.0
 <May09-2019> <17:12:14>      8      0.59094531      0.25235417    100.0
 <May09-2019> <17:12:14>      9      0.18931888      0.07958288     79.4
 <May09-2019> <17:12:14>     10      0.29533877      0.11241623    100.0
 <May09-2019> <17:12:14>     11      0.10921765      0.03589045     35.2
 <May09-2019> <17:12:14>     12      0.03268966      0.01294836     12.1
 <May09-2019> <17:12:15>     13      0.01196897      0.00467553      3.7
 <May09-2019> <17:12:15>     14      0.00054082      0.00015348      0.0
 <May09-2019> <17:12:15>     15      0.00007914      0.00003309      0.0
 <May09-2019> <17:12:15>     16      0.00001297      0.00000449      0.0
 <May09-2019> <17:12:15>     17      0.00000135      0.00000053      0.0
 <May09-2019> <17:12:15>  SCF converged
 <May09-2019> <17:12:15>     18      0.00000064      0.00000020      0.0
 <May09-2019> <17:12:15>  >>>> TOTEN
 <May09-2019> <17:12:16>  >>>> POPAN
 <May09-2019> <17:12:16>  >>>> DEBYE
 <May09-2019> <17:12:16>  >>>> AMETS
 <May09-2019> <17:12:18>   Bond Energy          -0.09041757 a.u.
 <May09-2019> <17:12:18>   Bond Energy          -2.46038731 eV
 <May09-2019> <17:12:18>   Bond Energy         -56.74       kcal/mol
 <May09-2019> <17:12:18>  >>>> POPUL
 <May09-2019> <17:12:18>  NORMAL TERMINATION
 <May09-2019> <17:12:18>  END
