
Create Ga   file=TZ2P-Ga
XC
  GGA blyp
End
End Input

 *******************************************************************************
 *                                                                             *
 *  -------------------------------------                                      *
 *   Amsterdam Density Functional  (ADF)         2017                          *
 *  -------------------------------------                                      *
 *                                               r58813 2017-04-12             *
 *                                                                             *
 *                                                                             *
 *                              =================                              *
 *                              |               |                              *
 *                              |     A D F     |                              *
 *                              |               |                              *
 *                              =================                              *
 *                                                                             *
 *                                                                             *
 *   Online information and documentation:  https://www.scm.com/support/       *
 *   E-mail:  support@scm.com   info@scm.com                                   *
 *                                                                             *
 *   Scientific publications using ADF results must be properly referenced     *
 *   See the User Manuals (or the web site) for recommended citations          *
 *   The terms and conditions of the End User License Agreement apply to       *
 *   the use of ADF, https://www.scm.com/license-terms/                        *
 *                                                                             *
 **********************  x86_64_linux_intel / intelmpi  ************************
 
 Licensed to: VU/FEW (+ SARA) / ALGEMEEN / Amsterdam / THE NETHERLANDS
 SCM User ID: u7668
  
 ADF 2017  RunTime: May18-2019 16:00:12  Nodes: 1  Procs: 1

 Temporary files are created in /local/datastore0/tcst25/190690/kid_0.GSsgO6

 Gallium (TZ2P)



 ===========================
 A T T A C H E D   F I L E S
 ===========================
  
 CREATE - Data File:    TZ2P-Ga
                        Gallium (TZ2P)



 ===============================
 M O D E L   P A R A M E T E R S
 ===============================
  
 DENSITY FUNCTIONAL POTENTIAL (scf)
    LDA:                               Exchange only                           == Not Default ==
    Gradient Corrections:              Becke88 LYP                             == Not Default ==

 SPIN  (restricted / unrestr.)
    Molecule:                          Restricted                               

 OTHER ASPECTS
    Relativistic Corrections:          ---                                      

    Nuclear Charge Density Model:      Point Charge Nuclei                      
    Core Treatment:                    Frozen Orbital(s)                        

    Hyperfine or Zeeman Interaction:   ---                                      



 =====================================
 S Y M M E T R Y ,   E L E C T R O N S
 =====================================
  
 Symmetry: ATOM

 Irreducible Representations, including subspecies
 -------------------------------------------------
 S
 P:x  P:y  P:z
 D:z2  D:x2-y2  D:xy  D:xz  D:yz
 F:z3  F:z  F:xyz  F:z2x  F:z2y  F:x  F:y


 Configuration of Valence Electrons
 ==================================

          Occupation Numbers
          -------------------------------------------------
 S        4*2
 P        2*6 1
 D        10
 F        0
          -------------------------------------------------

 Total:   31

 Net Charge: 0 (Nuclei minus Electrons)

 Preset values for MO occupations will be applied through SCF cycle no. 1000000
 Thereafter, the program will assign electrons to MOs that are spatially
 similar to the occupied MOs in a "reference" cycle ("KeepOrbitals").
 The reference cycle is always the PREVIOUS cycle: it will evolve with
 the SCF procedure.



 ================================
 (Slater-type)  F U N C T I O N S  ***  (Basis and Fit)  ***
 ================================
  

 Atom Type    1  (Ga)
 ==============

 Valence Basis Sets:  21
 -----------------------
   1 S   36.500000
   1 S   28.850000
   2 S   12.250000
   2 S    7.050000
   2 P   17.100000
   2 P   11.300000
   3 S    7.600000
   3 S    4.600000
   3 P    6.600000
   3 P    3.950000
   3 D    8.450000
   3 D    4.250000
   3 D    2.100000
   4 S    3.100000
   4 S    1.900000
   4 S    1.200000
   4 P    2.300000
   4 P    1.250000
   4 P    0.700000
   4 D    1.500000
   4 F    1.500000


 BAS: List of all Elementary Cartesian Basis Functions
 =====================================================

 The numbering in the list below (to the right of the function characteristics) is referred
 to in print-outs of MO eigenvectors and Mulliken populations in the BAS representation
 (as contrasted to the SFO representation).

 Notes:
 1. The functions are characterized by a polynomial prefactor (powers of x,y,z and r) and
    an exponential decay factor alpha.
 2. Since the basis sets are specific for an atom TYPE, the individual functions occur on
    all atoms of that type.
 3. The word 'Core' in the left margin signals that it is a Core Function (CF) : not a
    degree of freedom in the valence set, but only used to ensure orthogonalization of
    the other valence basis functions on the frozen Core Orbitals.


 (power of) X  Y  Z  R     Alpha  on Atom
            ==========     =====     ==========

 Ga                                   1
                                  ---------------------------------------------------------------------------
            0  0  0  0    36.500      1
            0  0  0  0    28.850      2
            0  0  0  1    12.250      3
            0  0  0  1     7.050      4
            1  0  0  0    17.100      5
            0  1  0  0    17.100      6
            0  0  1  0    17.100      7
            1  0  0  0    11.300      8
            0  1  0  0    11.300      9
            0  0  1  0    11.300     10
            0  0  0  2     7.600     11
            0  0  0  2     4.600     12
            1  0  0  1     6.600     13
            0  1  0  1     6.600     14
            0  0  1  1     6.600     15
            1  0  0  1     3.950     16
            0  1  0  1     3.950     17
            0  0  1  1     3.950     18
            2  0  0  0     8.450     19
            1  1  0  0     8.450     20
            1  0  1  0     8.450     21
            0  2  0  0     8.450     22
            0  1  1  0     8.450     23
            0  0  2  0     8.450     24
            2  0  0  0     4.250     25
            1  1  0  0     4.250     26
            1  0  1  0     4.250     27
            0  2  0  0     4.250     28
            0  1  1  0     4.250     29
            0  0  2  0     4.250     30
            2  0  0  0     2.100     31
            1  1  0  0     2.100     32
            1  0  1  0     2.100     33
            0  2  0  0     2.100     34
            0  1  1  0     2.100     35
            0  0  2  0     2.100     36
            0  0  0  3     3.100     37
            0  0  0  3     1.900     38
            0  0  0  3     1.200     39
            1  0  0  2     2.300     40
            0  1  0  2     2.300     41
            0  0  1  2     2.300     42
            1  0  0  2     1.250     43
            0  1  0  2     1.250     44
            0  0  1  2     1.250     45
            1  0  0  2     0.700     46
            0  1  0  2     0.700     47
            0  0  1  2     0.700     48
            2  0  0  1     1.500     49
            1  1  0  1     1.500     50
            1  0  1  1     1.500     51
            0  2  0  1     1.500     52
            0  1  1  1     1.500     53
            0  0  2  1     1.500     54
            3  0  0  0     1.500     55
            2  1  0  0     1.500     56
            2  0  1  0     1.500     57
            1  2  0  0     1.500     58
            1  1  1  0     1.500     59
            1  0  2  0     1.500     60
            0  3  0  0     1.500     61
            0  2  1  0     1.500     62
            0  1  2  0     1.500     63
            0  0  3  0     1.500     64

 Total number of charge fitting functions (nprimf)       170
 Total number of Cartesian basis functions (naos)         64
 Total number of Cartesian core functions  (ncos)          0



 BAS: List of all Elementary Cartesian Basis Functions
 =====================================================

 The numbering in the list below (to the right of the function characteristics) is referred
 to in print-outs of MO eigenvectors and Mulliken populations in the BAS representation
 (as contrasted to the SFO representation).

 Notes:
 1. The functions are characterized by a polynomial prefactor (powers of x,y,z and r) and
    an exponential decay factor alpha.
 2. Since the basis sets are specific for an atom TYPE, the individual functions occur on
    all atoms of that type.
 3. The word 'Core' in the left margin signals that it is a Core Function (CF) : not a
    degree of freedom in the valence set, but only used to ensure orthogonalization of
    the other valence basis functions on the frozen Core Orbitals.


 (power of) X  Y  Z  R     Alpha  on Atom
            ==========     =====     ==========

 Ga                                   1
                                  ---------------------------------------------------------------------------
            0  0  0  0    36.500      1
            0  0  0  0    28.850      2
            0  0  0  1    12.250      3
            0  0  0  1     7.050      4
            1  0  0  0    17.100      5
            0  1  0  0    17.100      6
            0  0  1  0    17.100      7
            1  0  0  0    11.300      8
            0  1  0  0    11.300      9
            0  0  1  0    11.300     10
            0  0  0  2     7.600     11
            0  0  0  2     4.600     12
            1  0  0  1     6.600     13
            0  1  0  1     6.600     14
            0  0  1  1     6.600     15
            1  0  0  1     3.950     16
            0  1  0  1     3.950     17
            0  0  1  1     3.950     18
            2  0  0  0     8.450     19
            1  1  0  0     8.450     20
            1  0  1  0     8.450     21
            0  2  0  0     8.450     22
            0  1  1  0     8.450     23
            0  0  2  0     8.450     24
            2  0  0  0     4.250     25
            1  1  0  0     4.250     26
            1  0  1  0     4.250     27
            0  2  0  0     4.250     28
            0  1  1  0     4.250     29
            0  0  2  0     4.250     30
            2  0  0  0     2.100     31
            1  1  0  0     2.100     32
            1  0  1  0     2.100     33
            0  2  0  0     2.100     34
            0  1  1  0     2.100     35
            0  0  2  0     2.100     36
            0  0  0  3     3.100     37
            0  0  0  3     1.900     38
            0  0  0  3     1.200     39
            1  0  0  2     2.300     40
            0  1  0  2     2.300     41
            0  0  1  2     2.300     42
            1  0  0  2     1.250     43
            0  1  0  2     1.250     44
            0  0  1  2     1.250     45
            1  0  0  2     0.700     46
            0  1  0  2     0.700     47
            0  0  1  2     0.700     48
            2  0  0  1     1.500     49
            1  1  0  1     1.500     50
            1  0  1  1     1.500     51
            0  2  0  1     1.500     52
            0  1  1  1     1.500     53
            0  0  2  1     1.500     54
            3  0  0  0     1.500     55
            2  1  0  0     1.500     56
            2  0  1  0     1.500     57
            1  2  0  0     1.500     58
            1  1  1  0     1.500     59
            1  0  2  0     1.500     60
            0  3  0  0     1.500     61
            0  2  1  0     1.500     62
            0  1  2  0     1.500     63
            0  0  3  0     1.500     64
1
 ***************************************************************************************************



                                              ***********************
                                              *  T E C H N I C A L  *
                                              ***********************
  



 =============================================================
 P A R A L L E L I Z A T I O N  and  V E C T O R I Z A T I O N
 =============================================================
  
 Nr of parallel processes:                                1
 Maximum vector length in NumInt loops:                 128

 IO buffersize (Mb):                                     64.000000



 =====================
 S C F   U P D A T E S
 =====================
  
 Max. nr. of cycles:                               300
 Convergence criterion:                              0.0000000100
   secondary criterion:                              0.0000000100

 Mix parameter (when DIIS does not apply):           0.2000000000
 Special mix parameter for the first cycle:          1.0000000000
 Mixed ADIIS+DIIS will be used
    Max number of expansion vectors:                10
    Pure ADIIS when Max([F,P]) is above              0.1000000000
    Pure DIIS when Max([F,P]) is below               0.0010000000
 Automatic ElectronSmearing (in case of problematic SCF convergence) disabled



 =================
 P R E C I S I O N  ***  (General: NumInt, NeglectFunctionTails, ...)  ***
 =================
  

 NumInt:           Target precision:                12.0000000000
 -------           Initial precision:               10.0000000000
                   Min. precision (optimization):   10.0000000000

 Neglect Functions:          Basis functions:        0.1000000000E-13
 ------------------          Fit functions:          0.1000000000E-13



 ===========================
 L I N E A R   S C A L I N G
 ===========================
  

 Cut-off radii density fit:                        0.1000000000E-97
 Overlap cut-off criterion AO matrix elements:     0.1000000000E-97
 Cut-offs for Coulomb potential and fitted density:0.1000000000E-97
 Cut-off criterion for Coulomb multipole terms:    0.1000000000E-97
 Progressive Convergence parameter:                 0.000000000    
1
 ***************************************************************************************************



                                            ***************************
                                            *  C O M P U T A T I O N  *
                                            ***************************
  

 Number of elements of the density matrix on this node (used, total):      2080      2080



 ===========================================
 Numerical Integration : Fuzzy Cells (Becke)
 ===========================================
  
 Becke grid quality: VERYGOOD       
  
 Lebedev angular grid order:             min:  13 max:  41
 Nr. of radial points:                   min: 111 max: 111

 Total nr. of points:        111
 Nr. of blocks:                1
 Block length:               111
 Nr. of dummy points:          0


 Test of Precision of the Numerical Integration Grid
 ===================================================

 Integral of the Total Core Density:                   0.00000000000000



 ========================
 Density Fitting (zlmFit)
 ========================
  
 ZlmFit Fit Quality: VERYGOOD       
  
 Max L-expansion:                        min:   0 max:   0
 Nr. of radial interpolation points:     min: 260 max: 260



 =====
 S C F  ***  ScaSCF  ***
 =====
  

 CYCLE    1
 SCF Error: norm([F,P])=      0.000000000000, max([F,P])=      0.000000000000
 orbitals (Q,E):
 ---------------
 S :1...9            ( 2.00  -480.4901)  ( 2.00  -120.1100)  ( 2.00   -53.2668)  ( 2.00   -29.6203)
                     ( 0.00   -18.0593)  ( 0.00   -11.1622)  ( 0.00    -6.7528)  ( 0.00    -4.1646)
                     ( 0.00   684.0222)
 P :1...7            ( 6.00  -120.0690)  ( 6.00   -52.1854)  ( 1.00   -27.5850)  ( 0.00   -14.9462)
                     ( 0.00    -8.0402)  ( 0.00    -4.2153)  ( 0.00     1.9406)
 D :1...4            (10.00   -52.3222)  ( 0.00   -28.1785)  ( 0.00   -15.6491)  ( 0.00    -8.5163)
 F :1...1            ( 0.00   -10.5000)

 CYCLE    2
  SDIIS (wt  0.000):  1.0000  0.0000
 A-DIIS (wt  1.000):  0.0000  1.0000
  DIIS coefficients:  0.0000  1.0000
 SCF Error: norm([F,P])=    104.969731643936, max([F,P])=     24.135252522126
 orbitals (Q,E):
 ---------------
 S :1...5            ( 2.00  -336.7475)  ( 2.00   -22.9191)  ( 2.00    -0.1682)  ( 2.00     0.1292)
                     ( 0.00     0.9290)
 P :1...4            ( 6.00   -16.1856)  ( 6.00     0.0410)  ( 1.00     0.1705)  ( 0.00     0.6748)
 D :1...2            (10.00     0.3944)  ( 0.00     1.8092)
 F :1...1            ( 0.00     0.9357)

 CYCLE    3
  SDIIS (wt  0.000):  0.1401  0.8599
 A-DIIS (wt  1.000):  0.4819  0.5181
  DIIS coefficients:  0.4819  0.5181
 SCF Error: norm([F,P])=     37.914047499698, max([F,P])=     10.453028774062
 orbitals (Q,E):
 ---------------
 S :1...5            ( 2.00  -370.7082)  ( 2.00   -47.8848)  ( 2.00   -10.1930)  ( 2.00    -2.9756)
                     ( 0.00    -0.6993)
 P :1...4            ( 6.00   -42.3425)  ( 6.00    -8.4497)  ( 1.00    -2.2926)  ( 0.00    -0.3909)
 D :1...2            (10.00    -5.4774)  ( 0.00    -1.4854)
 F :1...1            ( 0.00    -0.4056)

 CYCLE    4
  SDIIS (wt  0.000):  0.0303 -0.0304  1.0001
 A-DIIS (wt  1.000):  0.0000  0.0000  1.0000
  DIIS coefficients:  0.0000  0.0000  1.0000
 SCF Error: norm([F,P])=      7.231658644542, max([F,P])=      1.587482376229
 orbitals (Q,E):
 ---------------
 S :1...5            ( 2.00  -368.9756)  ( 2.00   -42.9676)  ( 2.00    -3.5005)  ( 2.00    -0.0340)
                     ( 0.00     0.3076)
 P :1...4            ( 6.00   -37.8568)  ( 6.00    -1.8824)  ( 1.00     0.0251)  ( 0.00     0.1766)
 D :1...2            (10.00     0.3382)  ( 0.00     0.8191)
 F :1...1            ( 0.00     0.8804)

 CYCLE    5
  SDIIS (wt  0.000):  0.0274 -0.0460  0.8166  0.2020
 A-DIIS (wt  1.000):  0.0000  0.0000  0.8914  0.1086
  DIIS coefficients:  0.0000  0.0000  0.8914  0.1086
 SCF Error: norm([F,P])=     16.163021893208, max([F,P])=      4.077816445024
 orbitals (Q,E):
 ---------------
 S :1...5            ( 2.00  -370.7068)  ( 2.00   -44.6549)  ( 2.00    -4.6559)  ( 2.00    -0.1975)
                     ( 0.00     0.1632)
 P :1...4            ( 6.00   -39.5599)  ( 6.00    -3.0032)  ( 1.00    -0.0235)  ( 0.00     0.0864)
 D :1...2            (10.00    -0.2032)  ( 0.00     0.3296)
 F :1...1            ( 0.00     0.7398)

 CYCLE    6
  SDIIS (wt  0.000):  0.0129 -0.0121  0.3455 -0.0913  0.7450
 A-DIIS (wt  1.000):  0.0000  0.0000  0.1940  0.0000  0.8060
  DIIS coefficients:  0.0000  0.0000  0.1940  0.0000  0.8060
 SCF Error: norm([F,P])=      4.455747742942, max([F,P])=      1.520625290321
 orbitals (Q,E):
 ---------------
 S :1...5            ( 2.00  -372.4358)  ( 2.00   -46.5864)  ( 2.00    -5.9847)  ( 2.00    -0.4423)
                     ( 0.00     0.0481)
 P :1...4            ( 6.00   -41.4789)  ( 6.00    -4.3056)  ( 1.00    -0.1657)  ( 0.00     0.0237)
 D :1...2            (10.00    -1.4019)  ( 0.00     0.1847)
 F :1...1            ( 0.00     0.6078)

 CYCLE    7
  SDIIS (wt  0.000): -0.0013  0.0003  0.1019 -0.0409  0.5663  0.3736
 A-DIIS (wt  1.000):  0.0000  0.0000  0.0000  0.0000  0.4799  0.5201
  DIIS coefficients:  0.0000  0.0000  0.0000  0.0000  0.4799  0.5201
 SCF Error: norm([F,P])=      5.023055664947, max([F,P])=      1.140011926067
 orbitals (Q,E):
 ---------------
 S :1...5            ( 2.00  -370.8133)  ( 2.00   -45.2378)  ( 2.00    -5.3241)  ( 2.00    -0.3493)
                     ( 0.00     0.0784)
 P :1...4            ( 6.00   -40.0799)  ( 6.00    -3.6552)  ( 1.00    -0.1115)  ( 0.00     0.0395)
 D :1...2            (10.00    -0.7878)  ( 0.00     0.2264)
 F :1...1            ( 0.00     0.6418)

 CYCLE    8
  SDIIS (wt  0.156): -0.0001 -0.0001 -0.0221 -0.0012  0.0452  0.0838  0.8946
 A-DIIS (wt  0.844):  0.0000  0.0000  0.0000  0.0000  0.0000  0.0000  1.0000
  DIIS coefficients: -0.0000 -0.0000 -0.0035 -0.0002  0.0071  0.0131  0.9835
 SCF Error: norm([F,P])=      0.364379235965, max([F,P])=      0.084525363781
 orbitals (Q,E):
 ---------------
 S :1...5            ( 2.00  -370.9913)  ( 2.00   -45.2865)  ( 2.00    -5.2229)  ( 2.00    -0.2988)
                     ( 0.00     0.0993)
 P :1...4            ( 6.00   -40.1486)  ( 6.00    -3.5555)  ( 1.00    -0.0809)  ( 0.00     0.0516)
 D :1...2            (10.00    -0.6912)  ( 0.00     0.2531)
 F :1...1            ( 0.00     0.6752)

 CYCLE    9
  SDIIS (wt  0.755):  0.0000 -0.0000 -0.0023 -0.0003  0.0040  0.0050  0.2840  0.7096
 A-DIIS (wt  0.245):  0.0000  0.0000  0.0000  0.0000  0.0000  0.0000  0.0000  1.0000
  DIIS coefficients:  0.0000 -0.0000 -0.0017 -0.0002  0.0030  0.0038  0.2144  0.7808
 SCF Error: norm([F,P])=      0.115099868859, max([F,P])=      0.025271261407
 orbitals (Q,E):
 ---------------
 S :1...5            ( 2.00  -370.9609)  ( 2.00   -45.2859)  ( 2.00    -5.2596)  ( 2.00    -0.3228)
                     ( 0.00     0.0875)
 P :1...4            ( 6.00   -40.1432)  ( 6.00    -3.5920)  ( 1.00    -0.0967)  ( 0.00     0.0439)
 D :1...2            (10.00    -0.7275)  ( 0.00     0.2381)
 F :1...1            ( 0.00     0.6574)

 CYCLE   10
  SDIIS (wt  0.961): -0.0000  0.0000  0.0000 -0.0000 -0.0002  0.0006  0.0419  0.2303  0.7274
 A-DIIS (wt  0.039):  0.0000  0.0000  0.0000  0.0000  0.0000  0.0000  0.0000  0.0000  1.0000
  DIIS coefficients: -0.0000  0.0000  0.0000 -0.0000 -0.0002  0.0005  0.0403  0.2214  0.7379
 SCF Error: norm([F,P])=      0.019778553254, max([F,P])=      0.004817667450
 orbitals (Q,E):
 ---------------
 S :1...5            ( 2.00  -370.9622)  ( 2.00   -45.2848)  ( 2.00    -5.2542)  ( 2.00    -0.3183)
                     ( 0.00     0.0898)
 P :1...4            ( 6.00   -40.1426)  ( 6.00    -3.5866)  ( 1.00    -0.0936)  ( 0.00     0.0454)
 D :1...2            (10.00    -0.7220)  ( 0.00     0.2410)
 F :1...1            ( 0.00     0.6608)

 CYCLE   11
  SDIIS (wt  1.000):  0.0000  0.0000  0.0000 -0.0000  0.0001 -0.0001  0.0012  0.0018  0.0009  0.9961
  DIIS coefficients:  0.0000  0.0000  0.0000 -0.0000  0.0001 -0.0001  0.0012  0.0018  0.0009  0.9961
 SCF Error: norm([F,P])=      0.001146082778, max([F,P])=      0.000261051241
 orbitals (Q,E):
 ---------------
 S :1...5            ( 2.00  -370.9618)  ( 2.00   -45.2845)  ( 2.00    -5.2541)  ( 2.00    -0.3183)
                     ( 0.00     0.0898)
 P :1...4            ( 6.00   -40.1423)  ( 6.00    -3.5865)  ( 1.00    -0.0936)  ( 0.00     0.0455)
 D :1...2            (10.00    -0.7219)  ( 0.00     0.2410)
 F :1...1            ( 0.00     0.6609)

 CYCLE   12
  SDIIS (wt  1.000):  0.0000 -0.0000 -0.0000 -0.0000  0.0000  0.0000  0.0004  0.0033  0.0237  0.9725
  DIIS coefficients:  0.0000 -0.0000 -0.0000 -0.0000  0.0000  0.0000  0.0004  0.0033  0.0237  0.9725
 SCF Error: norm([F,P])=      0.000012048687, max([F,P])=      0.000005302015
 orbitals (Q,E):
 ---------------
 S :1...5            ( 2.00  -370.9618)  ( 2.00   -45.2845)  ( 2.00    -5.2541)  ( 2.00    -0.3183)
                     ( 0.00     0.0898)
 P :1...4            ( 6.00   -40.1423)  ( 6.00    -3.5865)  ( 1.00    -0.0936)  ( 0.00     0.0454)
 D :1...2            (10.00    -0.7219)  ( 0.00     0.2410)
 F :1...1            ( 0.00     0.6609)

 CYCLE   13
  SDIIS (wt  1.000):  0.0000  0.0000  0.0000  0.0005 -0.0069  1.0065
  DIIS coefficients:  0.0000  0.0000  0.0000  0.0005 -0.0069  1.0065
 SCF Error: norm([F,P])=      0.000000420733, max([F,P])=      0.000000124340
 orbitals (Q,E):
 ---------------
 S :1...5            ( 2.00  -370.9618)  ( 2.00   -45.2845)  ( 2.00    -5.2541)  ( 2.00    -0.3183)
                     ( 0.00     0.0898)
 P :1...4            ( 6.00   -40.1423)  ( 6.00    -3.5865)  ( 1.00    -0.0936)  ( 0.00     0.0454)
 D :1...2            (10.00    -0.7219)  ( 0.00     0.2410)
 F :1...1            ( 0.00     0.6609)

 CYCLE   14
  SDIIS (wt  1.000):  0.0000  0.0000  0.0001 -0.0003  0.0382  0.9621
  DIIS coefficients:  0.0000  0.0000  0.0001 -0.0003  0.0382  0.9621
 SCF Error: norm([F,P])=      0.000000016223, max([F,P])=      0.000000007072
 orbitals (Q,E):
 ---------------
 S :1...5            ( 2.00  -370.9618)  ( 2.00   -45.2845)  ( 2.00    -5.2541)  ( 2.00    -0.3183)
                     ( 0.00     0.0898)
 P :1...4            ( 6.00   -40.1423)  ( 6.00    -3.5865)  ( 1.00    -0.0936)  ( 0.00     0.0454)
 D :1...2            (10.00    -0.7219)  ( 0.00     0.2410)
 F :1...1            ( 0.00     0.6609)

 SCF CONVERGED

 CYCLE   15
1
 ***************************************************************************************************



                                                *******************
                                                *  R E S U L T S  *
                                                *******************
  
 *** Setting up for NEW gradients in Focky
 *** Using FIT density in Focky

 Orbital Energies, per Irrep and Spin:
 ======================================
                        Occup              E (au)              E (eV)       Diff (eV) with prev. cycle
                        -----      --------------------        ------       --------------------------
 S
               1        2.000     -0.37096178536019E+03    -10094.384              -2.42E-08
               2        2.000     -0.45284535524341E+02     -1232.255              -2.42E-08
               3        2.000     -0.52540626455110E+01      -142.970              -2.36E-08
               4        2.000     -0.31830348802684E+00        -8.661              -1.76E-08
               5        0.000      0.89834817489017E-01         2.445
               6        0.000      0.11659187957356E+01        31.726
               7        0.000      0.73188685443459E+01       199.157
               8        0.000      0.48296770023095E+02      1314.222
               9        0.000      0.78279494061447E+03     21300.934
 P
               1        6.000     -0.40142316880531E+02     -1092.328              -2.42E-08
               2        6.000     -0.35864734919548E+01       -97.593              -2.35E-08
               3        1.000     -0.93599031496780E-01        -2.547              -1.39E-08
               4        0.000      0.45445999822064E-01         1.237
               5        0.000      0.52551387746009E+00        14.300
               6        0.000      0.49408507453102E+01       134.447
               7        0.000      0.69147082246549E+02      1881.588
 D
               1       10.000     -0.72186679109040E+00       -19.643              -2.32E-08
               2        0.000      0.24103493895184E+00         6.559
               3        0.000      0.15278577589036E+01        41.575
               4        0.000      0.10049104458031E+02       273.450
 F
               1        0.000      0.66085008620821E+00        17.983


 Partially Occupied:
               3 P                -0.93599031496780E-01
  
 HOMO :        4 S                -0.31830348802684E+00
 LUMO :        4 P                 0.45445999822064E-01
  


 Orbital Energies, all Irreps
 ========================================

 Irrep        no.  (spin)   Occup              E (au)                E (eV)
 ---------------------------------------------------------------------------
 S             1             2.00       -0.37096178536019E+03    -10094.3838
 S             2             2.00       -0.45284535524341E+02     -1232.2549
 P             1             6.00       -0.40142316880531E+02     -1092.3280
 S             3             2.00       -0.52540626455110E+01      -142.9703
 P             2             6.00       -0.35864734919548E+01       -97.5929
 D             1            10.00       -0.72186679109040E+00       -19.6430
 S             4             2.00       -0.31830348802684E+00        -8.6615
 P             3             1.00       -0.93599031496780E-01        -2.5470
 P             4             0.00        0.45445999822064E-01         1.2366
 S             5             0.00        0.89834817489017E-01         2.4445
 D             2             0.00        0.24103493895184E+00         6.5589
 P             5             0.00        0.52551387746009E+00        14.3000
 F             1             0.00        0.66085008620821E+00        17.9826
 S             6             0.00        0.11659187957356E+01        31.7263
 D             3             0.00        0.15278577589036E+01        41.5751
 P             6             0.00        0.49408507453102E+01       134.4474
 S             7             0.00        0.73188685443459E+01       199.1565
 D             4             0.00        0.10049104458031E+02       273.4500
 S             8             0.00        0.48296770023095E+02      1314.2220
 P             7             0.00        0.69147082246549E+02      1881.5878
 S             9             0.00        0.78279494061447E+03     21300.9341


 All Electron Calculation, thus no Orbital Energies of the Core Orbitals are calculated



 =======================================
 M U L L I K E N   P O P U L A T I O N S
 =======================================
  
 The survey below gives for each atom:
 a) the total charge (Z minus electrons)
 b) the net spin polarization (nr of electrons spin-A minus spin-B)
 c) for each spin the atomic electron valence density (integrated) per L-value.

 Atom              Charge    Spin density          S         P         D         F
 ----              ------    ------------       ------    ------    ------    ------
 1 Ga              0.0000                       8.0000   13.0000   10.0000    0.0000

 Populations of individual BAS functions
 ----------------------------------------
 1 Ga           0.4032  1.5340  1.8899 -0.6005  0.7223  0.7223  0.7223  1.2628  1.2628  1.2628
                1.7612  1.0046  1.1852  1.1852  1.1852  0.8330  0.8330  0.8330  0.3431  0.5147
                0.5147  0.3431  0.5147  0.3431  0.7566  1.1349  1.1349  0.7566  1.1349  0.7566
                0.2349  0.3524  0.3524  0.2349  0.3524  0.2349  0.4364  1.2159  0.3553  0.0824
                0.0824  0.0824  0.1968  0.1968  0.1968  0.0509  0.0509  0.0509 -0.0013 -0.0020
               -0.0020 -0.0013 -0.0020 -0.0013  0.0000  0.0000  0.0000  0.0000  0.0000  0.0000
                0.0000  0.0000  0.0000  0.0000

 Gross Charges per Atom (Z minus electrons)
 ==========================================
             0.0000
 Net Total:  0.00000000



 =======================================================================
 Electrostatic potential at the Nuclei due to electrons and other nuclei
 =======================================================================
  
         Atom                  Potential
         ----                  ---------
     1)   Ga                148.62171959
 
 
 ========================
 No memory problems found
 ========================
 
 Maximum number of active allocate calls:         447
 
 *******************************************************************************

                             A D F   E X I T
 NORMAL TERMINATION



 =================
 Timing Statistics
 =================
  
 Total Used :                     CPU=        1.46      System=        0.04     Elapsed=        1.51

 Calls  Section                     ( Mean, Percentage )
 ---------------------------------------------------------------------------------------------------
     3  ><      ................      0.00    0.00             0.00    2.56             0.00    0.05
     1  INIT    ................      0.01    0.89             0.02   48.72             0.04    2.80
     1  GEOMET  ................      0.01    0.75             0.00    5.13             0.01    0.88
     1  INPUTA  ................      0.00    0.14             0.00    2.56             0.00    0.22
     1  MAINSY  ................      0.01    0.41             0.00    5.13             0.01    0.52
     1  SYMFIT  ................      0.00    0.00             0.00    2.56             0.00    0.08
     1  CORORT  ................      0.00    0.07             0.00    0.00             0.00    0.03
     1  SYMORB  ................      0.00    0.07             0.00    0.00             0.00    0.11
     1  CLSMAT  ................      0.01    0.62             0.00    0.00             0.01    0.61
     1  ORTHON  ................      0.00    0.27             0.00    0.00             0.00    0.21
     1  GENPT   ................      0.03    2.40             0.00    0.00             0.04    2.36
     1  PTBAS   ................      0.01    0.48             0.00    0.00             0.01    0.43
    15  FOCKY   ................      0.08   82.36             0.00   25.64             0.08   80.28
    15  FOCKTR  ................      0.00    1.51             0.00    0.00             0.00    1.45
    15  SDIIS   ................      0.00    2.75             0.00    0.00             0.00    2.73
     1  COREPS  ................      0.07    4.60             0.00    0.00             0.07    4.43
     1  POPAN   ................      0.01    0.55             0.00    2.56             0.01    0.61
     1  DEBYE   ................      0.00    0.07             0.00    0.00             0.00    0.09
     1  EXIT PROCEDURE .........      0.03    2.06             0.00    5.13             0.03    2.11


 Currently Open Files (EXIT00)
 ====================

 Unit    Access Format  Status   Type       Ident (file)
 -------------------------------------------------------
   3      SEQ    FORM   TRANSP  NORMAL      LOGFILE
                                          ( logfile )


 Buffered I/O statistics
 =======================
 Memory available:                     67108864
 Number of records fitting in memory:     16131
 Input :   0.1% of                        30912  *4k bytes
 Output:  11.7% of                         1612  *4k bytes
 Records from serial files evicted:           0
                    others evicted:           0
 Hash table lookups:      80347 with          0 conflicts (  0.00%)

 ***************************************************************************************************
 (LOGFILE)
 <May18-2019> <16:00:12>  ADF 2017  RunTime: May18-2019 16:00:12  Nodes: 1  Procs: 1
 <May18-2019> <16:00:12>  Gallium (TZ2P)
 <May18-2019> <16:00:12>  RunType   : CREATE
 <May18-2019> <16:00:12>  Net Charge: 0 (Nuclei minus Electrons)
 <May18-2019> <16:00:12>  Symmetry  : ATOM
  Coordinates
    Atom         X           Y           Z   (Angstrom)
    1.Ga        0.000000    0.000000    0.000000
 <May18-2019> <16:00:12>  >>>> CORORT
 <May18-2019> <16:00:12>  >>>> CLSMAT
 <May18-2019> <16:00:12>  >>>> ORTHON
 <May18-2019> <16:00:12>  >>>> GENPT
 <May18-2019> <16:00:12>  Block Length= 111
 <May18-2019> <16:00:12>  >>>> PTBAS
 <May18-2019> <16:00:12>  >>>> CYCLE
 <May18-2019> <16:00:13>              |Error|         MaxErr       Wt(A-DIIS)
 <May18-2019> <16:00:13>      1      0.00000000      0.00000000
 <May18-2019> <16:00:13>      2    104.96973164     24.13525252    100.0
 <May18-2019> <16:00:13>      3     37.91404750     10.45302877    100.0
 <May18-2019> <16:00:13>      4      7.23165864      1.58748238    100.0
 <May18-2019> <16:00:13>      5     16.16302189      4.07781645    100.0
 <May18-2019> <16:00:13>      6      4.45574774      1.52062529    100.0
 <May18-2019> <16:00:13>      7      5.02305566      1.14001193    100.0
 <May18-2019> <16:00:13>      8      0.36437924      0.08452536     84.4
 <May18-2019> <16:00:13>      9      0.11509987      0.02527126     24.5
 <May18-2019> <16:00:13>     10      0.01977855      0.00481767      3.9
 <May18-2019> <16:00:13>     11      0.00114608      0.00026105      0.0
 <May18-2019> <16:00:13>     12      0.00001205      0.00000530      0.0
 <May18-2019> <16:00:13>     13      0.00000042      0.00000012      0.0
 <May18-2019> <16:00:13>     14      0.00000002      0.00000001      0.0
 <May18-2019> <16:00:13>  SCF converged
 <May18-2019> <16:00:13>     15      0.00000000      0.00000000      0.0
 <May18-2019> <16:00:14>  >>>> POPAN
 <May18-2019> <16:00:14>  >>>> DEBYE
 <May18-2019> <16:00:14>  NORMAL TERMINATION
 <May18-2019> <16:00:14>  END

Create O   file=TZ2P-O
XC
  GGA blyp
End
End Input

 *******************************************************************************
 *                                                                             *
 *  -------------------------------------                                      *
 *   Amsterdam Density Functional  (ADF)         2017                          *
 *  -------------------------------------                                      *
 *                                               r58813 2017-04-12             *
 *                                                                             *
 *                                                                             *
 *                              =================                              *
 *                              |               |                              *
 *                              |     A D F     |                              *
 *                              |               |                              *
 *                              =================                              *
 *                                                                             *
 *                                                                             *
 *   Online information and documentation:  https://www.scm.com/support/       *
 *   E-mail:  support@scm.com   info@scm.com                                   *
 *                                                                             *
 *   Scientific publications using ADF results must be properly referenced     *
 *   See the User Manuals (or the web site) for recommended citations          *
 *   The terms and conditions of the End User License Agreement apply to       *
 *   the use of ADF, https://www.scm.com/license-terms/                        *
 *                                                                             *
 **********************  x86_64_linux_intel / intelmpi  ************************
 
 Licensed to: VU/FEW (+ SARA) / ALGEMEEN / Amsterdam / THE NETHERLANDS
 SCM User ID: u7668
  
 ADF 2017  RunTime: May18-2019 16:00:14  Nodes: 1  Procs: 1

 Temporary files are created in /local/datastore0/tcst25/190690/kid_0.cF64kF

 Oxygen (TZ2P)



 ===========================
 A T T A C H E D   F I L E S
 ===========================
  
 CREATE - Data File:    TZ2P-O
                        Oxygen (TZ2P)



 ===============================
 M O D E L   P A R A M E T E R S
 ===============================
  
 DENSITY FUNCTIONAL POTENTIAL (scf)
    LDA:                               Exchange only                           == Not Default ==
    Gradient Corrections:              Becke88 LYP                             == Not Default ==

 SPIN  (restricted / unrestr.)
    Molecule:                          Restricted                               

 OTHER ASPECTS
    Relativistic Corrections:          ---                                      

    Nuclear Charge Density Model:      Point Charge Nuclei                      
    Core Treatment:                    Frozen Orbital(s)                        

    Hyperfine or Zeeman Interaction:   ---                                      



 =====================================
 S Y M M E T R Y ,   E L E C T R O N S
 =====================================
  
 Symmetry: ATOM

 Irreducible Representations, including subspecies
 -------------------------------------------------
 S
 P:x  P:y  P:z
 D:z2  D:x2-y2  D:xy  D:xz  D:yz
 F:z3  F:z  F:xyz  F:z2x  F:z2y  F:x  F:y


 Configuration of Valence Electrons
 ==================================

          Occupation Numbers
          -------------------------------------------------
 S        2*2
 P        4
 D        0
 F        0
          -------------------------------------------------

 Total:   8

 Net Charge: 0 (Nuclei minus Electrons)

 Preset values for MO occupations will be applied through SCF cycle no. 1000000
 Thereafter, the program will assign electrons to MOs that are spatially
 similar to the occupied MOs in a "reference" cycle ("KeepOrbitals").
 The reference cycle is always the PREVIOUS cycle: it will evolve with
 the SCF procedure.



 ================================
 (Slater-type)  F U N C T I O N S  ***  (Basis and Fit)  ***
 ================================
  

 Atom Type    1  (O)
 ==============

 Valence Basis Sets:  10
 -----------------------
   1 S    9.800000
   1 S    6.800000
   2 S    7.580000
   2 S    2.880000
   2 S    1.720000
   2 P    4.080000
   2 P    2.080000
   2 P    1.120000
   3 D    2.000000
   4 F    3.000000


 BAS: List of all Elementary Cartesian Basis Functions
 =====================================================

 The numbering in the list below (to the right of the function characteristics) is referred
 to in print-outs of MO eigenvectors and Mulliken populations in the BAS representation
 (as contrasted to the SFO representation).

 Notes:
 1. The functions are characterized by a polynomial prefactor (powers of x,y,z and r) and
    an exponential decay factor alpha.
 2. Since the basis sets are specific for an atom TYPE, the individual functions occur on
    all atoms of that type.
 3. The word 'Core' in the left margin signals that it is a Core Function (CF) : not a
    degree of freedom in the valence set, but only used to ensure orthogonalization of
    the other valence basis functions on the frozen Core Orbitals.


 (power of) X  Y  Z  R     Alpha  on Atom
            ==========     =====     ==========

 O                                    1
                                  ---------------------------------------------------------------------------
            0  0  0  0     9.800      1
            0  0  0  0     6.800      2
            0  0  0  1     7.580      3
            0  0  0  1     2.880      4
            0  0  0  1     1.720      5
            1  0  0  0     4.080      6
            0  1  0  0     4.080      7
            0  0  1  0     4.080      8
            1  0  0  0     2.080      9
            0  1  0  0     2.080     10
            0  0  1  0     2.080     11
            1  0  0  0     1.120     12
            0  1  0  0     1.120     13
            0  0  1  0     1.120     14
            2  0  0  0     2.000     15
            1  1  0  0     2.000     16
            1  0  1  0     2.000     17
            0  2  0  0     2.000     18
            0  1  1  0     2.000     19
            0  0  2  0     2.000     20
            3  0  0  0     3.000     21
            2  1  0  0     3.000     22
            2  0  1  0     3.000     23
            1  2  0  0     3.000     24
            1  1  1  0     3.000     25
            1  0  2  0     3.000     26
            0  3  0  0     3.000     27
            0  2  1  0     3.000     28
            0  1  2  0     3.000     29
            0  0  3  0     3.000     30

 Total number of charge fitting functions (nprimf)        84
 Total number of Cartesian basis functions (naos)         30
 Total number of Cartesian core functions  (ncos)          0



 BAS: List of all Elementary Cartesian Basis Functions
 =====================================================

 The numbering in the list below (to the right of the function characteristics) is referred
 to in print-outs of MO eigenvectors and Mulliken populations in the BAS representation
 (as contrasted to the SFO representation).

 Notes:
 1. The functions are characterized by a polynomial prefactor (powers of x,y,z and r) and
    an exponential decay factor alpha.
 2. Since the basis sets are specific for an atom TYPE, the individual functions occur on
    all atoms of that type.
 3. The word 'Core' in the left margin signals that it is a Core Function (CF) : not a
    degree of freedom in the valence set, but only used to ensure orthogonalization of
    the other valence basis functions on the frozen Core Orbitals.


 (power of) X  Y  Z  R     Alpha  on Atom
            ==========     =====     ==========

 O                                    1
                                  ---------------------------------------------------------------------------
            0  0  0  0     9.800      1
            0  0  0  0     6.800      2
            0  0  0  1     7.580      3
            0  0  0  1     2.880      4
            0  0  0  1     1.720      5
            1  0  0  0     4.080      6
            0  1  0  0     4.080      7
            0  0  1  0     4.080      8
            1  0  0  0     2.080      9
            0  1  0  0     2.080     10
            0  0  1  0     2.080     11
            1  0  0  0     1.120     12
            0  1  0  0     1.120     13
            0  0  1  0     1.120     14
            2  0  0  0     2.000     15
            1  1  0  0     2.000     16
            1  0  1  0     2.000     17
            0  2  0  0     2.000     18
            0  1  1  0     2.000     19
            0  0  2  0     2.000     20
            3  0  0  0     3.000     21
            2  1  0  0     3.000     22
            2  0  1  0     3.000     23
            1  2  0  0     3.000     24
            1  1  1  0     3.000     25
            1  0  2  0     3.000     26
            0  3  0  0     3.000     27
            0  2  1  0     3.000     28
            0  1  2  0     3.000     29
            0  0  3  0     3.000     30
1
 ***************************************************************************************************



                                              ***********************
                                              *  T E C H N I C A L  *
                                              ***********************
  



 =============================================================
 P A R A L L E L I Z A T I O N  and  V E C T O R I Z A T I O N
 =============================================================
  
 Nr of parallel processes:                                1
 Maximum vector length in NumInt loops:                 128

 IO buffersize (Mb):                                     64.000000



 =====================
 S C F   U P D A T E S
 =====================
  
 Max. nr. of cycles:                               300
 Convergence criterion:                              0.0000000100
   secondary criterion:                              0.0000000100

 Mix parameter (when DIIS does not apply):           0.2000000000
 Special mix parameter for the first cycle:          1.0000000000
 Mixed ADIIS+DIIS will be used
    Max number of expansion vectors:                10
    Pure ADIIS when Max([F,P]) is above              0.1000000000
    Pure DIIS when Max([F,P]) is below               0.0010000000
 Automatic ElectronSmearing (in case of problematic SCF convergence) disabled



 =================
 P R E C I S I O N  ***  (General: NumInt, NeglectFunctionTails, ...)  ***
 =================
  

 NumInt:           Target precision:                12.0000000000
 -------           Initial precision:               10.0000000000
                   Min. precision (optimization):   10.0000000000

 Neglect Functions:          Basis functions:        0.1000000000E-13
 ------------------          Fit functions:          0.1000000000E-13



 ===========================
 L I N E A R   S C A L I N G
 ===========================
  

 Cut-off radii density fit:                        0.1000000000E-97
 Overlap cut-off criterion AO matrix elements:     0.1000000000E-97
 Cut-offs for Coulomb potential and fitted density:0.1000000000E-97
 Cut-off criterion for Coulomb multipole terms:    0.1000000000E-97
 Progressive Convergence parameter:                 0.000000000    
1
 ***************************************************************************************************



                                            ***************************
                                            *  C O M P U T A T I O N  *
                                            ***************************
  

 Number of elements of the density matrix on this node (used, total):       465       465



 ===========================================
 Numerical Integration : Fuzzy Cells (Becke)
 ===========================================
  
 Becke grid quality: VERYGOOD       
  
 Lebedev angular grid order:             min:  13 max:  41
 Nr. of radial points:                   min:  68 max:  68

 Total nr. of points:         68
 Nr. of blocks:                1
 Block length:                68
 Nr. of dummy points:          0


 Test of Precision of the Numerical Integration Grid
 ===================================================

 Integral of the Total Core Density:                   0.00000000000000



 ========================
 Density Fitting (zlmFit)
 ========================
  
 ZlmFit Fit Quality: VERYGOOD       
  
 Max L-expansion:                        min:   0 max:   0
 Nr. of radial interpolation points:     min: 180 max: 180



 =====
 S C F  ***  ScaSCF  ***
 =====
  

 CYCLE    1
 SCF Error: norm([F,P])=      0.000000000000, max([F,P])=      0.000000000000
 orbitals (Q,E):
 ---------------
 S :1...5            ( 2.00   -31.9999)  ( 2.00    -7.9363)  ( 0.00    -3.4636)  ( 0.00     4.3191)
                     ( 0.00   110.5486)
 P :1...3            ( 4.00    -7.9991)  ( 0.00    -3.4855)  ( 0.00    -1.8903)
 D :1...1            ( 0.00    -3.3333)
 F :1...1            ( 0.00    -1.5000)

 CYCLE    2
  SDIIS (wt  0.000):  1.0000 -0.0000
 A-DIIS (wt  1.000):  0.0000  1.0000
  DIIS coefficients:  0.0000  1.0000
 SCF Error: norm([F,P])=      8.765745414074, max([F,P])=      5.518031311555
 orbitals (Q,E):
 ---------------
 S :1...3            ( 2.00   -14.5579)  ( 2.00    -0.0124)  ( 0.00     1.8192)
 P :1...2            ( 4.00     0.2183)  ( 0.00     1.2385)
 D :1...1            ( 0.00     1.5388)
 F :1...1            ( 0.00     3.9464)

 CYCLE    3
  SDIIS (wt  0.000):  0.2278  0.7722
 A-DIIS (wt  1.000):  0.3148  0.6852
  DIIS coefficients:  0.3148  0.6852
 SCF Error: norm([F,P])=      3.585499450444, max([F,P])=      2.499410108106
 orbitals (Q,E):
 ---------------
 S :1...3            ( 2.00   -19.8063)  ( 2.00    -1.5198)  ( 0.00     0.3996)
 P :1...2            ( 4.00    -0.9763)  ( 0.00     0.1325)
 D :1...1            ( 0.00     0.6540)
 F :1...1            ( 0.00     2.8642)

 CYCLE    4
  SDIIS (wt  0.000): -0.0456  0.1707  0.8749
 A-DIIS (wt  1.000):  0.0000  0.0000  1.0000
  DIIS coefficients:  0.0000  0.0000  1.0000
 SCF Error: norm([F,P])=      1.147919112368, max([F,P])=      0.583019620058
 orbitals (Q,E):
 ---------------
 S :1...3            ( 2.00   -18.0523)  ( 2.00    -0.5465)  ( 0.00     1.0349)
 P :1...2            ( 4.00    -0.0477)  ( 0.00     0.5307)
 D :1...1            ( 0.00     1.2443)
 F :1...1            ( 0.00     3.5731)

 CYCLE    5
  SDIIS (wt  0.000): -0.0195 -0.0760  0.5845  0.5110
 A-DIIS (wt  1.000):  0.0000  0.0000  0.6414  0.3586
  DIIS coefficients:  0.0000  0.0000  0.6414  0.3586
 SCF Error: norm([F,P])=      1.519585468023, max([F,P])=      0.840542006159
 orbitals (Q,E):
 ---------------
 S :1...3            ( 2.00   -18.8182)  ( 2.00    -0.8502)  ( 0.00     0.8091)
 P :1...2            ( 4.00    -0.3077)  ( 0.00     0.3582)
 D :1...1            ( 0.00     1.0753)
 F :1...1            ( 0.00     3.3669)

 CYCLE    6
  SDIIS (wt  0.000):  0.0038 -0.0006  0.0668 -0.0496  0.9795
 A-DIIS (wt  1.000):  0.0000  0.0000  0.0000  0.0000  1.0000
  DIIS coefficients:  0.0000  0.0000  0.0000  0.0000  1.0000
 SCF Error: norm([F,P])=      0.178828926625, max([F,P])=      0.104242033505
 orbitals (Q,E):
 ---------------
 S :1...3            ( 2.00   -19.0541)  ( 2.00    -0.9245)  ( 0.00     0.7610)
 P :1...2            ( 4.00    -0.3806)  ( 0.00     0.3267)
 D :1...1            ( 0.00     1.0451)
 F :1...1            ( 0.00     3.3284)

 CYCLE    7
  SDIIS (wt  0.000): -0.0003  0.0004 -0.0182  0.0130  0.4190  0.5861
 A-DIIS (wt  1.000):  0.0000  0.0000  0.0000  0.0000  0.5807  0.4193
  DIIS coefficients:  0.0000  0.0000  0.0000  0.0000  0.5807  0.4193
 SCF Error: norm([F,P])=      0.200125290981, max([F,P])=      0.113649127569
 orbitals (Q,E):
 ---------------
 S :1...3            ( 2.00   -18.9379)  ( 2.00    -0.8781)  ( 0.00     0.7909)
 P :1...2            ( 4.00    -0.3354)  ( 0.00     0.3452)
 D :1...1            ( 0.00     1.0687)
 F :1...1            ( 0.00     3.3572)

 CYCLE    8
  SDIIS (wt  0.910): -0.0000  0.0002  0.0044 -0.0011 -0.0192 -0.1454  1.1612
 A-DIIS (wt  0.090):  0.0000  0.0000  0.0000  0.0000  0.0000  0.0000  1.0000
  DIIS coefficients: -0.0000  0.0002  0.0040 -0.0010 -0.0175 -0.1323  1.1466
 SCF Error: norm([F,P])=      0.016951777154, max([F,P])=      0.009947196225
 orbitals (Q,E):
 ---------------
 S :1...3            ( 2.00   -18.9255)  ( 2.00    -0.8739)  ( 0.00     0.7936)
 P :1...2            ( 4.00    -0.3314)  ( 0.00     0.3469)
 D :1...1            ( 0.00     1.0707)
 F :1...1            ( 0.00     3.3597)

 CYCLE    9
  SDIIS (wt  1.000): -0.0000  0.0000  0.0000 -0.0001  0.0003  0.0067  0.0145  0.9786
  DIIS coefficients: -0.0000  0.0000  0.0000 -0.0001  0.0003  0.0067  0.0145  0.9786
 SCF Error: norm([F,P])=      0.001748429775, max([F,P])=      0.000984374869
 orbitals (Q,E):
 ---------------
 S :1...3            ( 2.00   -18.9266)  ( 2.00    -0.8743)  ( 0.00     0.7933)
 P :1...2            ( 4.00    -0.3318)  ( 0.00     0.3467)
 D :1...1            ( 0.00     1.0705)
 F :1...1            ( 0.00     3.3595)

 CYCLE   10
  SDIIS (wt  1.000): -0.0000 -0.0000 -0.0000 -0.0000  0.0000  0.0001 -0.0011 -0.0034  1.0043
  DIIS coefficients: -0.0000 -0.0000 -0.0000 -0.0000  0.0000  0.0001 -0.0011 -0.0034  1.0043
 SCF Error: norm([F,P])=      0.000001425696, max([F,P])=      0.000000713883
 orbitals (Q,E):
 ---------------
 S :1...3            ( 2.00   -18.9266)  ( 2.00    -0.8743)  ( 0.00     0.7933)
 P :1...2            ( 4.00    -0.3318)  ( 0.00     0.3467)
 D :1...1            ( 0.00     1.0705)
 F :1...1            ( 0.00     3.3595)

 CYCLE   11
  SDIIS (wt  1.000):  0.0000 -0.0000 -0.0000 -0.0001 -0.0046  1.0047
  DIIS coefficients:  0.0000 -0.0000 -0.0000 -0.0001 -0.0046  1.0047
 SCF Error: norm([F,P])=      0.000000048706, max([F,P])=      0.000000022971
 orbitals (Q,E):
 ---------------
 S :1...3            ( 2.00   -18.9266)  ( 2.00    -0.8743)  ( 0.00     0.7933)
 P :1...2            ( 4.00    -0.3318)  ( 0.00     0.3467)
 D :1...1            ( 0.00     1.0705)
 F :1...1            ( 0.00     3.3595)

 CYCLE   12
  SDIIS (wt  1.000):  0.0000  0.0003  0.0049  0.9947
  DIIS coefficients:  0.0000  0.0003  0.0049  0.9947
 SCF Error: norm([F,P])=      0.000000002392, max([F,P])=      0.000000001168
 orbitals (Q,E):
 ---------------
 S :1...3            ( 2.00   -18.9266)  ( 2.00    -0.8743)  ( 0.00     0.7933)
 P :1...2            ( 4.00    -0.3318)  ( 0.00     0.3467)
 D :1...1            ( 0.00     1.0705)
 F :1...1            ( 0.00     3.3595)

 SCF CONVERGED

 CYCLE   13
1
 ***************************************************************************************************



                                                *******************
                                                *  R E S U L T S  *
                                                *******************
  
 *** Setting up for NEW gradients in Focky
 *** Using FIT density in Focky

 Orbital Energies, per Irrep and Spin:
 ======================================
                        Occup              E (au)              E (eV)       Diff (eV) with prev. cycle
                        -----      --------------------        ------       --------------------------
 S
               1        2.000     -0.18926622910087E+02      -515.020               5.76E-10
               2        2.000     -0.87432318445324E+00       -23.792               3.90E-10
               3        0.000      0.79334608634537E+00        21.588
               4        0.000      0.13459763470969E+02       366.259
               5        0.000      0.12310776301329E+03      3349.933
 P
               1        4.000     -0.33177161342558E+00        -9.028               3.71E-10
               2        0.000      0.34673871865826E+00         9.435
               3        0.000      0.38246989192600E+01       104.075
 D
               1        0.000      0.10704889823391E+01        29.129
 F
               1        0.000      0.33594552407685E+01        91.415


 Partially Occupied:
               1 P                -0.33177161342558E+00
  
 HOMO :        2 S                -0.87432318445324E+00
 LUMO :        2 P                 0.34673871865826E+00
  


 Orbital Energies, all Irreps
 ========================================

 Irrep        no.  (spin)   Occup              E (au)                E (eV)
 ---------------------------------------------------------------------------
 S             1             2.00       -0.18926622910087E+02      -515.0196
 S             2             2.00       -0.87432318445324E+00       -23.7915
 P             1             4.00       -0.33177161342558E+00        -9.0280
 P             2             0.00        0.34673871865826E+00         9.4352
 S             3             0.00        0.79334608634537E+00        21.5880
 D             1             0.00        0.10704889823391E+01        29.1295
 F             1             0.00        0.33594552407685E+01        91.4154
 P             3             0.00        0.38246989192600E+01       104.0754
 S             4             0.00        0.13459763470969E+02       366.2588
 S             5             0.00        0.12310776301329E+03      3349.9327


 All Electron Calculation, thus no Orbital Energies of the Core Orbitals are calculated



 =======================================
 M U L L I K E N   P O P U L A T I O N S
 =======================================
  
 The survey below gives for each atom:
 a) the total charge (Z minus electrons)
 b) the net spin polarization (nr of electrons spin-A minus spin-B)
 c) for each spin the atomic electron valence density (integrated) per L-value.

 Atom              Charge    Spin density          S         P         D         F
 ----              ------    ------------       ------    ------    ------    ------
 1 O              -0.0000                       4.0000    4.0000    0.0000    0.0000

 Populations of individual BAS functions
 ----------------------------------------
 1 O            0.6447  1.3214  0.0008  1.1425  0.8905  0.2537  0.2537  0.2537  0.7364  0.7364
                0.7364  0.3432  0.3432  0.3432  0.0000  0.0000  0.0000  0.0000  0.0000  0.0000
                0.0000  0.0000  0.0000  0.0000  0.0000  0.0000  0.0000  0.0000  0.0000  0.0000

 Gross Charges per Atom (Z minus electrons)
 ==========================================
            -0.0000
 Net Total: -0.00000000



 =======================================================================
 Electrostatic potential at the Nuclei due to electrons and other nuclei
 =======================================================================
  
         Atom                  Potential
         ----                  ---------
     1)   O                  22.23872615
 
 
 ========================
 No memory problems found
 ========================
 
 Maximum number of active allocate calls:         447
 
 *******************************************************************************

                             A D F   E X I T
 NORMAL TERMINATION



 =================
 Timing Statistics
 =================
  
 Total Used :                     CPU=        0.79      System=        0.03     Elapsed=        0.83

 Calls  Section                     ( Mean, Percentage )
 ---------------------------------------------------------------------------------------------------
     3  ><      ................      0.00    0.00             0.00    3.03             0.00    0.10
     1  INIT    ................      0.01    1.89             0.02   54.55             0.04    4.25
     1  GEOMET  ................      0.01    1.13             0.00   12.12             0.01    1.57
     1  INPUTA  ................      0.00    0.25             0.00    3.03             0.00    0.37
     1  MAINSY  ................      0.01    0.88             0.00    3.03             0.01    0.96
     1  SYMFIT  ................      0.00    0.13             0.00    0.00             0.00    0.15
     1  CORORT  ................      0.00    0.00             0.00    0.00             0.00    0.05
     1  SYMORB  ................      0.00    0.25             0.00    0.00             0.00    0.19
     1  CLSMAT  ................      0.01    1.13             0.00    0.00             0.01    1.10
     1  ORTHON  ................      0.00    0.25             0.00    3.03             0.00    0.35
     1  GENPT   ................      0.02    2.64             0.00    0.00             0.02    2.54
     1  PTBAS   ................      0.01    0.76             0.00    0.00             0.01    0.74
    13  FOCKY   ................      0.05   74.68             0.00    6.06             0.05   72.14
    13  FOCKTR  ................      0.00    2.64             0.00    0.00             0.00    2.19
    13  SDIIS   ................      0.00    4.16             0.00    6.06             0.00    4.25
     1  COREPS  ................      0.03    4.41             0.00    6.06             0.04    4.37
     1  POPAN   ................      0.01    1.13             0.00    0.00             0.01    1.10
     1  DEBYE   ................      0.00    0.13             0.00    0.00             0.00    0.11
     1  EXIT PROCEDURE .........      0.03    3.53             0.00    3.03             0.03    3.48


 Currently Open Files (EXIT00)
 ====================

 Unit    Access Format  Status   Type       Ident (file)
 -------------------------------------------------------
   3      SEQ    FORM   TRANSP  NORMAL      LOGFILE
                                          ( logfile )


 Buffered I/O statistics
 =======================
 Memory available:                     67108864
 Number of records fitting in memory:     16131
 Input :   0.1% of                        27833  *4k bytes
 Output:  13.5% of                         1390  *4k bytes
 Records from serial files evicted:           0
                    others evicted:           0
 Hash table lookups:      71898 with          0 conflicts (  0.00%)

 ***************************************************************************************************
 (LOGFILE)
 <May18-2019> <16:00:12>  ADF 2017  RunTime: May18-2019 16:00:12  Nodes: 1  Procs: 1
 <May18-2019> <16:00:12>  Gallium (TZ2P)
 <May18-2019> <16:00:12>  RunType   : CREATE
 <May18-2019> <16:00:12>  Net Charge: 0 (Nuclei minus Electrons)
 <May18-2019> <16:00:12>  Symmetry  : ATOM
  Coordinates
    Atom         X           Y           Z   (Angstrom)
    1.Ga        0.000000    0.000000    0.000000
 <May18-2019> <16:00:12>  >>>> CORORT
 <May18-2019> <16:00:12>  >>>> CLSMAT
 <May18-2019> <16:00:12>  >>>> ORTHON
 <May18-2019> <16:00:12>  >>>> GENPT
 <May18-2019> <16:00:12>  Block Length= 111
 <May18-2019> <16:00:12>  >>>> PTBAS
 <May18-2019> <16:00:12>  >>>> CYCLE
 <May18-2019> <16:00:13>              |Error|         MaxErr       Wt(A-DIIS)
 <May18-2019> <16:00:13>      1      0.00000000      0.00000000
 <May18-2019> <16:00:13>      2    104.96973164     24.13525252    100.0
 <May18-2019> <16:00:13>      3     37.91404750     10.45302877    100.0
 <May18-2019> <16:00:13>      4      7.23165864      1.58748238    100.0
 <May18-2019> <16:00:13>      5     16.16302189      4.07781645    100.0
 <May18-2019> <16:00:13>      6      4.45574774      1.52062529    100.0
 <May18-2019> <16:00:13>      7      5.02305566      1.14001193    100.0
 <May18-2019> <16:00:13>      8      0.36437924      0.08452536     84.4
 <May18-2019> <16:00:13>      9      0.11509987      0.02527126     24.5
 <May18-2019> <16:00:13>     10      0.01977855      0.00481767      3.9
 <May18-2019> <16:00:13>     11      0.00114608      0.00026105      0.0
 <May18-2019> <16:00:13>     12      0.00001205      0.00000530      0.0
 <May18-2019> <16:00:13>     13      0.00000042      0.00000012      0.0
 <May18-2019> <16:00:13>     14      0.00000002      0.00000001      0.0
 <May18-2019> <16:00:13>  SCF converged
 <May18-2019> <16:00:13>     15      0.00000000      0.00000000      0.0
 <May18-2019> <16:00:14>  >>>> POPAN
 <May18-2019> <16:00:14>  >>>> DEBYE
 <May18-2019> <16:00:14>  NORMAL TERMINATION
 <May18-2019> <16:00:14>  END
 <May18-2019> <16:00:14>  ADF 2017  RunTime: May18-2019 16:00:14  Nodes: 1  Procs: 1
 <May18-2019> <16:00:14>  Oxygen (TZ2P)
 <May18-2019> <16:00:14>  RunType   : CREATE
 <May18-2019> <16:00:14>  Net Charge: 0 (Nuclei minus Electrons)
 <May18-2019> <16:00:14>  Symmetry  : ATOM
  Coordinates
    Atom         X           Y           Z   (Angstrom)
    1.O         0.000000    0.000000    0.000000
 <May18-2019> <16:00:14>  >>>> CORORT
 <May18-2019> <16:00:14>  >>>> CLSMAT
 <May18-2019> <16:00:14>  >>>> ORTHON
 <May18-2019> <16:00:14>  >>>> GENPT
 <May18-2019> <16:00:14>  Block Length=  68
 <May18-2019> <16:00:14>  >>>> PTBAS
 <May18-2019> <16:00:14>  >>>> CYCLE
 <May18-2019> <16:00:14>              |Error|         MaxErr       Wt(A-DIIS)
 <May18-2019> <16:00:14>      1      0.00000000      0.00000000
 <May18-2019> <16:00:14>      2      8.76574541      5.51803131    100.0
 <May18-2019> <16:00:14>      3      3.58549945      2.49941011    100.0
 <May18-2019> <16:00:14>      4      1.14791911      0.58301962    100.0
 <May18-2019> <16:00:14>      5      1.51958547      0.84054201    100.0
 <May18-2019> <16:00:14>      6      0.17882893      0.10424203    100.0
 <May18-2019> <16:00:14>      7      0.20012529      0.11364913    100.0
 <May18-2019> <16:00:14>      8      0.01695178      0.00994720      9.0
 <May18-2019> <16:00:14>      9      0.00174843      0.00098437      0.0
 <May18-2019> <16:00:14>     10      0.00000143      0.00000071      0.0
 <May18-2019> <16:00:14>     11      0.00000005      0.00000002      0.0
 <May18-2019> <16:00:14>     12      0.00000000      0.00000000      0.0
 <May18-2019> <16:00:14>  SCF converged
 <May18-2019> <16:00:14>     13      0.00000000      0.00000000      0.0
 <May18-2019> <16:00:14>  >>>> POPAN
 <May18-2019> <16:00:14>  >>>> DEBYE
 <May18-2019> <16:00:15>  NORMAL TERMINATION
 <May18-2019> <16:00:15>  END

Create C   file=TZ2P-C
XC
  GGA blyp
End
End Input

 *******************************************************************************
 *                                                                             *
 *  -------------------------------------                                      *
 *   Amsterdam Density Functional  (ADF)         2017                          *
 *  -------------------------------------                                      *
 *                                               r58813 2017-04-12             *
 *                                                                             *
 *                                                                             *
 *                              =================                              *
 *                              |               |                              *
 *                              |     A D F     |                              *
 *                              |               |                              *
 *                              =================                              *
 *                                                                             *
 *                                                                             *
 *   Online information and documentation:  https://www.scm.com/support/       *
 *   E-mail:  support@scm.com   info@scm.com                                   *
 *                                                                             *
 *   Scientific publications using ADF results must be properly referenced     *
 *   See the User Manuals (or the web site) for recommended citations          *
 *   The terms and conditions of the End User License Agreement apply to       *
 *   the use of ADF, https://www.scm.com/license-terms/                        *
 *                                                                             *
 **********************  x86_64_linux_intel / intelmpi  ************************
 
 Licensed to: VU/FEW (+ SARA) / ALGEMEEN / Amsterdam / THE NETHERLANDS
 SCM User ID: u7668
  
 ADF 2017  RunTime: May18-2019 16:00:15  Nodes: 1  Procs: 1

 Temporary files are created in /local/datastore0/tcst25/190690/kid_0.LbPDWD

 Carbon (TZ2P)



 ===========================
 A T T A C H E D   F I L E S
 ===========================
  
 CREATE - Data File:    TZ2P-C
                        Carbon (TZ2P)



 ===============================
 M O D E L   P A R A M E T E R S
 ===============================
  
 DENSITY FUNCTIONAL POTENTIAL (scf)
    LDA:                               Exchange only                           == Not Default ==
    Gradient Corrections:              Becke88 LYP                             == Not Default ==

 SPIN  (restricted / unrestr.)
    Molecule:                          Restricted                               

 OTHER ASPECTS
    Relativistic Corrections:          ---                                      

    Nuclear Charge Density Model:      Point Charge Nuclei                      
    Core Treatment:                    Frozen Orbital(s)                        

    Hyperfine or Zeeman Interaction:   ---                                      



 =====================================
 S Y M M E T R Y ,   E L E C T R O N S
 =====================================
  
 Symmetry: ATOM

 Irreducible Representations, including subspecies
 -------------------------------------------------
 S
 P:x  P:y  P:z
 D:z2  D:x2-y2  D:xy  D:xz  D:yz
 F:z3  F:z  F:xyz  F:z2x  F:z2y  F:x  F:y


 Configuration of Valence Electrons
 ==================================

          Occupation Numbers
          -------------------------------------------------
 S        2*2
 P        2
 D        0
 F        0
          -------------------------------------------------

 Total:   6

 Net Charge: 0 (Nuclei minus Electrons)

 Preset values for MO occupations will be applied through SCF cycle no. 1000000
 Thereafter, the program will assign electrons to MOs that are spatially
 similar to the occupied MOs in a "reference" cycle ("KeepOrbitals").
 The reference cycle is always the PREVIOUS cycle: it will evolve with
 the SCF procedure.



 ================================
 (Slater-type)  F U N C T I O N S  ***  (Basis and Fit)  ***
 ================================
  

 Atom Type    1  (C)
 ==============

 Valence Basis Sets:  10
 -----------------------
   1 S    7.680000
   1 S    5.000000
   2 S    1.280000
   2 S    2.100000
   2 S    4.600000
   2 P    0.820000
   2 P    1.480000
   2 P    2.940000
   3 D    2.200000
   4 F    3.300000


 BAS: List of all Elementary Cartesian Basis Functions
 =====================================================

 The numbering in the list below (to the right of the function characteristics) is referred
 to in print-outs of MO eigenvectors and Mulliken populations in the BAS representation
 (as contrasted to the SFO representation).

 Notes:
 1. The functions are characterized by a polynomial prefactor (powers of x,y,z and r) and
    an exponential decay factor alpha.
 2. Since the basis sets are specific for an atom TYPE, the individual functions occur on
    all atoms of that type.
 3. The word 'Core' in the left margin signals that it is a Core Function (CF) : not a
    degree of freedom in the valence set, but only used to ensure orthogonalization of
    the other valence basis functions on the frozen Core Orbitals.


 (power of) X  Y  Z  R     Alpha  on Atom
            ==========     =====     ==========

 C                                    1
                                  ---------------------------------------------------------------------------
            0  0  0  0     7.680      1
            0  0  0  0     5.000      2
            0  0  0  1     1.280      3
            0  0  0  1     2.100      4
            0  0  0  1     4.600      5
            1  0  0  0     0.820      6
            0  1  0  0     0.820      7
            0  0  1  0     0.820      8
            1  0  0  0     1.480      9
            0  1  0  0     1.480     10
            0  0  1  0     1.480     11
            1  0  0  0     2.940     12
            0  1  0  0     2.940     13
            0  0  1  0     2.940     14
            2  0  0  0     2.200     15
            1  1  0  0     2.200     16
            1  0  1  0     2.200     17
            0  2  0  0     2.200     18
            0  1  1  0     2.200     19
            0  0  2  0     2.200     20
            3  0  0  0     3.300     21
            2  1  0  0     3.300     22
            2  0  1  0     3.300     23
            1  2  0  0     3.300     24
            1  1  1  0     3.300     25
            1  0  2  0     3.300     26
            0  3  0  0     3.300     27
            0  2  1  0     3.300     28
            0  1  2  0     3.300     29
            0  0  3  0     3.300     30

 Total number of charge fitting functions (nprimf)        84
 Total number of Cartesian basis functions (naos)         30
 Total number of Cartesian core functions  (ncos)          0



 BAS: List of all Elementary Cartesian Basis Functions
 =====================================================

 The numbering in the list below (to the right of the function characteristics) is referred
 to in print-outs of MO eigenvectors and Mulliken populations in the BAS representation
 (as contrasted to the SFO representation).

 Notes:
 1. The functions are characterized by a polynomial prefactor (powers of x,y,z and r) and
    an exponential decay factor alpha.
 2. Since the basis sets are specific for an atom TYPE, the individual functions occur on
    all atoms of that type.
 3. The word 'Core' in the left margin signals that it is a Core Function (CF) : not a
    degree of freedom in the valence set, but only used to ensure orthogonalization of
    the other valence basis functions on the frozen Core Orbitals.


 (power of) X  Y  Z  R     Alpha  on Atom
            ==========     =====     ==========

 C                                    1
                                  ---------------------------------------------------------------------------
            0  0  0  0     7.680      1
            0  0  0  0     5.000      2
            0  0  0  1     1.280      3
            0  0  0  1     2.100      4
            0  0  0  1     4.600      5
            1  0  0  0     0.820      6
            0  1  0  0     0.820      7
            0  0  1  0     0.820      8
            1  0  0  0     1.480      9
            0  1  0  0     1.480     10
            0  0  1  0     1.480     11
            1  0  0  0     2.940     12
            0  1  0  0     2.940     13
            0  0  1  0     2.940     14
            2  0  0  0     2.200     15
            1  1  0  0     2.200     16
            1  0  1  0     2.200     17
            0  2  0  0     2.200     18
            0  1  1  0     2.200     19
            0  0  2  0     2.200     20
            3  0  0  0     3.300     21
            2  1  0  0     3.300     22
            2  0  1  0     3.300     23
            1  2  0  0     3.300     24
            1  1  1  0     3.300     25
            1  0  2  0     3.300     26
            0  3  0  0     3.300     27
            0  2  1  0     3.300     28
            0  1  2  0     3.300     29
            0  0  3  0     3.300     30
1
 ***************************************************************************************************



                                              ***********************
                                              *  T E C H N I C A L  *
                                              ***********************
  



 =============================================================
 P A R A L L E L I Z A T I O N  and  V E C T O R I Z A T I O N
 =============================================================
  
 Nr of parallel processes:                                1
 Maximum vector length in NumInt loops:                 128

 IO buffersize (Mb):                                     64.000000



 =====================
 S C F   U P D A T E S
 =====================
  
 Max. nr. of cycles:                               300
 Convergence criterion:                              0.0000000100
   secondary criterion:                              0.0000000100

 Mix parameter (when DIIS does not apply):           0.2000000000
 Special mix parameter for the first cycle:          1.0000000000
 Mixed ADIIS+DIIS will be used
    Max number of expansion vectors:                10
    Pure ADIIS when Max([F,P]) is above              0.1000000000
    Pure DIIS when Max([F,P]) is below               0.0010000000
 Automatic ElectronSmearing (in case of problematic SCF convergence) disabled



 =================
 P R E C I S I O N  ***  (General: NumInt, NeglectFunctionTails, ...)  ***
 =================
  

 NumInt:           Target precision:                12.0000000000
 -------           Initial precision:               10.0000000000
                   Min. precision (optimization):   10.0000000000

 Neglect Functions:          Basis functions:        0.1000000000E-13
 ------------------          Fit functions:          0.1000000000E-13



 ===========================
 L I N E A R   S C A L I N G
 ===========================
  

 Cut-off radii density fit:                        0.1000000000E-97
 Overlap cut-off criterion AO matrix elements:     0.1000000000E-97
 Cut-offs for Coulomb potential and fitted density:0.1000000000E-97
 Cut-off criterion for Coulomb multipole terms:    0.1000000000E-97
 Progressive Convergence parameter:                 0.000000000    
1
 ***************************************************************************************************



                                            ***************************
                                            *  C O M P U T A T I O N  *
                                            ***************************
  

 Number of elements of the density matrix on this node (used, total):       465       465



 ===========================================
 Numerical Integration : Fuzzy Cells (Becke)
 ===========================================
  
 Becke grid quality: VERYGOOD       
  
 Lebedev angular grid order:             min:  13 max:  41
 Nr. of radial points:                   min:  72 max:  72

 Total nr. of points:         72
 Nr. of blocks:                1
 Block length:                72
 Nr. of dummy points:          0


 Test of Precision of the Numerical Integration Grid
 ===================================================

 Integral of the Total Core Density:                   0.00000000000000



 ========================
 Density Fitting (zlmFit)
 ========================
  
 ZlmFit Fit Quality: VERYGOOD       
  
 Max L-expansion:                        min:   0 max:   0
 Nr. of radial interpolation points:     min: 160 max: 160



 =====
 S C F  ***  ScaSCF  ***
 =====
  

 CYCLE    1
 SCF Error: norm([F,P])=      0.000000000000, max([F,P])=      0.000000000000
[...]
   13.O        -3.165370    0.000000    0.000000
 <May18-2019> <16:00:43>  >>>> CORORT
 <May18-2019> <16:00:43>  >>>> CLSMAT
 <May18-2019> <16:00:43>  >>>> ORTHON
 <May18-2019> <16:00:43>  >>>> GENPT
 <May18-2019> <16:00:43>  Block Length= 126
 <May18-2019> <16:00:43>  >>>> PTBAS
 <May18-2019> <16:00:44>  >>>> CYCLE
 <May18-2019> <16:00:46>              |Error|         MaxErr       Wt(A-DIIS)
 <May18-2019> <16:00:46>      1      0.72025679      0.25356062
 <May18-2019> <16:00:47>      2      0.11187211      0.01336805    100.0
 <May18-2019> <16:00:48>      3      0.03716069      0.00596936    100.0
 <May18-2019> <16:00:50>      4      0.03663855      0.00657597      5.6
 <May18-2019> <16:00:51>      5      0.00479873      0.00105823      0.1
 <May18-2019> <16:00:53>      6      0.00252131      0.00060114      0.0
 <May18-2019> <16:00:54>      7      0.00027363      0.00005577      0.0
 <May18-2019> <16:00:55>      8      0.00001965      0.00000433      0.0
 <May18-2019> <16:00:57>      9      0.00000590      0.00000075      0.0
 <May18-2019> <16:00:57>  SCF converged
 <May18-2019> <16:00:58>     10      0.00000044      0.00000006      0.0
 <May18-2019> <16:00:58>  >>>> TOTEN
 <May18-2019> <16:01:01>  >>>> POPAN
 <May18-2019> <16:01:01>  >>>> DEBYE
 <May18-2019> <16:01:01>  >>>> ENGRAD
 <May18-2019> <16:01:06>  current energy                               -1.89919074 Hartree
 <May18-2019> <16:01:06>  energy change                      -0.08622335     0.00010000    F
 <May18-2019> <16:01:06>  constrained gradient max            0.11520868     0.00010000    F
 <May18-2019> <16:01:06>  constrained gradient rms            0.04597140     0.00006667    F
 <May18-2019> <16:01:06>  gradient max                        0.11520868
 <May18-2019> <16:01:06>  gradient rms                        0.04597140
 <May18-2019> <16:01:06>  cart. step max                      0.11591270     0.01000000    F
 <May18-2019> <16:01:06>  cart. step rms                      0.06110404     0.00666667    F
  Coordinates in Geometry Cycle 3
    Atom         X           Y           Z   (Angstrom)
    1.Ga        0.000000    0.000000    0.000000
    2.C         0.000000    2.153918    0.000000
    3.O         0.000000    3.269453    0.000000
    4.C         0.000000    0.000000    2.153918
    5.O         0.000000    0.000000    3.269453
    6.C         0.000000   -2.153918    0.000000
    7.O         0.000000   -3.269453    0.000000
    8.C         0.000000    0.000000   -2.153918
    9.O         0.000000    0.000000   -3.269453
   10.C         2.153918    0.000000    0.000000
   11.O         3.269453    0.000000    0.000000
   12.C        -2.153918    0.000000    0.000000
   13.O        -3.269453    0.000000    0.000000
 <May18-2019> <16:01:07>  >>>> CORORT
 <May18-2019> <16:01:07>  >>>> CLSMAT
 <May18-2019> <16:01:07>  >>>> ORTHON
 <May18-2019> <16:01:07>  >>>> GENPT
 <May18-2019> <16:01:07>  Block Length= 126
 <May18-2019> <16:01:07>  >>>> PTBAS
 <May18-2019> <16:01:08>  >>>> CYCLE
 <May18-2019> <16:01:10>              |Error|         MaxErr       Wt(A-DIIS)
 <May18-2019> <16:01:10>      1      0.61317557      0.23192807
 <May18-2019> <16:01:11>      2      0.06260794      0.00864292    100.0
 <May18-2019> <16:01:12>      3      0.18145536      0.02763238    100.0
 <May18-2019> <16:01:14>      4      0.03408943      0.00560654      4.7
 <May18-2019> <16:01:15>      5      0.00261132      0.00048415      0.0
 <May18-2019> <16:01:16>      6      0.00148272      0.00033821      0.0
 <May18-2019> <16:01:18>      7      0.00045143      0.00010827      0.0
 <May18-2019> <16:01:19>      8      0.00004282      0.00000941      0.0
 <May18-2019> <16:01:20>      9      0.00000199      0.00000043      0.0
 <May18-2019> <16:01:20>  SCF converged
 <May18-2019> <16:01:22>     10      0.00000025      0.00000004      0.0
 <May18-2019> <16:01:22>  >>>> TOTEN
 <May18-2019> <16:01:24>  >>>> POPAN
 <May18-2019> <16:01:24>  >>>> DEBYE
 <May18-2019> <16:01:24>  >>>> ENGRAD
 <May18-2019> <16:01:30>  current energy                               -1.94094670 Hartree
 <May18-2019> <16:01:30>  energy change                      -0.04175596     0.00010000    F
 <May18-2019> <16:01:30>  constrained gradient max            0.03222060     0.00010000    F
 <May18-2019> <16:01:30>  constrained gradient rms            0.01288079     0.00006667    F
 <May18-2019> <16:01:30>  gradient max                        0.03222060
 <May18-2019> <16:01:30>  gradient rms                        0.01288079
 <May18-2019> <16:01:30>  cart. step max                      0.08301361     0.01000000    F
 <May18-2019> <16:01:30>  cart. step rms                      0.04482874     0.00666667    F
  Coordinates in Geometry Cycle 4
    Atom         X           Y           Z   (Angstrom)
    1.Ga        0.000000    0.000000    0.000000
    2.C         0.000000    2.232475    0.000000
    3.O         0.000000    3.352467    0.000000
    4.C         0.000000    0.000000    2.232475
    5.O         0.000000    0.000000    3.352467
    6.C         0.000000   -2.232475    0.000000
    7.O         0.000000   -3.352467    0.000000
    8.C         0.000000    0.000000   -2.232475
    9.O         0.000000    0.000000   -3.352467
   10.C         2.232475    0.000000    0.000000
   11.O         3.352467    0.000000    0.000000
   12.C        -2.232475    0.000000    0.000000
   13.O        -3.352467    0.000000    0.000000
 <May18-2019> <16:01:30>  >>>> CORORT
 <May18-2019> <16:01:30>  >>>> CLSMAT
 <May18-2019> <16:01:30>  >>>> ORTHON
 <May18-2019> <16:01:30>  >>>> GENPT
 <May18-2019> <16:01:30>  Block Length= 126
 <May18-2019> <16:01:30>  >>>> PTBAS
 <May18-2019> <16:01:31>  >>>> CYCLE
 <May18-2019> <16:01:33>              |Error|         MaxErr       Wt(A-DIIS)
 <May18-2019> <16:01:33>      1      0.34118655      0.12846867
 <May18-2019> <16:01:34>      2      0.10417588      0.01624748    100.0
 <May18-2019> <16:01:36>      3      0.41160780      0.06225748    100.0
 <May18-2019> <16:01:37>      4      0.13126301      0.02034941    100.0
 <May18-2019> <16:01:38>      5      0.01855945      0.00206796      1.1
 <May18-2019> <16:01:40>      6      0.00119454      0.00028137      0.0
 <May18-2019> <16:01:41>      7      0.00064847      0.00007643      0.0
 <May18-2019> <16:01:42>      8      0.00017347      0.00002189      0.0
 <May18-2019> <16:01:44>      9      0.00002230      0.00000323      0.0
 <May18-2019> <16:01:45>     10      0.00000237      0.00000066      0.0
 <May18-2019> <16:01:45>  SCF converged
 <May18-2019> <16:01:46>     11      0.00000020      0.00000003      0.0
 <May18-2019> <16:01:46>  >>>> TOTEN
 <May18-2019> <16:01:49>  >>>> POPAN
 <May18-2019> <16:01:49>  >>>> DEBYE
 <May18-2019> <16:01:49>  >>>> ENGRAD
 <May18-2019> <16:01:54>  current energy                               -1.95145412 Hartree
 <May18-2019> <16:01:54>  energy change                      -0.01050742     0.00010000    F
 <May18-2019> <16:01:54>  constrained gradient max            0.01145197     0.00010000    F
 <May18-2019> <16:01:54>  constrained gradient rms            0.00455735     0.00006667    F
 <May18-2019> <16:01:54>  gradient max                        0.01145197
 <May18-2019> <16:01:54>  gradient rms                        0.00455735
 <May18-2019> <16:01:54>  cart. step max                      0.04456962     0.01000000    F
 <May18-2019> <16:01:54>  cart. step rms                      0.02405062     0.00666667    F
  Coordinates in Geometry Cycle 5
    Atom         X           Y           Z   (Angstrom)
    1.Ga        0.000000    0.000000    0.000000
    2.C         0.000000    2.274586    0.000000
    3.O         0.000000    3.397036    0.000000
    4.C         0.000000    0.000000    2.274586
    5.O         0.000000    0.000000    3.397036
    6.C         0.000000   -2.274586    0.000000
    7.O         0.000000   -3.397036    0.000000
    8.C         0.000000    0.000000   -2.274586
    9.O         0.000000    0.000000   -3.397036
   10.C         2.274586    0.000000    0.000000
   11.O         3.397036    0.000000    0.000000
   12.C        -2.274586    0.000000    0.000000
   13.O        -3.397036    0.000000    0.000000
 <May18-2019> <16:01:54>  >>>> CORORT
 <May18-2019> <16:01:54>  >>>> CLSMAT
 <May18-2019> <16:01:54>  >>>> ORTHON
 <May18-2019> <16:01:54>  >>>> GENPT
 <May18-2019> <16:01:55>  Block Length= 126
 <May18-2019> <16:01:55>  >>>> PTBAS
 <May18-2019> <16:01:56>  >>>> CYCLE
 <May18-2019> <16:01:57>              |Error|         MaxErr       Wt(A-DIIS)
 <May18-2019> <16:01:57>      1      0.16724037      0.06093602
 <May18-2019> <16:01:59>      2      0.06512949      0.01024271    100.0
 <May18-2019> <16:02:00>      3      0.26248496      0.03986191    100.0
 <May18-2019> <16:02:01>      4      0.08531014      0.01321127    100.0
 <May18-2019> <16:02:03>      5      0.00898671      0.00102677      0.0
 <May18-2019> <16:02:04>      6      0.00063619      0.00008116      0.0
 <May18-2019> <16:02:05>      7      0.00035412      0.00003350      0.0
 <May18-2019> <16:02:07>      8      0.00005423      0.00000767      0.0
 <May18-2019> <16:02:08>      9      0.00000562      0.00000082      0.0
 <May18-2019> <16:02:08>  SCF converged
 <May18-2019> <16:02:09>     10      0.00000036      0.00000008      0.0
 <May18-2019> <16:02:09>  >>>> TOTEN
 <May18-2019> <16:02:12>  >>>> POPAN
 <May18-2019> <16:02:12>  >>>> DEBYE
 <May18-2019> <16:02:12>  >>>> ENGRAD
 <May18-2019> <16:02:17>  current energy                               -1.95254501 Hartree
 <May18-2019> <16:02:17>  energy change                      -0.00109089     0.00010000    F
 <May18-2019> <16:02:17>  constrained gradient max            0.00275669     0.00010000    F
 <May18-2019> <16:02:17>  constrained gradient rms            0.00109932     0.00006667    F
 <May18-2019> <16:02:17>  gradient max                        0.00275669
 <May18-2019> <16:02:17>  gradient rms                        0.00109932
 <May18-2019> <16:02:17>  cart. step max                      0.00132428     0.01000000    T
 <May18-2019> <16:02:17>  cart. step rms                      0.00073045     0.00666667    T
  Coordinates in Geometry Cycle 6
    Atom         X           Y           Z   (Angstrom)
    1.Ga        0.000000    0.000000    0.000000
    2.C         0.000000    2.275896    0.000000
    3.O         0.000000    3.398361    0.000000
    4.C         0.000000    0.000000    2.275896
    5.O         0.000000    0.000000    3.398361
    6.C         0.000000   -2.275896    0.000000
    7.O         0.000000   -3.398361    0.000000
    8.C         0.000000    0.000000   -2.275896
    9.O         0.000000    0.000000   -3.398361
   10.C         2.275896    0.000000    0.000000
   11.O         3.398361    0.000000    0.000000
   12.C        -2.275896    0.000000    0.000000
   13.O        -3.398361    0.000000    0.000000
 <May18-2019> <16:02:17>  >>>> CORORT
 <May18-2019> <16:02:17>  >>>> CLSMAT
 <May18-2019> <16:02:17>  >>>> ORTHON
 <May18-2019> <16:02:17>  >>>> GENPT
 <May18-2019> <16:02:18>  Block Length= 126
 <May18-2019> <16:02:18>  >>>> PTBAS
 <May18-2019> <16:02:19>  >>>> CYCLE
 <May18-2019> <16:02:20>              |Error|         MaxErr       Wt(A-DIIS)
 <May18-2019> <16:02:20>      1      0.00502739      0.00183135
 <May18-2019> <16:02:22>      2      0.00198534      0.00031243    100.0
 <May18-2019> <16:02:23>      3      0.00813759      0.00124368    100.0
 <May18-2019> <16:02:24>      4      0.00263938      0.00040826      0.0
 <May18-2019> <16:02:26>      5      0.00022655      0.00005720      0.0
 <May18-2019> <16:02:27>      6      0.00001835      0.00000183      0.0
 <May18-2019> <16:02:28>      7      0.00000885      0.00000084      0.0
 <May18-2019> <16:02:28>  SCF converged
 <May18-2019> <16:02:30>      8      0.00000096      0.00000019      0.0
 <May18-2019> <16:02:30>  >>>> TOTEN
 <May18-2019> <16:02:32>  >>>> POPAN
 <May18-2019> <16:02:32>  >>>> DEBYE
 <May18-2019> <16:02:32>  >>>> ENGRAD
 <May18-2019> <16:02:38>  current energy                               -1.95253770 Hartree
 <May18-2019> <16:02:38>  energy change                       0.00000731     0.00010000    T
 <May18-2019> <16:02:38>  constrained gradient max            0.00252298     0.00010000    F
 <May18-2019> <16:02:38>  constrained gradient rms            0.00100521     0.00006667    F
 <May18-2019> <16:02:38>  gradient max                        0.00252298
 <May18-2019> <16:02:38>  gradient rms                        0.00100521
 <May18-2019> <16:02:38>  cart. step max                      0.01356879     0.01000000    F
 <May18-2019> <16:02:38>  cart. step rms                      0.00749052     0.00666667    F
  Coordinates in Geometry Cycle 7
    Atom         X           Y           Z   (Angstrom)
    1.Ga        0.000000    0.000000    0.000000
    2.C         0.000000    2.289334    0.000000
    3.O         0.000000    3.411929    0.000000
    4.C         0.000000    0.000000    2.289334
    5.O         0.000000    0.000000    3.411929
    6.C         0.000000   -2.289334    0.000000
    7.O         0.000000   -3.411929    0.000000
    8.C         0.000000    0.000000   -2.289334
    9.O         0.000000    0.000000   -3.411929
   10.C         2.289334    0.000000    0.000000
   11.O         3.411929    0.000000    0.000000
   12.C        -2.289334    0.000000    0.000000
   13.O        -3.411929    0.000000    0.000000
 <May18-2019> <16:02:38>  >>>> CORORT
 <May18-2019> <16:02:38>  >>>> CLSMAT
 <May18-2019> <16:02:38>  >>>> ORTHON
 <May18-2019> <16:02:38>  >>>> GENPT
 <May18-2019> <16:02:38>  Block Length= 126
 <May18-2019> <16:02:38>  >>>> PTBAS
 <May18-2019> <16:02:39>  >>>> CYCLE
 <May18-2019> <16:02:41>              |Error|         MaxErr       Wt(A-DIIS)
 <May18-2019> <16:02:41>      1      0.05071044      0.01851935
 <May18-2019> <16:02:42>      2      0.02045525      0.00321991    100.0
 <May18-2019> <16:02:43>      3      0.08333233      0.01270819    100.0
 <May18-2019> <16:02:45>      4      0.02693132      0.00416236    100.0
 <May18-2019> <16:02:46>      5      0.00285085      0.00032891      0.0
 <May18-2019> <16:02:47>      6      0.00020245      0.00002180      0.0
 <May18-2019> <16:02:49>      7      0.00009384      0.00000883      0.0
 <May18-2019> <16:02:50>      8      0.00001066      0.00000205      0.0
 <May18-2019> <16:02:51>      9      0.00000077      0.00000020      0.0
 <May18-2019> <16:02:51>  SCF converged
 <May18-2019> <16:02:52>     10      0.00000005      0.00000001      0.0
 <May18-2019> <16:02:53>  >>>> TOTEN
 <May18-2019> <16:02:55>  >>>> POPAN
 <May18-2019> <16:02:55>  >>>> DEBYE
 <May18-2019> <16:02:55>  >>>> ENGRAD
 <May18-2019> <16:03:00>  current energy                               -1.95233492 Hartree
 <May18-2019> <16:03:01>  energy change                       0.00020278     0.00010000    F
 <May18-2019> <16:03:01>  constrained gradient max            0.00009555     0.00010000    T
 <May18-2019> <16:03:01>  constrained gradient rms            0.00003794     0.00006667    T
 <May18-2019> <16:03:01>  gradient max                        0.00009555
 <May18-2019> <16:03:01>  gradient rms                        0.00003794
 <May18-2019> <16:03:01>  cart. step max                      0.00037340     0.01000000    T
 <May18-2019> <16:03:01>  cart. step rms                      0.00020670     0.00666667    T
  Coordinates in Geometry Cycle 8
    Atom         X           Y           Z   (Angstrom)
    1.Ga        0.000000    0.000000    0.000000
    2.C         0.000000    2.289707    0.000000
    3.O         0.000000    3.412301    0.000000
    4.C         0.000000    0.000000    2.289707
    5.O         0.000000    0.000000    3.412301
    6.C         0.000000   -2.289707    0.000000
    7.O         0.000000   -3.412301    0.000000
    8.C         0.000000    0.000000   -2.289707
    9.O         0.000000    0.000000   -3.412301
   10.C         2.289707    0.000000    0.000000
   11.O         3.412301    0.000000    0.000000
   12.C        -2.289707    0.000000    0.000000
   13.O        -3.412301    0.000000    0.000000
 <May18-2019> <16:03:01>  >>>> CORORT
 <May18-2019> <16:03:01>  >>>> CLSMAT
 <May18-2019> <16:03:01>  >>>> ORTHON
 <May18-2019> <16:03:01>  >>>> GENPT
 <May18-2019> <16:03:01>  Block Length= 126
 <May18-2019> <16:03:01>  >>>> PTBAS
 <May18-2019> <16:03:02>  >>>> CYCLE
 <May18-2019> <16:03:04>              |Error|         MaxErr       Wt(A-DIIS)
 <May18-2019> <16:03:04>      1      0.00140328      0.00051026
 <May18-2019> <16:03:05>      2      0.00056503      0.00008892    100.0
 <May18-2019> <16:03:06>      3      0.00231323      0.00035342    100.0
 <May18-2019> <16:03:07>      4      0.00074744      0.00011545      0.0
 <May18-2019> <16:03:09>      5      0.00006887      0.00001722      0.0
 <May18-2019> <16:03:10>      6      0.00000580      0.00000068      0.0
 <May18-2019> <16:03:10>  SCF converged
 <May18-2019> <16:03:11>      7      0.00000238      0.00000022      0.0
 <May18-2019> <16:03:12>  >>>> TOTEN
 <May18-2019> <16:03:14>  >>>> POPAN
 <May18-2019> <16:03:14>  >>>> DEBYE
 <May18-2019> <16:03:14>  >>>> ENGRAD
 <May18-2019> <16:03:19>  current energy                               -1.95232616 Hartree
 <May18-2019> <16:03:19>  energy change                       0.00000876     0.00010000    T
 <May18-2019> <16:03:19>  constrained gradient max            0.00000758     0.00010000    T
 <May18-2019> <16:03:19>  constrained gradient rms            0.00000347     0.00006667    T
 <May18-2019> <16:03:19>  gradient max                        0.00000758
 <May18-2019> <16:03:19>  gradient rms                        0.00000347
 <May18-2019> <16:03:19>  cart. step max                      0.00001465     0.01000000    T
 <May18-2019> <16:03:19>  cart. step rms                      0.00000790     0.00666667    T
 <May18-2019> <16:03:19>  GEOMETRY CONVERGED
 <May18-2019> <16:03:19>  Calculating Energy Terms for Final Geometry
  Coordinates in Geometry Cycle 8
    Atom         X           Y           Z   (Angstrom)
    1.Ga        0.000000    0.000000    0.000000
    2.C         0.000000    2.289707    0.000000
    3.O         0.000000    3.412301    0.000000
    4.C         0.000000    0.000000    2.289707
    5.O         0.000000    0.000000    3.412301
    6.C         0.000000   -2.289707    0.000000
    7.O         0.000000   -3.412301    0.000000
    8.C         0.000000    0.000000   -2.289707
    9.O         0.000000    0.000000   -3.412301
   10.C         2.289707    0.000000    0.000000
   11.O         3.412301    0.000000    0.000000
   12.C        -2.289707    0.000000    0.000000
   13.O        -3.412301    0.000000    0.000000
 <May18-2019> <16:03:20>  >>>> CORORT
 <May18-2019> <16:03:20>  >>>> CLSMAT
 <May18-2019> <16:03:20>  >>>> ORTHON
 <May18-2019> <16:03:20>  >>>> GENPT
 <May18-2019> <16:03:20>  Block Length= 126
 <May18-2019> <16:03:20>  >>>> PTBAS
 <May18-2019> <16:03:21>  >>>> CYCLE
 <May18-2019> <16:03:23>              |Error|         MaxErr       Wt(A-DIIS)
 <May18-2019> <16:03:23>      1      0.00000028      0.00000006
 <May18-2019> <16:03:24>      2      0.00000072      0.00000013    100.0
 <May18-2019> <16:03:24>  SCF converged
 <May18-2019> <16:03:25>      3      0.00000145      0.00000029    100.0
 <May18-2019> <16:03:26>  >>>> TOTEN
 <May18-2019> <16:03:30>  >>>> POPAN
 <May18-2019> <16:03:30>  >>>> DEBYE
 <May18-2019> <16:03:30>  >>>> AMETS
 <May18-2019> <16:03:30>  >>>> POPUL
 <May18-2019> <16:03:30>   Bond Energy          -1.95232616 a.u.
 <May18-2019> <16:03:30>   Bond Energy         -53.12549778 eV
 <May18-2019> <16:03:30>   Bond Energy       -1225.10       kcal/mol
 <May18-2019> <16:03:30>  >>>> ENHESS
 <May18-2019> <16:03:31>  === NUCLEUS:     1
 <May18-2019> <16:04:14>  === NUCLEUS:     2
 <May18-2019> <16:04:55>  === NUCLEUS:     8
 <May18-2019> <16:05:37>  >>>> CALC_HESS_PMAT
 <May18-2019> <16:05:47>  >>>> CALC_HESS_WMAT
 <May18-2019> <16:05:52>  NORMAL TERMINATION
 <May18-2019> <16:05:52>  END
