
Create H   file=TZ2P-H
XC
  GGA blyp
  DISPERSION Grimme3 BJDAMP
End
End Input

 *******************************************************************************
 *                                                                             *
 *  -------------------------------------                                      *
 *   Amsterdam Density Functional  (ADF)         2017                          *
 *  -------------------------------------                                      *
 *                                               r58813 2017-04-12             *
 *                                                                             *
 *                                                                             *
 *                              =================                              *
 *                              |               |                              *
 *                              |     A D F     |                              *
 *                              |               |                              *
 *                              =================                              *
 *                                                                             *
 *                                                                             *
 *   Online information and documentation:  https://www.scm.com/support/       *
 *   E-mail:  support@scm.com   info@scm.com                                   *
 *                                                                             *
 *   Scientific publications using ADF results must be properly referenced     *
 *   See the User Manuals (or the web site) for recommended citations          *
 *   The terms and conditions of the End User License Agreement apply to       *
 *   the use of ADF, https://www.scm.com/license-terms/                        *
 *                                                                             *
 **********************  x86_64_linux_intel / intelmpi  ************************
 
 Licensed to: VU/FEW (+ SARA) / ALGEMEEN / Amsterdam / THE NETHERLANDS
 SCM User ID: u7668
  
 ADF 2017  RunTime: May09-2019 17:12:31  Nodes: 1  Procs: 1

 Temporary files are created in /local/datastore0/tcst25/189794/kid_0.X3chts

 Hydrogen (TZ2P)



 ===========================
 A T T A C H E D   F I L E S
 ===========================
  
 CREATE - Data File:    TZ2P-H
                        Hydrogen (TZ2P)



 ===============================
 M O D E L   P A R A M E T E R S
 ===============================
  
 DENSITY FUNCTIONAL POTENTIAL (scf)
    LDA:                               Exchange only                           == Not Default ==
    Gradient Corrections:              Becke88 LYP                             == Not Default ==

 SPIN  (restricted / unrestr.)
    Molecule:                          Restricted                               

 OTHER ASPECTS
    Relativistic Corrections:          ---                                      

    Nuclear Charge Density Model:      Point Charge Nuclei                      
    Core Treatment:                    Frozen Orbital(s)                        

    Hyperfine or Zeeman Interaction:   ---                                      

 Settings for Grimme 3 dispersion correction

      damping                        BJ
      s6                          1.000
      a1                          0.430
      s8                          2.700
      a2                          4.236

 Other (technical) parameters

      alpha                      14.000
      version                         4
 



 =====================================
 S Y M M E T R Y ,   E L E C T R O N S
 =====================================
  
 Symmetry: ATOM

 Irreducible Representations, including subspecies
 -------------------------------------------------
 S
 P:x  P:y  P:z
 D:z2  D:x2-y2  D:xy  D:xz  D:yz
 F:z3  F:z  F:xyz  F:z2x  F:z2y  F:x  F:y


 Configuration of Valence Electrons
 ==================================

          Occupation Numbers
          -------------------------------------------------
 S        1
 P        0
 D        0
 F        0
          -------------------------------------------------

 Total:   1

 Net Charge: 0 (Nuclei minus Electrons)

 Preset values for MO occupations will be applied through SCF cycle no. 1000000
 Thereafter, the program will assign electrons to MOs that are spatially
 similar to the occupied MOs in a "reference" cycle ("KeepOrbitals").
 The reference cycle is always the PREVIOUS cycle: it will evolve with
 the SCF procedure.



 ================================
 (Slater-type)  F U N C T I O N S  ***  (Basis and Fit)  ***
 ================================
  

 Atom Type    1  (H)
 ==============

 Valence Basis Sets:   5
 -----------------------
   1 S    0.690000
   1 S    0.920000
   1 S    1.580000
   2 P    1.250000
   3 D    2.500000


 BAS: List of all Elementary Cartesian Basis Functions
 =====================================================

 The numbering in the list below (to the right of the function characteristics) is referred
 to in print-outs of MO eigenvectors and Mulliken populations in the BAS representation
 (as contrasted to the SFO representation).

 Notes:
 1. The functions are characterized by a polynomial prefactor (powers of x,y,z and r) and
    an exponential decay factor alpha.
 2. Since the basis sets are specific for an atom TYPE, the individual functions occur on
    all atoms of that type.
 3. The word 'Core' in the left margin signals that it is a Core Function (CF) : not a
    degree of freedom in the valence set, but only used to ensure orthogonalization of
    the other valence basis functions on the frozen Core Orbitals.


 (power of) X  Y  Z  R     Alpha  on Atom
            ==========     =====     ==========

 H                                    1
                                  ---------------------------------------------------------------------------
            0  0  0  0     0.690      1
            0  0  0  0     0.920      2
            0  0  0  0     1.580      3
            1  0  0  0     1.250      4
            0  1  0  0     1.250      5
            0  0  1  0     1.250      6
            2  0  0  0     2.500      7
            1  1  0  0     2.500      8
            1  0  1  0     2.500      9
            0  2  0  0     2.500     10
            0  1  1  0     2.500     11
            0  0  2  0     2.500     12

 Total number of charge fitting functions (nprimf)        50
 Total number of Cartesian basis functions (naos)         12
 Total number of Cartesian core functions  (ncos)          0



 BAS: List of all Elementary Cartesian Basis Functions
 =====================================================

 The numbering in the list below (to the right of the function characteristics) is referred
 to in print-outs of MO eigenvectors and Mulliken populations in the BAS representation
 (as contrasted to the SFO representation).

 Notes:
 1. The functions are characterized by a polynomial prefactor (powers of x,y,z and r) and
    an exponential decay factor alpha.
 2. Since the basis sets are specific for an atom TYPE, the individual functions occur on
    all atoms of that type.
 3. The word 'Core' in the left margin signals that it is a Core Function (CF) : not a
    degree of freedom in the valence set, but only used to ensure orthogonalization of
    the other valence basis functions on the frozen Core Orbitals.


 (power of) X  Y  Z  R     Alpha  on Atom
            ==========     =====     ==========

 H                                    1
                                  ---------------------------------------------------------------------------
            0  0  0  0     0.690      1
            0  0  0  0     0.920      2
            0  0  0  0     1.580      3
            1  0  0  0     1.250      4
            0  1  0  0     1.250      5
            0  0  1  0     1.250      6
            2  0  0  0     2.500      7
            1  1  0  0     2.500      8
            1  0  1  0     2.500      9
            0  2  0  0     2.500     10
            0  1  1  0     2.500     11
            0  0  2  0     2.500     12
1
 ***************************************************************************************************



                                              ***********************
                                              *  T E C H N I C A L  *
                                              ***********************
  



 =============================================================
 P A R A L L E L I Z A T I O N  and  V E C T O R I Z A T I O N
 =============================================================
  
 Nr of parallel processes:                                1
 Maximum vector length in NumInt loops:                 128

 IO buffersize (Mb):                                     64.000000



 =====================
 S C F   U P D A T E S
 =====================
  
 Max. nr. of cycles:                               300
 Convergence criterion:                              0.0000000100
   secondary criterion:                              0.0000000100

 Mix parameter (when DIIS does not apply):           0.2000000000
 Special mix parameter for the first cycle:          1.0000000000
 Mixed ADIIS+DIIS will be used
    Max number of expansion vectors:                10
    Pure ADIIS when Max([F,P]) is above              0.1000000000
    Pure DIIS when Max([F,P]) is below               0.0010000000
 Automatic ElectronSmearing (in case of problematic SCF convergence) disabled



 =================
 P R E C I S I O N  ***  (General: NumInt, NeglectFunctionTails, ...)  ***
 =================
  

 NumInt:           Target precision:                12.0000000000
 -------           Initial precision:               10.0000000000
                   Min. precision (optimization):   10.0000000000

 Neglect Functions:          Basis functions:        0.1000000000E-13
 ------------------          Fit functions:          0.1000000000E-13



 ===========================
 L I N E A R   S C A L I N G
 ===========================
  

 Cut-off radii density fit:                        0.1000000000E-97
 Overlap cut-off criterion AO matrix elements:     0.1000000000E-97
 Cut-offs for Coulomb potential and fitted density:0.1000000000E-97
 Cut-off criterion for Coulomb multipole terms:    0.1000000000E-97
 Progressive Convergence parameter:                 0.000000000    
1
 ***************************************************************************************************



                                            ***************************
                                            *  C O M P U T A T I O N  *
                                            ***************************
  

 Number of elements of the density matrix on this node (used, total):        78        78



 ===========================================
 Numerical Integration : Fuzzy Cells (Becke)
 ===========================================
  
 Becke grid quality: VERYGOOD       
  
 Lebedev angular grid order:             min:  13 max:  41
 Nr. of radial points:                   min:  64 max:  64

 Total nr. of points:         64
 Nr. of blocks:                1
 Block length:                64
 Nr. of dummy points:          0


 Test of Precision of the Numerical Integration Grid
 ===================================================

 Integral of the Total Core Density:                   0.00000000000000



 ========================
 Density Fitting (zlmFit)
 ========================
  
 ZlmFit Fit Quality: VERYGOOD       
  
 Max L-expansion:                        min:   0 max:   0
 Nr. of radial interpolation points:     min: 130 max: 130



 =====
 S C F  ***  ScaSCF  ***
 =====
  

 CYCLE    1
 SCF Error: norm([F,P])=      0.000000000000, max([F,P])=      0.000000000000
 orbitals (Q,E):
 ---------------
 S :1...3            ( 1.00    -0.5000)  ( 0.00    -0.0900)  ( 0.00     1.2939)
 P :1...1            ( 0.00     0.1562)
 D :1...1            ( 0.00     2.2917)

 CYCLE    2
 SCF Error: norm([F,P])=      0.031002856008, max([F,P])=      0.026444239384
 orbitals (Q,E):
 ---------------
 S :1...2            ( 1.00    -0.2236)  ( 0.00     0.0977)
 P :1...1            ( 0.00     0.4190)
 D :1...1            ( 0.00     2.5863)

 CYCLE    3
  SDIIS (wt  0.000):  0.2055  0.7945
 A-DIIS (wt  1.000):  0.0000  1.0000
  DIIS coefficients:  0.0000  1.0000
 SCF Error: norm([F,P])=      0.009580013340, max([F,P])=      0.009328518993
 orbitals (Q,E):
 ---------------
 S :1...2            ( 1.00    -0.2440)  ( 0.00     0.0860)
 P :1...1            ( 0.00     0.4030)
 D :1...1            ( 0.00     2.5655)

 CYCLE    4
  SDIIS (wt  0.987):  0.1949  0.8051
 A-DIIS (wt  0.013):  0.0000  1.0000
  DIIS coefficients:  0.1923  0.8077
 SCF Error: norm([F,P])=      0.002320932075, max([F,P])=      0.002286403159
 orbitals (Q,E):
 ---------------
 S :1...2            ( 1.00    -0.2400)  ( 0.00     0.0880)
 P :1...1            ( 0.00     0.4062)
 D :1...1            ( 0.00     2.5697)

 CYCLE    5
  SDIIS (wt  1.000):  0.0132  0.9868
  DIIS coefficients:  0.0132  0.9868
 SCF Error: norm([F,P])=      0.000031553206, max([F,P])=      0.000029840661
 orbitals (Q,E):
 ---------------
 S :1...2            ( 1.00    -0.2400)  ( 0.00     0.0880)
 P :1...1            ( 0.00     0.4062)
 D :1...1            ( 0.00     2.5697)

 CYCLE    6
  SDIIS (wt  1.000): -0.0314  1.0314
  DIIS coefficients: -0.0314  1.0314
 SCF Error: norm([F,P])=      0.000000959925, max([F,P])=      0.000000913629
 orbitals (Q,E):
 ---------------
 S :1...2            ( 1.00    -0.2400)  ( 0.00     0.0880)
 P :1...1            ( 0.00     0.4062)
 D :1...1            ( 0.00     2.5697)

 CYCLE    7
  SDIIS (wt  1.000):  0.0045  0.9955
  DIIS coefficients:  0.0045  0.9955
 SCF Error: norm([F,P])=      0.000000004387, max([F,P])=      0.000000004212
 orbitals (Q,E):
 ---------------
 S :1...2            ( 1.00    -0.2400)  ( 0.00     0.0880)
 P :1...1            ( 0.00     0.4062)
 D :1...1            ( 0.00     2.5697)

 SCF CONVERGED

 CYCLE    8
1
 ***************************************************************************************************



                                                *******************
                                                *  R E S U L T S  *
                                                *******************
  
 *** Setting up for NEW gradients in Focky
 *** Using FIT density in Focky

 Orbital Energies, per Irrep and Spin:
 ======================================
                        Occup              E (au)              E (eV)       Diff (eV) with prev. cycle
                        -----      --------------------        ------       --------------------------
 S
               1        1.000     -0.24003723730291E+00        -6.532              -1.36E-09
               2        0.000      0.87974178151413E-01         2.394
               3        0.000      0.15021841144445E+01        40.877
 P
               1        0.000      0.40615190499536E+00        11.052
 D
               1        0.000      0.25696970808913E+01        69.925


 Partially Occupied:
               1 S                -0.24003723730291E+00
  
 LUMO :        2 S                 0.87974178151413E-01
  


 Orbital Energies, all Irreps
 ========================================

 Irrep        no.  (spin)   Occup              E (au)                E (eV)
 ---------------------------------------------------------------------------
 S             1             1.00       -0.24003723730291E+00        -6.5317
 S             2             0.00        0.87974178151413E-01         2.3939
 P             1             0.00        0.40615190499536E+00        11.0520
 S             3             0.00        0.15021841144445E+01        40.8765
 D             1             0.00        0.25696970808913E+01        69.9250


 All Electron Calculation, thus no Orbital Energies of the Core Orbitals are calculated



 =======================================
 M U L L I K E N   P O P U L A T I O N S
 =======================================
  
 The survey below gives for each atom:
 a) the total charge (Z minus electrons)
 b) the net spin polarization (nr of electrons spin-A minus spin-B)
 c) for each spin the atomic electron valence density (integrated) per L-value.

 Atom              Charge    Spin density          S         P         D         F
 ----              ------    ------------       ------    ------    ------    ------
 1 H              -0.0000                       1.0000    0.0000    0.0000    0.0000

 Populations of individual BAS functions
 ----------------------------------------
 1 H            0.2458  0.6250  0.1292  0.0000  0.0000  0.0000  0.0000  0.0000  0.0000  0.0000
                0.0000  0.0000

 Gross Charges per Atom (Z minus electrons)
 ==========================================
            -0.0000
 Net Total: -0.00000000



 =======================================================================
 Electrostatic potential at the Nuclei due to electrons and other nuclei
 =======================================================================
  
         Atom                  Potential
         ----                  ---------
     1)   H                   0.94873442
 
 
 ========================
 No memory problems found
 ========================
 
 Maximum number of active allocate calls:         363
 
 *******************************************************************************

                             A D F   E X I T
 NORMAL TERMINATION



 =================
 Timing Statistics
 =================
  
 Total Used :                     CPU=        0.44      System=        0.03     Elapsed=        0.48

 Calls  Section                     ( Mean, Percentage )
 ---------------------------------------------------------------------------------------------------
     3  ><      ................      0.00    0.23             0.00    0.00             0.00    0.17
     1  INIT    ................      0.02    3.64             0.02   50.00             0.03    7.26
     1  GEOMET  ................      0.01    1.82             0.00   14.71             0.01    2.76
     1  INPUTA  ................      0.00    0.45             0.00    2.94             0.00    0.62
     1  MAINSY  ................      0.00    0.91             0.00    8.82             0.01    1.55
     1  SYMFIT  ................      0.00    0.45             0.00    0.00             0.00    0.25
     1  CORORT  ................      0.00    0.00             0.00    0.00             0.00    0.09
     1  SYMORB  ................      0.00    0.00             0.00    2.94             0.00    0.28
     1  CLSMAT  ................      0.01    1.59             0.00    0.00             0.01    1.44
     1  ORTHON  ................      0.00    0.45             0.00    2.94             0.00    0.54
     1  GENPT   ................      0.01    3.18             0.00    0.00             0.01    3.07
     1  PTBAS   ................      0.01    1.36             0.00    0.00             0.01    1.26
     8  FOCKY   ................      0.04   66.59             0.00    8.82             0.04   62.22
     8  FOCKTR  ................      0.00    2.05             0.00    0.00             0.00    1.92
     8  SDIIS   ................      0.00    4.55             0.00    0.00             0.00    4.21
     1  COREPS  ................      0.02    5.23             0.00    2.94             0.02    5.07
     1  POPAN   ................      0.01    1.59             0.00    0.00             0.01    1.38
     1  DEBYE   ................      0.00    0.23             0.00    0.00             0.00    0.17
     1  EXIT PROCEDURE .........      0.02    5.68             0.00    5.88             0.03    5.74


 Currently Open Files (EXIT00)
 ====================

 Unit    Access Format  Status   Type       Ident (file)
 -------------------------------------------------------
   3      SEQ    FORM   TRANSP  NORMAL      LOGFILE
                                          ( logfile )


 Buffered I/O statistics
 =======================
 Memory available:                     67108864
 Number of records fitting in memory:     16131
 Input :   0.2% of                        17471  *4k bytes
 Output:  15.2% of                         1045  *4k bytes
 Records from serial files evicted:           0
                    others evicted:           0
 Hash table lookups:      44663 with          0 conflicts (  0.00%)

 ***************************************************************************************************
 (LOGFILE)
 <May09-2019> <17:12:31>  ADF 2017  RunTime: May09-2019 17:12:31  Nodes: 1  Procs: 1
 <May09-2019> <17:12:31>  Hydrogen (TZ2P)
 <May09-2019> <17:12:31>  RunType   : CREATE
 <May09-2019> <17:12:31>  Net Charge: 0 (Nuclei minus Electrons)
 <May09-2019> <17:12:31>  Symmetry  : ATOM
  Coordinates
    Atom         X           Y           Z   (Angstrom)
    1.H         0.000000    0.000000    0.000000
 <May09-2019> <17:12:31>  >>>> CORORT
 <May09-2019> <17:12:31>  >>>> CLSMAT
 <May09-2019> <17:12:31>  >>>> ORTHON
 <May09-2019> <17:12:31>  >>>> GENPT
 <May09-2019> <17:12:31>  Block Length=  64
 <May09-2019> <17:12:31>  >>>> PTBAS
 <May09-2019> <17:12:31>  >>>> CYCLE
 <May09-2019> <17:12:31>              |Error|         MaxErr       Wt(A-DIIS)
 <May09-2019> <17:12:31>      1      0.00000000      0.00000000
 <May09-2019> <17:12:31>      2      0.03100286      0.02644424
 <May09-2019> <17:12:31>      3      0.00958001      0.00932852    100.0
 <May09-2019> <17:12:31>      4      0.00232093      0.00228640      1.3
 <May09-2019> <17:12:31>      5      0.00003155      0.00002984      0.0
 <May09-2019> <17:12:31>      6      0.00000096      0.00000091      0.0
 <May09-2019> <17:12:31>      7      0.00000000      0.00000000      0.0
 <May09-2019> <17:12:31>  SCF converged
 <May09-2019> <17:12:31>      8      0.00000000      0.00000000      0.0
 <May09-2019> <17:12:31>  >>>> POPAN
 <May09-2019> <17:12:31>  >>>> DEBYE
 <May09-2019> <17:12:31>  NORMAL TERMINATION
 <May09-2019> <17:12:31>  END

Create Br   file=TZ2P-Br
XC
  GGA blyp
  DISPERSION Grimme3 BJDAMP
End
End Input

 *******************************************************************************
 *                                                                             *
 *  -------------------------------------                                      *
 *   Amsterdam Density Functional  (ADF)         2017                          *
 *  -------------------------------------                                      *
 *                                               r58813 2017-04-12             *
 *                                                                             *
 *                                                                             *
 *                              =================                              *
 *                              |               |                              *
 *                              |     A D F     |                              *
 *                              |               |                              *
 *                              =================                              *
 *                                                                             *
 *                                                                             *
 *   Online information and documentation:  https://www.scm.com/support/       *
 *   E-mail:  support@scm.com   info@scm.com                                   *
 *                                                                             *
 *   Scientific publications using ADF results must be properly referenced     *
 *   See the User Manuals (or the web site) for recommended citations          *
 *   The terms and conditions of the End User License Agreement apply to       *
 *   the use of ADF, https://www.scm.com/license-terms/                        *
 *                                                                             *
 **********************  x86_64_linux_intel / intelmpi  ************************
 
 Licensed to: VU/FEW (+ SARA) / ALGEMEEN / Amsterdam / THE NETHERLANDS
 SCM User ID: u7668
  
 ADF 2017  RunTime: May09-2019 17:12:31  Nodes: 1  Procs: 1

 Temporary files are created in /local/datastore0/tcst25/189794/kid_0.VNZ3r8

 Bromine (TZ2P)



 ===========================
 A T T A C H E D   F I L E S
 ===========================
  
 CREATE - Data File:    TZ2P-Br
                        Bromine (TZ2P)



 ===============================
 M O D E L   P A R A M E T E R S
 ===============================
  
 DENSITY FUNCTIONAL POTENTIAL (scf)
    LDA:                               Exchange only                           == Not Default ==
    Gradient Corrections:              Becke88 LYP                             == Not Default ==

 SPIN  (restricted / unrestr.)
    Molecule:                          Restricted                               

 OTHER ASPECTS
    Relativistic Corrections:          ---                                      

    Nuclear Charge Density Model:      Point Charge Nuclei                      
    Core Treatment:                    Frozen Orbital(s)                        

    Hyperfine or Zeeman Interaction:   ---                                      

 Settings for Grimme 3 dispersion correction

      damping                        BJ
      s6                          1.000
      a1                          0.430
      s8                          2.700
      a2                          4.236

 Other (technical) parameters

      alpha                      14.000
      version                         4
 



 =====================================
 S Y M M E T R Y ,   E L E C T R O N S
 =====================================
  
 Symmetry: ATOM

 Irreducible Representations, including subspecies
 -------------------------------------------------
 S
 P:x  P:y  P:z
 D:z2  D:x2-y2  D:xy  D:xz  D:yz
 F:z3  F:z  F:xyz  F:z2x  F:z2y  F:x  F:y


 Configuration of Valence Electrons
 ==================================

          Occupation Numbers
          -------------------------------------------------
 S        4*2
 P        2*6 5
 D        10
 F        0
          -------------------------------------------------

 Total:   35

 Net Charge: 0 (Nuclei minus Electrons)

 Preset values for MO occupations will be applied through SCF cycle no. 1000000
 Thereafter, the program will assign electrons to MOs that are spatially
 similar to the occupied MOs in a "reference" cycle ("KeepOrbitals").
 The reference cycle is always the PREVIOUS cycle: it will evolve with
 the SCF procedure.



 ================================
 (Slater-type)  F U N C T I O N S  ***  (Basis and Fit)  ***
 ================================
  

 Atom Type    1  (Br)
 ==============

 Valence Basis Sets:  20
 -----------------------
   1 S   41.300000
   1 S   32.800000
   2 S   13.900000
   2 P   19.450000
   2 P   13.100000
   3 S    7.200000
   3 S    4.950000
   3 P    7.900000
   3 P    5.050000
   3 D   10.900000
   3 D    6.050000
   3 D    3.500000
   4 S    4.500000
   4 S    2.800000
   4 S    1.800000
   4 P    3.250000
   4 P    1.950000
   4 P    1.200000
   4 D    1.800000
   4 F    1.800000


 BAS: List of all Elementary Cartesian Basis Functions
 =====================================================

 The numbering in the list below (to the right of the function characteristics) is referred
 to in print-outs of MO eigenvectors and Mulliken populations in the BAS representation
 (as contrasted to the SFO representation).

 Notes:
 1. The functions are characterized by a polynomial prefactor (powers of x,y,z and r) and
    an exponential decay factor alpha.
 2. Since the basis sets are specific for an atom TYPE, the individual functions occur on
    all atoms of that type.
 3. The word 'Core' in the left margin signals that it is a Core Function (CF) : not a
    degree of freedom in the valence set, but only used to ensure orthogonalization of
    the other valence basis functions on the frozen Core Orbitals.


 (power of) X  Y  Z  R     Alpha  on Atom
            ==========     =====     ==========

 Br                                   1
                                  ---------------------------------------------------------------------------
            0  0  0  0    41.300      1
            0  0  0  0    32.800      2
            0  0  0  1    13.900      3
            1  0  0  0    19.450      4
            0  1  0  0    19.450      5
            0  0  1  0    19.450      6
            1  0  0  0    13.100      7
            0  1  0  0    13.100      8
            0  0  1  0    13.100      9
            0  0  0  2     7.200     10
            0  0  0  2     4.950     11
            1  0  0  1     7.900     12
            0  1  0  1     7.900     13
            0  0  1  1     7.900     14
            1  0  0  1     5.050     15
            0  1  0  1     5.050     16
            0  0  1  1     5.050     17
            2  0  0  0    10.900     18
            1  1  0  0    10.900     19
            1  0  1  0    10.900     20
            0  2  0  0    10.900     21
            0  1  1  0    10.900     22
            0  0  2  0    10.900     23
            2  0  0  0     6.050     24
            1  1  0  0     6.050     25
            1  0  1  0     6.050     26
            0  2  0  0     6.050     27
            0  1  1  0     6.050     28
            0  0  2  0     6.050     29
            2  0  0  0     3.500     30
            1  1  0  0     3.500     31
            1  0  1  0     3.500     32
            0  2  0  0     3.500     33
            0  1  1  0     3.500     34
            0  0  2  0     3.500     35
            0  0  0  3     4.500     36
            0  0  0  3     2.800     37
            0  0  0  3     1.800     38
            1  0  0  2     3.250     39
            0  1  0  2     3.250     40
            0  0  1  2     3.250     41
            1  0  0  2     1.950     42
            0  1  0  2     1.950     43
            0  0  1  2     1.950     44
            1  0  0  2     1.200     45
            0  1  0  2     1.200     46
            0  0  1  2     1.200     47
            2  0  0  1     1.800     48
            1  1  0  1     1.800     49
            1  0  1  1     1.800     50
            0  2  0  1     1.800     51
            0  1  1  1     1.800     52
            0  0  2  1     1.800     53
            3  0  0  0     1.800     54
            2  1  0  0     1.800     55
            2  0  1  0     1.800     56
            1  2  0  0     1.800     57
            1  1  1  0     1.800     58
            1  0  2  0     1.800     59
            0  3  0  0     1.800     60
            0  2  1  0     1.800     61
            0  1  2  0     1.800     62
            0  0  3  0     1.800     63

 Total number of charge fitting functions (nprimf)       170
 Total number of Cartesian basis functions (naos)         63
 Total number of Cartesian core functions  (ncos)          0



 BAS: List of all Elementary Cartesian Basis Functions
 =====================================================

 The numbering in the list below (to the right of the function characteristics) is referred
 to in print-outs of MO eigenvectors and Mulliken populations in the BAS representation
 (as contrasted to the SFO representation).

 Notes:
 1. The functions are characterized by a polynomial prefactor (powers of x,y,z and r) and
    an exponential decay factor alpha.
 2. Since the basis sets are specific for an atom TYPE, the individual functions occur on
    all atoms of that type.
 3. The word 'Core' in the left margin signals that it is a Core Function (CF) : not a
    degree of freedom in the valence set, but only used to ensure orthogonalization of
    the other valence basis functions on the frozen Core Orbitals.


 (power of) X  Y  Z  R     Alpha  on Atom
            ==========     =====     ==========

 Br                                   1
                                  ---------------------------------------------------------------------------
            0  0  0  0    41.300      1
            0  0  0  0    32.800      2
            0  0  0  1    13.900      3
            1  0  0  0    19.450      4
            0  1  0  0    19.450      5
            0  0  1  0    19.450      6
            1  0  0  0    13.100      7
            0  1  0  0    13.100      8
            0  0  1  0    13.100      9
            0  0  0  2     7.200     10
            0  0  0  2     4.950     11
            1  0  0  1     7.900     12
            0  1  0  1     7.900     13
            0  0  1  1     7.900     14
            1  0  0  1     5.050     15
            0  1  0  1     5.050     16
            0  0  1  1     5.050     17
            2  0  0  0    10.900     18
            1  1  0  0    10.900     19
            1  0  1  0    10.900     20
            0  2  0  0    10.900     21
            0  1  1  0    10.900     22
            0  0  2  0    10.900     23
            2  0  0  0     6.050     24
            1  1  0  0     6.050     25
            1  0  1  0     6.050     26
            0  2  0  0     6.050     27
            0  1  1  0     6.050     28
            0  0  2  0     6.050     29
            2  0  0  0     3.500     30
            1  1  0  0     3.500     31
            1  0  1  0     3.500     32
            0  2  0  0     3.500     33
            0  1  1  0     3.500     34
            0  0  2  0     3.500     35
            0  0  0  3     4.500     36
            0  0  0  3     2.800     37
            0  0  0  3     1.800     38
            1  0  0  2     3.250     39
            0  1  0  2     3.250     40
            0  0  1  2     3.250     41
            1  0  0  2     1.950     42
            0  1  0  2     1.950     43
            0  0  1  2     1.950     44
            1  0  0  2     1.200     45
            0  1  0  2     1.200     46
            0  0  1  2     1.200     47
            2  0  0  1     1.800     48
            1  1  0  1     1.800     49
            1  0  1  1     1.800     50
            0  2  0  1     1.800     51
            0  1  1  1     1.800     52
            0  0  2  1     1.800     53
            3  0  0  0     1.800     54
            2  1  0  0     1.800     55
            2  0  1  0     1.800     56
            1  2  0  0     1.800     57
            1  1  1  0     1.800     58
            1  0  2  0     1.800     59
            0  3  0  0     1.800     60
            0  2  1  0     1.800     61
            0  1  2  0     1.800     62
            0  0  3  0     1.800     63
1
 ***************************************************************************************************



                                              ***********************
                                              *  T E C H N I C A L  *
                                              ***********************
  



 =============================================================
 P A R A L L E L I Z A T I O N  and  V E C T O R I Z A T I O N
 =============================================================
  
 Nr of parallel processes:                                1
 Maximum vector length in NumInt loops:                 128

 IO buffersize (Mb):                                     64.000000



 =====================
 S C F   U P D A T E S
 =====================
  
 Max. nr. of cycles:                               300
 Convergence criterion:                              0.0000000100
   secondary criterion:                              0.0000000100

 Mix parameter (when DIIS does not apply):           0.2000000000
 Special mix parameter for the first cycle:          1.0000000000
 Mixed ADIIS+DIIS will be used
    Max number of expansion vectors:                10
    Pure ADIIS when Max([F,P]) is above              0.1000000000
    Pure DIIS when Max([F,P]) is below               0.0010000000
 Automatic ElectronSmearing (in case of problematic SCF convergence) disabled



 =================
 P R E C I S I O N  ***  (General: NumInt, NeglectFunctionTails, ...)  ***
 =================
  

 NumInt:           Target precision:                12.0000000000
 -------           Initial precision:               10.0000000000
                   Min. precision (optimization):   10.0000000000

 Neglect Functions:          Basis functions:        0.1000000000E-13
 ------------------          Fit functions:          0.1000000000E-13



 ===========================
 L I N E A R   S C A L I N G
 ===========================
  

 Cut-off radii density fit:                        0.1000000000E-97
 Overlap cut-off criterion AO matrix elements:     0.1000000000E-97
 Cut-offs for Coulomb potential and fitted density:0.1000000000E-97
 Cut-off criterion for Coulomb multipole terms:    0.1000000000E-97
 Progressive Convergence parameter:                 0.000000000    
1
 ***************************************************************************************************



                                            ***************************
                                            *  C O M P U T A T I O N  *
                                            ***************************
  

 Number of elements of the density matrix on this node (used, total):      2016      2016



 ===========================================
 Numerical Integration : Fuzzy Cells (Becke)
 ===========================================
  
 Becke grid quality: VERYGOOD       
  
 Lebedev angular grid order:             min:  13 max:  41
 Nr. of radial points:                   min: 106 max: 106

 Total nr. of points:        106
 Nr. of blocks:                1
 Block length:               106
 Nr. of dummy points:          0


 Test of Precision of the Numerical Integration Grid
 ===================================================

 Integral of the Total Core Density:                   0.00000000000000



 ========================
 Density Fitting (zlmFit)
 ========================
  
 ZlmFit Fit Quality: VERYGOOD       
  
 Max L-expansion:                        min:   0 max:   0
 Nr. of radial interpolation points:     min: 240 max: 240



 =====
 S C F  ***  ScaSCF  ***
 =====
  

 CYCLE    1
 SCF Error: norm([F,P])=      0.000000000000, max([F,P])=      0.000000000000
 orbitals (Q,E):
 ---------------
 S :1...8            ( 2.00  -612.4786)  ( 2.00  -152.6714)  ( 2.00   -67.1618)  ( 2.00   -37.3471)
                     ( 0.00   -23.4672)  ( 0.00   -15.4322)  ( 0.00    -9.8352)  ( 0.00   627.8721)
 P :1...7            ( 6.00  -153.0715)  ( 6.00   -67.2002)  ( 5.00   -36.6918)  ( 0.00   -21.5714)
                     ( 0.00   -12.7861)  ( 0.00    -7.3590)  ( 0.00    16.5106)
 D :1...4            (10.00   -67.9473)  ( 0.00   -38.1263)  ( 0.00   -23.3212)  ( 0.00   -12.4393)
 F :1...1            ( 0.00   -14.1300)

 CYCLE    2
  SDIIS (wt  0.000):  1.0000  0.0000
 A-DIIS (wt  1.000):  0.0000  1.0000
  DIIS coefficients:  0.0000  1.0000
 SCF Error: norm([F,P])=    133.903788591766, max([F,P])=     33.002638835768
 orbitals (Q,E):
 ---------------
 S :1...5            ( 2.00  -440.6623)  ( 2.00   -34.4608)  ( 2.00    -0.4838)  ( 2.00     0.2836)
                     ( 0.00     1.7588)
 P :1...4            ( 6.00   -26.4444)  ( 6.00     0.0834)  ( 5.00     0.3720)  ( 0.00     1.4169)
 D :1...2            (10.00     0.6774)  ( 0.00     3.4882)
 F :1...1            ( 0.00     1.3965)

 CYCLE    3
  SDIIS (wt  0.000):  0.1412  0.8588
 A-DIIS (wt  1.000):  0.4812  0.5188
  DIIS coefficients:  0.4812  0.5188
 SCF Error: norm([F,P])=     49.629143697465, max([F,P])=     17.595188807561
 orbitals (Q,E):
 ---------------
 S :1...5            ( 2.00  -480.8932)  ( 2.00   -64.7226)  ( 2.00   -13.6294)  ( 2.00    -3.4868)
                     ( 0.00    -0.5582)
 P :1...4            ( 6.00   -58.1726)  ( 6.00   -11.4786)  ( 5.00    -2.7508)  ( 0.00    -0.3243)
 D :1...2            (10.00    -7.6458)  ( 0.00    -1.4985)
 F :1...1            ( 0.00    -0.1774)

 CYCLE    4
  SDIIS (wt  0.000):  0.0224 -0.0021  0.9797
 A-DIIS (wt  1.000):  0.0000  0.0000  1.0000
  DIIS coefficients:  0.0000  0.0000  1.0000
 SCF Error: norm([F,P])=      9.092094844053, max([F,P])=      2.124855053538
 orbitals (Q,E):
 ---------------
 S :1...5            ( 2.00  -477.9553)  ( 2.00   -58.6455)  ( 2.00    -6.0025)  ( 2.00    -0.0887)
                     ( 0.00     0.6741)
 P :1...4            ( 6.00   -52.5726)  ( 6.00    -3.9206)  ( 5.00     0.0754)  ( 0.00     0.4470)
 D :1...2            (10.00    -0.2229)  ( 0.00     0.6460)
 F :1...1            ( 0.00     1.2104)

 CYCLE    5
  SDIIS (wt  0.000):  0.0181 -0.0308  0.6039  0.4089
 A-DIIS (wt  1.000):  0.0000  0.0000  0.5822  0.4178
  DIIS coefficients:  0.0000  0.0000  0.5822  0.4178
 SCF Error: norm([F,P])=     11.701584191548, max([F,P])=      3.988425979039
 orbitals (Q,E):
 ---------------
 S :1...5            ( 2.00  -481.8352)  ( 2.00   -62.3102)  ( 2.00    -8.5155)  ( 2.00    -0.7697)
                     ( 0.00     0.1875)
 P :1...4            ( 6.00   -56.2897)  ( 6.00    -6.4201)  ( 5.00    -0.3523)  ( 0.00     0.1239)
 D :1...2            (10.00    -2.6384)  ( 0.00     0.1906)
 F :1...1            ( 0.00     0.7840)

 CYCLE    6
  SDIIS (wt  0.000): -0.0026 -0.0016  0.0582  0.1076  0.8383
 A-DIIS (wt  1.000):  0.0000  0.0000  0.0000  0.0000  1.0000
  DIIS coefficients:  0.0000  0.0000  0.0000  0.0000  1.0000
 SCF Error: norm([F,P])=      1.823540048332, max([F,P])=      0.456619293025
 orbitals (Q,E):
 ---------------
 S :1...5            ( 2.00  -480.3974)  ( 2.00   -61.3034)  ( 2.00    -8.2095)  ( 2.00    -0.6754)
                     ( 0.00     0.2537)
 P :1...4            ( 6.00   -55.2073)  ( 6.00    -6.1080)  ( 5.00    -0.2621)  ( 0.00     0.1463)
 D :1...2            (10.00    -2.3134)  ( 0.00     0.2796)
 F :1...1            ( 0.00     0.8617)

 CYCLE    7
  SDIIS (wt  0.000): -0.0001  0.0001  0.0162 -0.0122  0.4359  0.5600
 A-DIIS (wt  1.000):  0.0000  0.0000  0.0000  0.0000  0.5218  0.4782
  DIIS coefficients:  0.0000  0.0000  0.0000  0.0000  0.5218  0.4782
 SCF Error: norm([F,P])=      1.607695839969, max([F,P])=      0.415842628955
 orbitals (Q,E):
 ---------------
 S :1...5            ( 2.00  -481.0075)  ( 2.00   -61.7929)  ( 2.00    -8.4313)  ( 2.00    -0.7171)
                     ( 0.00     0.2346)
 P :1...4            ( 6.00   -55.7193)  ( 6.00    -6.3308)  ( 5.00    -0.2925)  ( 0.00     0.1353)
 D :1...2            (10.00    -2.5382)  ( 0.00     0.2584)
 F :1...1            ( 0.00     0.8462)

 CYCLE    8
  SDIIS (wt  0.813): -0.0000  0.0000  0.0003 -0.0007  0.1156  0.1336  0.7512
 A-DIIS (wt  0.187):  0.0000  0.0000  0.0000  0.0000  0.0000  0.0000  1.0000
  DIIS coefficients: -0.0000  0.0000  0.0003 -0.0005  0.0941  0.1086  0.7976
 SCF Error: norm([F,P])=      0.065754007621, max([F,P])=      0.019467288040
 orbitals (Q,E):
 ---------------
 S :1...5            ( 2.00  -480.9996)  ( 2.00   -61.7672)  ( 2.00    -8.3915)  ( 2.00    -0.6991)
                     ( 0.00     0.2415)
 P :1...4            ( 6.00   -55.6965)  ( 6.00    -6.2914)  ( 5.00    -0.2791)  ( 0.00     0.1389)
 D :1...2            (10.00    -2.4995)  ( 0.00     0.2673)
 F :1...1            ( 0.00     0.8551)

 CYCLE    9
  SDIIS (wt  0.928): -0.0000 -0.0000 -0.0004  0.0001  0.0270  0.0241  0.3726  0.5766
 A-DIIS (wt  0.072):  0.0000  0.0000  0.0000  0.0000  0.0000  0.0000  0.1253  0.8747
  DIIS coefficients: -0.0000 -0.0000 -0.0004  0.0001  0.0251  0.0224  0.3549  0.5979
 SCF Error: norm([F,P])=      0.026013191771, max([F,P])=      0.008091160142
 orbitals (Q,E):
 ---------------
 S :1...5            ( 2.00  -481.0129)  ( 2.00   -61.7801)  ( 2.00    -8.4039)  ( 2.00    -0.7064)
                     ( 0.00     0.2380)
 P :1...4            ( 6.00   -55.7094)  ( 6.00    -6.3038)  ( 5.00    -0.2850)  ( 0.00     0.1366)
 D :1...2            (10.00    -2.5117)  ( 0.00     0.2628)
 F :1...1            ( 0.00     0.8506)

 CYCLE   10
  SDIIS (wt  1.000): -0.0000  0.0000 -0.0000 -0.0000  0.0019  0.0015  0.0216  0.0490  0.9260
  DIIS coefficients: -0.0000  0.0000 -0.0000 -0.0000  0.0019  0.0015  0.0216  0.0490  0.9260
 SCF Error: norm([F,P])=      0.000463673933, max([F,P])=      0.000100374139
 orbitals (Q,E):
 ---------------
 S :1...5            ( 2.00  -481.0128)  ( 2.00   -61.7801)  ( 2.00    -8.4038)  ( 2.00    -0.7064)
                     ( 0.00     0.2380)
 P :1...4            ( 6.00   -55.7094)  ( 6.00    -6.3036)  ( 5.00    -0.2850)  ( 0.00     0.1366)
 D :1...2            (10.00    -2.5116)  ( 0.00     0.2628)
 F :1...1            ( 0.00     0.8506)

 CYCLE   11
  SDIIS (wt  1.000): -0.0000  0.0000 -0.0000 -0.0000  0.0000  0.0000  0.0003  0.0002 -0.0123  1.0118
  DIIS coefficients: -0.0000  0.0000 -0.0000 -0.0000  0.0000  0.0000  0.0003  0.0002 -0.0123  1.0118
 SCF Error: norm([F,P])=      0.000010859575, max([F,P])=      0.000002783509
 orbitals (Q,E):
 ---------------
 S :1...5            ( 2.00  -481.0127)  ( 2.00   -61.7800)  ( 2.00    -8.4038)  ( 2.00    -0.7064)
                     ( 0.00     0.2380)
 P :1...4            ( 6.00   -55.7094)  ( 6.00    -6.3036)  ( 5.00    -0.2850)  ( 0.00     0.1366)
 D :1...2            (10.00    -2.5116)  ( 0.00     0.2628)
 F :1...1            ( 0.00     0.8506)

 CYCLE   12
  SDIIS (wt  1.000): -0.0000  0.0000  0.0000 -0.0114  1.0114
  DIIS coefficients: -0.0000  0.0000  0.0000 -0.0114  1.0114
 SCF Error: norm([F,P])=      0.000000253956, max([F,P])=      0.000000059059
 orbitals (Q,E):
 ---------------
 S :1...5            ( 2.00  -481.0127)  ( 2.00   -61.7800)  ( 2.00    -8.4038)  ( 2.00    -0.7064)
                     ( 0.00     0.2380)
 P :1...4            ( 6.00   -55.7094)  ( 6.00    -6.3036)  ( 5.00    -0.2850)  ( 0.00     0.1366)
 D :1...2            (10.00    -2.5116)  ( 0.00     0.2628)
 F :1...1            ( 0.00     0.8506)

 CYCLE   13
  SDIIS (wt  1.000):  0.0000 -0.0000 -0.0002  0.0472  0.9530
  DIIS coefficients:  0.0000 -0.0000 -0.0002  0.0472  0.9530
 SCF Error: norm([F,P])=      0.000000008156, max([F,P])=      0.000000002198
 orbitals (Q,E):
 ---------------
 S :1...5            ( 2.00  -481.0127)  ( 2.00   -61.7800)  ( 2.00    -8.4038)  ( 2.00    -0.7064)
                     ( 0.00     0.2380)
 P :1...4            ( 6.00   -55.7094)  ( 6.00    -6.3036)  ( 5.00    -0.2850)  ( 0.00     0.1366)
 D :1...2            (10.00    -2.5116)  ( 0.00     0.2628)
 F :1...1            ( 0.00     0.8506)

 SCF CONVERGED

 CYCLE   14
1
 ***************************************************************************************************



                                                *******************
                                                *  R E S U L T S  *
                                                *******************
  
 *** Setting up for NEW gradients in Focky
 *** Using FIT density in Focky

 Orbital Energies, per Irrep and Spin:
 ======================================
                        Occup              E (au)              E (eV)       Diff (eV) with prev. cycle
                        -----      --------------------        ------       --------------------------
 S
               1        2.000     -0.48101274587878E+03    -13089.023              -3.04E-09
               2        2.000     -0.61780048652770E+02     -1681.121              -1.31E-09
               3        2.000     -0.84037718795876E+01      -228.678              -2.39E-09
               4        2.000     -0.70640809652946E+00       -19.222              -2.94E-09
               5        0.000      0.23797090184212E+00         6.476
               6        0.000      0.24655941619123E+01        67.092
               7        0.000      0.14293653166507E+02       388.950
               8        0.000      0.74647931329126E+03     20312.736
 P
               1        6.000     -0.55709370544448E+02     -1515.929              -1.51E-09
               2        6.000     -0.63036166135521E+01      -171.530              -2.40E-09
               3        5.000     -0.28498840632736E+00        -7.755              -2.43E-09
               4        0.000      0.13662305746037E+00         3.718
               5        0.000      0.12150701661254E+01        33.064
               6        0.000      0.88352207867396E+01       240.419
               7        0.000      0.10087703617678E+03      2745.004
 D
               1       10.000     -0.25115984206638E+01       -68.344              -2.31E-09
               2        0.000      0.26280809227202E+00         7.151
               3        0.000      0.26773687643251E+01        72.855
               4        0.000      0.20605889125446E+02       560.715
 F
               1        0.000      0.85063213392394E+00        23.147


 Partially Occupied:
               3 P                -0.28498840632736E+00
  
 HOMO :        4 S                -0.70640809652946E+00
 LUMO :        4 P                 0.13662305746037E+00
  


 Orbital Energies, all Irreps
 ========================================

 Irrep        no.  (spin)   Occup              E (au)                E (eV)
 ---------------------------------------------------------------------------
 S             1             2.00       -0.48101274587878E+03    -13089.0228
 S             2             2.00       -0.61780048652770E+02     -1681.1207
 P             1             6.00       -0.55709370544448E+02     -1515.9291
 S             3             2.00       -0.84037718795876E+01      -228.6783
 P             2             6.00       -0.63036166135521E+01      -171.5301
 D             1            10.00       -0.25115984206638E+01       -68.3441
 S             4             2.00       -0.70640809652946E+00       -19.2223
 P             3             5.00       -0.28498840632736E+00        -7.7549
 P             4             0.00        0.13662305746037E+00         3.7177
 S             5             0.00        0.23797090184212E+00         6.4755
 D             2             0.00        0.26280809227202E+00         7.1514
 F             1             0.00        0.85063213392394E+00        23.1469
 P             5             0.00        0.12150701661254E+01        33.0637
 S             6             0.00        0.24655941619123E+01        67.0922
 D             3             0.00        0.26773687643251E+01        72.8549
 P             6             0.00        0.88352207867396E+01       240.4186
 S             7             0.00        0.14293653166507E+02       388.9501
 D             4             0.00        0.20605889125446E+02       560.7148
 P             7             0.00        0.10087703617678E+03      2745.0038
 S             8             0.00        0.74647931329126E+03     20312.7356


 All Electron Calculation, thus no Orbital Energies of the Core Orbitals are calculated



 =======================================
 M U L L I K E N   P O P U L A T I O N S
 =======================================
  
 The survey below gives for each atom:
 a) the total charge (Z minus electrons)
 b) the net spin polarization (nr of electrons spin-A minus spin-B)
 c) for each spin the atomic electron valence density (integrated) per L-value.

 Atom              Charge    Spin density          S         P         D         F
 ----              ------    ------------       ------    ------    ------    ------
 1 Br              0.0000                       8.0000   17.0000   10.0000    0.0000

 Populations of individual BAS functions
 ----------------------------------------
 1 Br           0.3604  1.5689  2.0728  0.7136  0.7136  0.7136  1.2644  1.2644  1.2644  1.4494
                0.5676  1.1356  1.1356  1.1356  0.8920  0.8920  0.8920  0.2683  0.4025  0.4025
                0.2683  0.4025  0.2683  0.7743  1.1615  1.1615  0.7743  1.1615  0.7743  0.2907
                0.4361  0.4361  0.2907  0.4361  0.2907  0.2958  1.2583  0.4268  0.5585  0.5585
                0.5585  0.8946  0.8946  0.8946  0.2080  0.2080  0.2080 -0.0001 -0.0001 -0.0001
               -0.0001 -0.0001 -0.0001  0.0000  0.0000  0.0000  0.0000  0.0000  0.0000  0.0000
                0.0000  0.0000  0.0000

 Gross Charges per Atom (Z minus electrons)
 ==========================================
             0.0000
 Net Total:  0.00000000



 =======================================================================
 Electrostatic potential at the Nuclei due to electrons and other nuclei
 =======================================================================
  
         Atom                  Potential
         ----                  ---------
     1)   Br                175.92949555
 
 
 ========================
 No memory problems found
 ========================
 
 Maximum number of active allocate calls:         447
 
 *******************************************************************************

                             A D F   E X I T
 NORMAL TERMINATION



 =================
 Timing Statistics
 =================
  
 Total Used :                     CPU=        1.30      System=        0.04     Elapsed=        1.34

 Calls  Section                     ( Mean, Percentage )
 ---------------------------------------------------------------------------------------------------
     3  ><      ................      0.00    0.08             0.00    0.00             0.00    0.06
     1  INIT    ................      0.02    1.23             0.02   47.37             0.03    2.60
     1  GEOMET  ................      0.01    0.77             0.00    7.89             0.01    1.00
     1  INPUTA  ................      0.00    0.23             0.00    0.00             0.00    0.24
     1  MAINSY  ................      0.01    0.54             0.00    2.63             0.01    0.59
     1  SYMFIT  ................      0.00    0.00             0.00    2.63             0.00    0.09
     1  CORORT  ................      0.00    0.08             0.00    0.00             0.00    0.03
     1  SYMORB  ................      0.00    0.08             0.00    0.00             0.00    0.12
     1  CLSMAT  ................      0.01    0.69             0.00    0.00             0.01    0.68
     1  ORTHON  ................      0.00    0.15             0.00    5.26             0.00    0.24
     1  GENPT   ................      0.03    2.61             0.00    0.00             0.03    2.55
     1  PTBAS   ................      0.00    0.38             0.00    2.63             0.01    0.48
    14  FOCKY   ................      0.08   81.21             0.00   15.79             0.08   79.15
    14  FOCKTR  ................      0.00    1.46             0.00    0.00             0.00    1.52
    14  SDIIS   ................      0.00    2.99             0.00    2.63             0.00    2.86
     1  COREPS  ................      0.06    4.60             0.00    2.63             0.06    4.66
     1  POPAN   ................      0.01    0.69             0.00    2.63             0.01    0.69
     1  DEBYE   ................      0.00    0.08             0.00    0.00             0.00    0.09
     1  EXIT PROCEDURE .........      0.03    2.15             0.00    7.90             0.03    2.35


 Currently Open Files (EXIT00)
 ====================

 Unit    Access Format  Status   Type       Ident (file)
 -------------------------------------------------------
   3      SEQ    FORM   TRANSP  NORMAL      LOGFILE
                                          ( logfile )


 Buffered I/O statistics
 =======================
 Memory available:                     67108864
 Number of records fitting in memory:     16131
 Input :   0.1% of                        29670  *4k bytes
 Output:  12.0% of                         1573  *4k bytes
 Records from serial files evicted:           0
                    others evicted:           0
 Hash table lookups:      77031 with          0 conflicts (  0.00%)

 ***************************************************************************************************
 (LOGFILE)
 <May09-2019> <17:12:31>  ADF 2017  RunTime: May09-2019 17:12:31  Nodes: 1  Procs: 1
 <May09-2019> <17:12:31>  Hydrogen (TZ2P)
 <May09-2019> <17:12:31>  RunType   : CREATE
 <May09-2019> <17:12:31>  Net Charge: 0 (Nuclei minus Electrons)
 <May09-2019> <17:12:31>  Symmetry  : ATOM
  Coordinates
    Atom         X           Y           Z   (Angstrom)
    1.H         0.000000    0.000000    0.000000
 <May09-2019> <17:12:31>  >>>> CORORT
 <May09-2019> <17:12:31>  >>>> CLSMAT
 <May09-2019> <17:12:31>  >>>> ORTHON
 <May09-2019> <17:12:31>  >>>> GENPT
 <May09-2019> <17:12:31>  Block Length=  64
 <May09-2019> <17:12:31>  >>>> PTBAS
 <May09-2019> <17:12:31>  >>>> CYCLE
 <May09-2019> <17:12:31>              |Error|         MaxErr       Wt(A-DIIS)
 <May09-2019> <17:12:31>      1      0.00000000      0.00000000
 <May09-2019> <17:12:31>      2      0.03100286      0.02644424
 <May09-2019> <17:12:31>      3      0.00958001      0.00932852    100.0
 <May09-2019> <17:12:31>      4      0.00232093      0.00228640      1.3
 <May09-2019> <17:12:31>      5      0.00003155      0.00002984      0.0
 <May09-2019> <17:12:31>      6      0.00000096      0.00000091      0.0
 <May09-2019> <17:12:31>      7      0.00000000      0.00000000      0.0
 <May09-2019> <17:12:31>  SCF converged
 <May09-2019> <17:12:31>      8      0.00000000      0.00000000      0.0
 <May09-2019> <17:12:31>  >>>> POPAN
 <May09-2019> <17:12:31>  >>>> DEBYE
 <May09-2019> <17:12:31>  NORMAL TERMINATION
 <May09-2019> <17:12:31>  END
 <May09-2019> <17:12:31>  ADF 2017  RunTime: May09-2019 17:12:31  Nodes: 1  Procs: 1
 <May09-2019> <17:12:31>  Bromine (TZ2P)
 <May09-2019> <17:12:31>  RunType   : CREATE
 <May09-2019> <17:12:31>  Net Charge: 0 (Nuclei minus Electrons)
 <May09-2019> <17:12:31>  Symmetry  : ATOM
  Coordinates
    Atom         X           Y           Z   (Angstrom)
    1.Br        0.000000    0.000000    0.000000
 <May09-2019> <17:12:31>  >>>> CORORT
 <May09-2019> <17:12:31>  >>>> CLSMAT
 <May09-2019> <17:12:31>  >>>> ORTHON
 <May09-2019> <17:12:31>  >>>> GENPT
 <May09-2019> <17:12:31>  Block Length= 106
 <May09-2019> <17:12:31>  >>>> PTBAS
 <May09-2019> <17:12:31>  >>>> CYCLE
 <May09-2019> <17:12:32>              |Error|         MaxErr       Wt(A-DIIS)
 <May09-2019> <17:12:32>      1      0.00000000      0.00000000
 <May09-2019> <17:12:32>      2    133.90378859     33.00263884    100.0
 <May09-2019> <17:12:32>      3     49.62914370     17.59518881    100.0
 <May09-2019> <17:12:32>      4      9.09209484      2.12485505    100.0
 <May09-2019> <17:12:32>      5     11.70158419      3.98842598    100.0
 <May09-2019> <17:12:32>      6      1.82354005      0.45661929    100.0
 <May09-2019> <17:12:32>      7      1.60769584      0.41584263    100.0
 <May09-2019> <17:12:32>      8      0.06575401      0.01946729     18.7
 <May09-2019> <17:12:32>      9      0.02601319      0.00809116      7.2
 <May09-2019> <17:12:32>     10      0.00046367      0.00010037      0.0
 <May09-2019> <17:12:32>     11      0.00001086      0.00000278      0.0
 <May09-2019> <17:12:32>     12      0.00000025      0.00000006      0.0
 <May09-2019> <17:12:32>     13      0.00000001      0.00000000      0.0
 <May09-2019> <17:12:32>  SCF converged
 <May09-2019> <17:12:33>     14      0.00000000      0.00000000      0.0
 <May09-2019> <17:12:33>  >>>> POPAN
 <May09-2019> <17:12:33>  >>>> DEBYE
 <May09-2019> <17:12:33>  NORMAL TERMINATION
 <May09-2019> <17:12:33>  END


 Parallel Execution: Process Information
 ==============================================================================
 Rank   Node Name                              NodeID   MyNodeRank  NodeMaster
    0   BAZIS-cn022                               0          0          0
    1   BAZIS-cn022                               0          1         -1
    2   BAZIS-cn022                               0          2         -1
    3   BAZIS-cn022                               0          3         -1
    4   BAZIS-cn022                               0          4         -1
    5   BAZIS-cn022                               0          5         -1
    6   BAZIS-cn022                               0          6         -1
    7   BAZIS-cn022                               0          7         -1
    8   BAZIS-cn022                               0          8         -1
    9   BAZIS-cn022                               0          9         -1
   10   BAZIS-cn022                               0         10         -1
   11   BAZIS-cn022                               0         11         -1
 ==============================================================================


May use up to 30771MB of RAM as shared memory on node 0


XC
  GGA blyp
  DISPERSION Grimme3 BJDAMP
END

SCF
  iterations 250
END

SYMMETRY nosym
CHARGE 0

ZLMFIT
  Quality normal
END

BECKEGRID
  Quality good
End

ATOMS
    1.Br       -4.008834   -0.381143   -0.063856
    2.H        -2.507210    0.445110    0.798797
END

Fragments
H t21.H
Br t21.Br
End
end input

 *******************************************************************************
 *                                                                             *
 *  -------------------------------------                                      *
 *   Amsterdam Density Functional  (ADF)         2017                          *
 *  -------------------------------------                                      *
 *                                               r58813 2017-04-12             *
 *                                                                             *
 *                                                                             *
 *                              =================                              *
 *                              |               |                              *
 *                              |     A D F     |                              *
 *                              |               |                              *
 *                              =================                              *
 *                                                                             *
 *                                                                             *
 *   Online information and documentation:  https://www.scm.com/support/       *
 *   E-mail:  support@scm.com   info@scm.com                                   *
 *                                                                             *
 *   Scientific publications using ADF results must be properly referenced     *
 *   See the User Manuals (or the web site) for recommended citations          *
 *   The terms and conditions of the End User License Agreement apply to       *
 *   the use of ADF, https://www.scm.com/license-terms/                        *
 *                                                                             *
 **********************  x86_64_linux_intel / intelmpi  ************************
 
 Licensed to: VU/FEW (+ SARA) / ALGEMEEN / Amsterdam / THE NETHERLANDS
 SCM User ID: u7668
  
 ADF 2017  RunTime: May09-2019 17:12:33  Nodes: 1  Procs: 12

 Temporary files are created in /local/datastore0/tcst25/189794/kid_0.loV9cM


Communication costs MPI_COMM_WORLD:      3.844 usec per message,   0.0179 usec per 8-byte item
Communication costs for intra-node:      3.818 usec per message,   0.0175 usec per 8-byte item

 *** (NO TITLE) ***



 ===========================
 A T T A C H E D   F I L E S
 ===========================
  



 ===============================
 M O D E L   P A R A M E T E R S
 ===============================
  
 DENSITY FUNCTIONAL POTENTIAL (scf)
    LDA:                               Exchange only                           == Not Default ==
    Gradient Corrections:              Becke88 LYP                             == Not Default ==

 SPIN  (restricted / unrestr.)
    Molecule:                          Restricted                               
    Fragments:                         Restricted                               

 OTHER ASPECTS
    Relativistic Corrections:          ---                                      

    Nuclear Charge Density Model:      Point Charge Nuclei                      
    Core Treatment:                    Frozen Orbital(s)                        

    Hyperfine or Zeeman Interaction:   ---                                      

 Settings for Grimme 3 dispersion correction

      damping                        BJ
      s6                          1.000
      a1                          0.430
      s8                          2.700
      a2                          4.236

 Other (technical) parameters

      alpha                      14.000
      version                         4
 


 Fragment File(s)
 ----------------
 Br:
         file : t21.Br
         jobid: ADF 2017  RunTime: May09-2019 17:12:31  Nodes: 1  Procs: 1
         title: Bromine (TZ2P)
 H:
         file : t21.H
         jobid: ADF 2017  RunTime: May09-2019 17:12:31  Nodes: 1  Procs: 1
         title: Hydrogen (TZ2P)



                                        ************************************
                                        *  R U N   T Y P E : SINGLE POINT  *
                                        ************************************
  



 ===============
 G E O M E T R Y  ***  Linear Molecule  ***
 ===============
  

 ATOMS
 =====                            X Y Z                    CHARGE
                                (Angstrom)             Nucl     +Core       At.Mass
                       --------------------------    ----------------       -------
    1  Br             -4.0088   -0.3811   -0.0639     35.00     35.00       78.9183
    2  H              -2.5072    0.4451    0.7988      1.00      1.00        1.0078


 FRAGMENTS
 =========                                     Atoms in this Fragment     Cart. coord.s (Angstrom)
                                               -------------------------------------------------------
    1  Br                                                1  Br          -4.0088   -0.3811   -0.0639
    2  H                                                 2  H           -2.5072    0.4451    0.7988


 Interatomic Distance Matrix (Angstrom)
 --------------------------------------

   1)     0.000
   2)     1.919   0.000



 =====================================
 S Y M M E T R Y ,   E L E C T R O N S
 =====================================
  
 Symmetry: NOSYM

 Irreducible Representations, including subspecies
 -------------------------------------------------
 A


 Configuration of Valence Electrons
 ==================================
 ( determined in the SCF procedure )

 Total:   36

 Net Charge: 0 (Nuclei minus Electrons)

 Aufbau principle for MO occupations will be applied through SCF cycle no.     125
 Thereafter, the program will assign electrons to MOs that are spatially
 similar to the occupied MOs in a "reference" cycle ("KeepOrbitals").
 The reference cycle is always the PREVIOUS cycle: it will evolve with
 the SCF procedure.
1
 ***************************************************************************************************



                                      ****************************************
                                      *  B U I L D : (Fragments, Functions)  *
                                      ****************************************
  



 =======
 S F O s  ***  (Symmetrized Fragment Orbitals)  ***
 =======
  
 SFOs are linear combinations of (valence) Fragment Orbitals (FOs), such that the SFOs transform as the
 irreducible representations of the (molecular) symmetry group. Each SFO is therefore characterized by
 an irrep of the molecule and by a few (or only one) generating FOs.
 The SFOs constitute a symmetry-adapted basis for the Fock matrix. The MO eigenvector coefficients in
 this basis provide a direct interpretation of the MOs in terms of Frontier Orbital Theory.

 The SFOs are combined with auxiliary Core Functions (CFs) to ensure orthogonalization on the (frozen)
 Core Orbitals (COs). The Core-orthogonalized SFOs (CSFOs) constitute the true Fock basis.

 The FOs, and hence also the (C)SFOs are combinations of the elementary basis functions (BAS). The basis
 functions that participate in the description of the SFOs depend on the irrep. The indices of the
 involved functions are printed below for each irrep.
 (The complete list of primitive basis functions is printed in another section)

 Total nr. of (C)SFOs (summation over all irreps) :    67

 NOTE: a (C)SFO that is defined as a combination of more than one FO is usually NOT normalized.



                                       === A ===
 Nr. of SFOs :   67
 Cartesian basis functions that participate in this irrep (total number =    75) :
      1     2     3    10    11    36    37    38     4     7
     12    15    39    42    45     5     8    13    16    40
     43    46     6     9    14    17    41    44    47    18
     24    30    48    19    25    31    49    20    26    32
     50    21    27    33    51    22    28    34    52    23
     29    35    53    54    55    56    57    58    59    60
     61    62    63    64    65    66    67    68    69    70
     71    72    73    74    75

    SFO  (index         Fragment          Generating    Expansion in Fragment Orbitals
  indx  incl.CFs)   Occup   Orb.Energy   FragmentType  Coeff.   Orbital     on Fragment
 --------------------------------------------------------------------------------------
     1       1      2.000    -481.013 au  Br            1.00      1 S               1
                        (  -13089.023 eV)
     2       2      2.000     -61.780 au  Br            1.00      2 S               1
                        (   -1681.121 eV)
     3       3      2.000      -8.404 au  Br            1.00      3 S               1
                        (    -228.678 eV)
     4       4      2.000      -0.706 au  Br            1.00      4 S               1
                        (     -19.222 eV)
     5       5       --         0.238 au  Br            1.00      5 S               1
                        (       6.476 eV)
     6       6       --         2.466 au  Br            1.00      6 S               1
                        (      67.092 eV)
     7       7       --        14.294 au  Br            1.00      7 S               1
                        (     388.950 eV)
     8       8       --       746.479 au  Br            1.00      8 S               1
                        (   20312.736 eV)
     9       9      2.000     -55.709 au  Br            1.00      1 P:x             1
                        (   -1515.929 eV)
    10      10      2.000      -6.304 au  Br            1.00      2 P:x             1
                        (    -171.530 eV)
    11      11      1.667      -0.285 au  Br            1.00      3 P:x             1
                        (      -7.755 eV)
    12      12       --         0.137 au  Br            1.00      4 P:x             1
                        (       3.718 eV)
    13      13       --         1.215 au  Br            1.00      5 P:x             1
                        (      33.064 eV)
    14      14       --         8.835 au  Br            1.00      6 P:x             1
                        (     240.419 eV)
    15      15       --       100.877 au  Br            1.00      7 P:x             1
                        (    2745.004 eV)
    16      16      2.000     -55.709 au  Br            1.00      1 P:y             1
                        (   -1515.929 eV)
    17      17      2.000      -6.304 au  Br            1.00      2 P:y             1
                        (    -171.530 eV)
    18      18      1.667      -0.285 au  Br            1.00      3 P:y             1
                        (      -7.755 eV)
    19      19       --         0.137 au  Br            1.00      4 P:y             1
                        (       3.718 eV)
    20      20       --         1.215 au  Br            1.00      5 P:y             1
                        (      33.064 eV)
    21      21       --         8.835 au  Br            1.00      6 P:y             1
                        (     240.419 eV)
    22      22       --       100.877 au  Br            1.00      7 P:y             1
                        (    2745.004 eV)
    23      23      2.000     -55.709 au  Br            1.00      1 P:z             1
                        (   -1515.929 eV)
    24      24      2.000      -6.304 au  Br            1.00      2 P:z             1
                        (    -171.530 eV)
    25      25      1.667      -0.285 au  Br            1.00      3 P:z             1
                        (      -7.755 eV)
    26      26       --         0.137 au  Br            1.00      4 P:z             1
                        (       3.718 eV)
    27      27       --         1.215 au  Br            1.00      5 P:z             1
                        (      33.064 eV)
    28      28       --         8.835 au  Br            1.00      6 P:z             1
                        (     240.419 eV)
    29      29       --       100.877 au  Br            1.00      7 P:z             1
                        (    2745.004 eV)
    30      30      2.000      -2.512 au  Br            1.00      1 D:z2            1
                        (     -68.344 eV)
    31      31       --         0.263 au  Br            1.00      2 D:z2            1
                        (       7.151 eV)
    32      32       --         2.677 au  Br            1.00      3 D:z2            1
                        (      72.855 eV)
    33      33       --        20.606 au  Br            1.00      4 D:z2            1
                        (     560.715 eV)
    34      34      2.000      -2.512 au  Br            1.00      1 D:x2-y2         1
                        (     -68.344 eV)
    35      35       --         0.263 au  Br            1.00      2 D:x2-y2         1
                        (       7.151 eV)
    36      36       --         2.677 au  Br            1.00      3 D:x2-y2         1
                        (      72.855 eV)
    37      37       --        20.606 au  Br            1.00      4 D:x2-y2         1
                        (     560.715 eV)
    38      38      2.000      -2.512 au  Br            1.00      1 D:xy            1
                        (     -68.344 eV)
    39      39       --         0.263 au  Br            1.00      2 D:xy            1
                        (       7.151 eV)
    40      40       --         2.677 au  Br            1.00      3 D:xy            1
                        (      72.855 eV)
    41      41       --        20.606 au  Br            1.00      4 D:xy            1
                        (     560.715 eV)
    42      42      2.000      -2.512 au  Br            1.00      1 D:xz            1
                        (     -68.344 eV)
    43      43       --         0.263 au  Br            1.00      2 D:xz            1
                        (       7.151 eV)
    44      44       --         2.677 au  Br            1.00      3 D:xz            1
                        (      72.855 eV)
    45      45       --        20.606 au  Br            1.00      4 D:xz            1
                        (     560.715 eV)
    46      46      2.000      -2.512 au  Br            1.00      1 D:yz            1
                        (     -68.344 eV)
    47      47       --         0.263 au  Br            1.00      2 D:yz            1
                        (       7.151 eV)
    48      48       --         2.677 au  Br            1.00      3 D:yz            1
                        (      72.855 eV)
    49      49       --        20.606 au  Br            1.00      4 D:yz            1
                        (     560.715 eV)
    50      50       --         0.851 au  Br            1.00      1 F:z3            1
                        (      23.147 eV)
    51      51       --         0.851 au  Br            1.00      1 F:z             1
                        (      23.147 eV)
    52      52       --         0.851 au  Br            1.00      1 F:xyz           1
                        (      23.147 eV)
    53      53       --         0.851 au  Br            1.00      1 F:z2x           1
                        (      23.147 eV)
    54      54       --         0.851 au  Br            1.00      1 F:z2y           1
                        (      23.147 eV)
    55      55       --         0.851 au  Br            1.00      1 F:x             1
                        (      23.147 eV)
    56      56       --         0.851 au  Br            1.00      1 F:y             1
                        (      23.147 eV)
    57      57      1.000      -0.240 au  H             1.00      1 S               2
                        (      -6.532 eV)
    58      58       --         0.088 au  H             1.00      2 S               2
                        (       2.394 eV)
    59      59       --         1.502 au  H             1.00      3 S               2
                        (      40.877 eV)
    60      60       --         0.406 au  H             1.00      1 P:x             2
                        (      11.052 eV)
    61      61       --         0.406 au  H             1.00      1 P:y             2
                        (      11.052 eV)
    62      62       --         0.406 au  H             1.00      1 P:z             2
                        (      11.052 eV)
    63      63       --         2.570 au  H             1.00      1 D:z2            2
                        (      69.925 eV)
    64      64       --         2.570 au  H             1.00      1 D:x2-y2         2
                        (      69.925 eV)
    65      65       --         2.570 au  H             1.00      1 D:xy            2
                        (      69.925 eV)
    66      66       --         2.570 au  H             1.00      1 D:xz            2
                        (      69.925 eV)
    67      67       --         2.570 au  H             1.00      1 D:yz            2
                        (      69.925 eV)



 ================================
 (Slater-type)  F U N C T I O N S  ***  (Basis and Fit)  ***
 ================================
  

 Atom Type    1  (Br)
 ==============

 Valence Basis Sets:  20
 -----------------------
   1 S   41.300000
   1 S   32.800000
   2 S   13.900000
   2 P   19.450000
   2 P   13.100000
   3 S    7.200000
   3 S    4.950000
   3 P    7.900000
   3 P    5.050000
   3 D   10.900000
   3 D    6.050000
   3 D    3.500000
   4 S    4.500000
   4 S    2.800000
   4 S    1.800000
   4 P    3.250000
   4 P    1.950000
   4 P    1.200000
   4 D    1.800000
   4 F    1.800000

 Atom Type    2  (H)
 ==============

 Valence Basis Sets:   5
 -----------------------
   1 S    0.690000
   1 S    0.920000
   1 S    1.580000
   2 P    1.250000
   3 D    2.500000


 BAS: List of all Elementary Cartesian Basis Functions
 =====================================================

 The numbering in the list below (to the right of the function characteristics) is referred
 to in print-outs of MO eigenvectors and Mulliken populations in the BAS representation
 (as contrasted to the SFO representation).

 Notes:
 1. The functions are characterized by a polynomial prefactor (powers of x,y,z and r) and
    an exponential decay factor alpha.
 2. Since the basis sets are specific for an atom TYPE, the individual functions occur on
    all atoms of that type.
 3. The word 'Core' in the left margin signals that it is a Core Function (CF) : not a
    degree of freedom in the valence set, but only used to ensure orthogonalization of
    the other valence basis functions on the frozen Core Orbitals.


 (power of) X  Y  Z  R     Alpha  on Atom
            ==========     =====     ==========

 Br                                   1
[...]
  Total Orbital Interactions:           -0.244542555543290         -6.6543          -153.45          -642.05

Alternative Decomposition Orb.Int.
  Kinetic:                              -0.841313983238853        -22.8933          -527.93         -2208.87
  Coulomb:                               0.560753101949918         15.2589           351.88          1472.26
  XC:                                    0.036018325745645          0.9801            22.60            94.57
                                      --------------------     -----------       ----------      -----------
  Total Orbital Interactions:           -0.244542555543290         -6.6543          -153.45          -642.05

  Residu (E=Steric+OrbInt+Res):         -0.000001076892642         -0.0000            -0.00            -0.00
  Dispersion Energy:                    -0.000968086683880         -0.0263            -0.61            -2.54

Total Bonding Energy:                   -0.140524401382528         -3.8239           -88.18          -368.95


Summary of Bonding Energy (energy terms are taken from the energy decomposition above)
======================================================================================

  Electrostatic Energy:                 -0.044355006122326         -1.2070           -27.83          -116.45
  Kinetic Energy:                        0.009727602984790          0.2647             6.10            25.54
  Coulomb (Steric+OrbInt) Energy:       -0.049575601947727         -1.3490           -31.11          -130.16
  XC Energy:                            -0.055353309613384         -1.5062           -34.73          -145.33
  Dispersion Energy:                    -0.000968086683880         -0.0263            -0.61            -2.54
                                      --------------------     -----------       ----------      -----------
  Total Bonding Energy:                 -0.140524401382528         -3.8239           -88.18          -368.95


Correction terms (incorporated in energies above; only for test purposes):

1. Indication of fit-quality: 1st-order fit-correction used in the energy (hartree):   0.0000211548
2. Electrostatic (Fit correction):   0.0000000000



 =========================================
 F R A G M E N T   E N E R G Y   T E R M S  ***  (summed over all fragments)  ***
 =========================================
  

The energy terms below are (parts of) the Total Energy of the fragments from which the molecule
 is built.

Exchange and Correlation
  Exchange LDA:                        -84.775321433794332      -2306.8539        -53197.32       -222577.57
  Exchange GGA:                         -5.108532632678976       -139.0102         -3205.65        -13412.45
  Correlation LDA:                       0.000000000000000          0.0000             0.00             0.00
  Correlation GGA:                      -1.706482232454135        -46.4357         -1070.83         -4480.37
                                      --------------------     -----------       ----------      -----------
  Total XC:                            -91.590336298927440      -2492.2999        -57473.81       -240470.39
1



 =======================================================
 S F O   P O P U L A T I O N S ,   M O   A N A L Y S I S
 =======================================================
  
 A Mulliken population analysis is performed on (input-)selected MOs. All populations refer to SFOs.
 BAS populations may have been printed directly after the SCF part.


                                       === A ===


 SFO contributions (%) per orbital
 (multiplication by the orbital occupation yields the SFO Gross Populations)

 Orb.:        9     10     11     12     13     14     15     16     17     18     19     20     21     22
 occup:     2.00   2.00   2.00   2.00   2.00   2.00   2.00   2.00   2.00   2.00   0.00   0.00   0.00   0.00
 CF+SFO     ----   ----   ----   ----   ----   ----   ----   ----   ----   ----   ----   ----   ----   ----
 ------
      4:   -0.00   0.00   0.00   0.00   0.00   0.00  97.62   1.61   0.00   0.00   0.97  -0.82   0.20   0.00
      5:    0.00   0.00   0.00   0.00  -0.00  -0.00   0.00  -0.26  -0.00  -0.00  -1.27  -3.62   2.32   0.00
     10:   38.30   0.00   0.00   0.00   0.00   0.00   0.00   0.00  -0.00  -0.00  -0.00   0.00   0.00   0.00
     11:    0.00  -0.00   0.00   0.00  -0.00   0.00   0.08  35.98  24.73  13.81  24.22  -0.39   0.20   0.03
     12:    0.00   0.00   0.00   0.00   0.00   0.00  -0.00  -0.35   0.01   0.00  -1.97  -2.25  60.95  37.27
     17:   37.96   0.00   0.00   0.00   0.00   0.00   0.00   0.00  -0.00  -0.00  -0.00   0.00   0.00   0.00
     18:    0.00  -0.00   0.00   0.00   0.00   0.00   0.02  10.89  74.56   6.44   7.33  -0.12   0.06   0.02
     19:    0.00   0.00   0.00   0.00  -0.00   0.00  -0.00  -0.11   0.02   0.00  -0.60  -0.68  18.46  24.63
     24:   23.73   0.00   0.00   0.00   0.00   0.00   0.00   0.00  -0.00  -0.00  -0.00   0.00   0.00   0.00
     25:    0.00  -0.00   0.00   0.00   0.00   0.00   0.03  11.88   0.15  79.19   7.99  -0.13   0.07   0.03
     26:    0.00   0.00   0.00   0.00  -0.00   0.00  -0.00  -0.12   0.00   0.02  -0.65  -0.74  20.11  34.51
     30:    0.00   3.88  23.22  25.15   0.23  47.52   0.00   0.00   0.00   0.00   0.00   0.00   0.00  -0.00
     34:    0.00  13.68  15.62  45.93  12.69  12.08   0.00   0.00   0.00   0.00   0.00   0.00   0.00  -0.00
     38:    0.00  34.06  33.61   0.75   7.60  23.97   0.00   0.00   0.00   0.00   0.00   0.00   0.00  -0.00
     39:   -0.00  -0.00  -0.00  -0.00   0.00   0.00   0.03   0.27   0.00   0.00   0.96   2.34   0.67   0.01
     42:    0.00  37.13  26.83   5.12  16.40  14.52   0.00   0.00   0.00   0.00   0.00   0.00   0.00  -0.00
     43:   -0.00  -0.00  -0.00  -0.00   0.00   0.00   0.03   0.30   0.00   0.00   1.05   2.55   0.73   0.02
     46:    0.00  11.24   0.72  23.04  63.08   1.91   0.00   0.00   0.00   0.00   0.00   0.00   0.00  -0.00
     57:    0.00   0.00   0.00  -0.00  -0.00  -0.00   2.20  38.39   0.00   0.00  60.19   1.36  -3.88   0.00
     58:    0.00  -0.00  -0.00   0.00   0.00   0.00  -0.50   0.96  -0.00   0.00  -0.37 100.11  -1.98   0.00
     60:   -0.00   0.00   0.00   0.00  -0.00   0.00   0.28   0.23   0.12   0.07   1.13  -0.29   1.54   1.12
     62:   -0.00   0.00   0.00   0.00   0.00   0.00   0.09   0.08   0.00   0.39   0.37  -0.10   0.51   1.03


 Summation over all MOs, multiplied by occupation: Total SFO Gross Populations in this Irrep
 ===========================================================================================

     2.00    2.00    2.00    1.98   -0.01    0.00    0.00   -0.00    2.00    2.00    1.49   -0.01
    -0.00   -0.00    0.00    2.00    2.00    1.84   -0.00   -0.00   -0.00    0.00    2.00    2.00
     1.82   -0.00   -0.00   -0.00    0.00    2.00    0.00   -0.00   -0.00    2.00    0.00   -0.00
    -0.00    2.00    0.01   -0.00   -0.00    2.00    0.01   -0.00   -0.00    2.00    0.00   -0.00
    -0.00    0.00    0.00    0.00    0.00    0.00    0.00    0.00    0.81    0.01   -0.01    0.01
     0.01    0.01    0.00    0.00    0.00    0.00    0.00



 List of all MOs, ordered by energy, with the most significant SFO gross populations
 ===================================================================================

 Each percentage contribution in the table below corresponds to the indicated SFO.
 In general, a SFO may be a linear combination of several Fragment Orbitals on the same,
 or on symmetry-related Fragments. Only the first 'member' of such a combination is
 specified here. A full definition of all SFOs is given in an earlier part of the output.
 The numbering of the SFOs in this table does NOT include the Core Orbitals, and starts
 from one for each symmetry representation, as in the SFO definition list earlier.

       E(eV)  Occ       MO           %     SFO (first member)   E(eV)  Occ   Fragment
 -------------------------------------------------------------------------------------

     -18.954  2.00    15 A         97.62%     4 S             -19.222  2.00     1 Br
                                    2.20%     1 S              -6.532  1.00     2 H
      -9.734  2.00    16 A         38.39%     1 S              -6.532  1.00     2 H
                                   35.98%     3 P:x            -7.755  1.67     1 Br
                                   11.88%     3 P:z            -7.755  1.67     1 Br
                                   10.89%     3 P:y            -7.755  1.67     1 Br
                                    1.61%     4 S             -19.222  2.00     1 Br
      -7.207  2.00    17 A         74.56%     3 P:y            -7.755  1.67     1 Br
                                   24.73%     3 P:x            -7.755  1.67     1 Br
      -7.207  2.00    18 A         79.19%     3 P:z            -7.755  1.67     1 Br
                                   13.81%     3 P:x            -7.755  1.67     1 Br
                                    6.44%     3 P:y            -7.755  1.67     1 Br
      -4.318  0.00    19 A         60.19%     1 S              -6.532  1.00     2 H
                                   24.22%     3 P:x            -7.755  1.67     1 Br
                                    7.99%     3 P:z            -7.755  1.67     1 Br
                                    7.33%     3 P:y            -7.755  1.67     1 Br
                                   -1.97%     4 P:x             3.718  0.00     1 Br
                                   -1.27%     5 S               6.476  0.00     1 Br
                                    1.13%     1 P:x            11.052  0.00     2 H
                                    1.05%     2 D:xz            7.151  0.00     1 Br



 =======================================================================
 Electrostatic potential at the Nuclei due to electrons and other nuclei
 =======================================================================
  
         Atom                  Potential
         ----                  ---------
     1)   Br                175.92745395
     2)   H                   0.90215643
 
 
 ========================
 No memory problems found
 ========================
 
 Maximum number of active allocate calls:         812
 
 *******************************************************************************

                             A D F   E X I T
 NORMAL TERMINATION



 =================
 Timing Statistics
 =================
  
 Total Used :                     CPU=        1.57      System=        0.07     Elapsed=        1.68

 Calls  Section                     ( Mean, Percentage )
 ---------------------------------------------------------------------------------------------------
     3  ><      ................      0.00    0.06             0.00    0.00             0.00    0.08
     1  INIT    ................      0.46   29.34             0.02   33.80             0.49   29.16
     1  GEOMET  ................      0.05    2.93             0.01   11.27             0.06    3.37
     1  FRAGM   ................      0.02    1.02             0.00    5.63             0.03    1.70
     1  INPUTA  ................      0.00    0.00             0.00    0.00             0.00    0.03
     1  ATDEN   ................      0.01    0.51             0.00    4.22             0.01    0.66
     1  MAINSY  ................      0.01    0.45             0.00    2.82             0.01    0.67
     1  SYMFIT  ................      0.00    0.13             0.00    0.00             0.00    0.11
     1  CORORT  ................      0.00    0.06             0.00    0.00             0.00    0.03
     1  SYMORB  ................      0.00    0.19             0.00    1.41             0.00    0.24
     1  CLSMAT  ................      0.01    0.45             0.00    0.00             0.01    0.43
     1  ORTHON  ................      0.00    0.32             0.00    1.41             0.01    0.34
     1  GENPT   ................      0.08    5.42             0.00    2.82             0.09    5.30
     1  PTBAS   ................      0.02    1.15             0.00    0.00             0.02    1.01
    11  FOCKY   ................      0.06   39.92             0.00   14.08             0.06   38.19
    11  FOCKTR  ................      0.00    0.83             0.00    0.00             0.00    1.05
    11  SDIIS   ................      0.00    2.49             0.00    4.23             0.00    2.39
     1  COREPS  ................      0.05    3.00             0.00    1.41             0.05    2.91
     1  TOTEN   ................      0.13    8.29             0.01   12.68             0.14    8.34
     1  POPAN   ................      0.00    0.19             0.00    0.00             0.01    0.45
     1  DEBYE   ................      0.00    0.13             0.00    0.00             0.00    0.09
     1  INPUTE  ................      0.00    0.00             0.00    0.00             0.00    0.07
     1  SYMORE  ................      0.00    0.13             0.00    0.00             0.00    0.09
     1  METS    ................      0.00    0.06             0.00    0.00             0.00    0.04
     1  CETS    ................      0.00    0.19             0.00    0.00             0.00    0.18
     1  ELNRGY  ................      0.00    0.19             0.00    0.00             0.00    0.20
     1  POPUL   ................      0.01    0.70             0.00    2.82             0.02    1.07
     1  EXIT PROCEDURE .........      0.03    1.85             0.00    1.41             0.03    1.79


 Currently Open Files (EXIT00)
 ====================

 Unit    Access Format  Status   Type       Ident (file)
 -------------------------------------------------------
   3      SEQ    FORM   TRANSP  NORMAL      LOGFILE
                                          ( logfile )


 Buffered I/O statistics
 =======================
 Memory available:                     67108864
 Number of records fitting in memory:     16131
 Input :   1.7% of                        39314  *4k bytes
 Output:  10.8% of                         3145  *4k bytes
 Records from serial files evicted:           0
                    others evicted:           0
 Hash table lookups:     109740 with          0 conflicts (  0.00%)

 ***************************************************************************************************
 (LOGFILE)
 <May09-2019> <17:12:31>  ADF 2017  RunTime: May09-2019 17:12:31  Nodes: 1  Procs: 1
 <May09-2019> <17:12:31>  Hydrogen (TZ2P)
 <May09-2019> <17:12:31>  RunType   : CREATE
 <May09-2019> <17:12:31>  Net Charge: 0 (Nuclei minus Electrons)
 <May09-2019> <17:12:31>  Symmetry  : ATOM
  Coordinates
    Atom         X           Y           Z   (Angstrom)
    1.H         0.000000    0.000000    0.000000
 <May09-2019> <17:12:31>  >>>> CORORT
 <May09-2019> <17:12:31>  >>>> CLSMAT
 <May09-2019> <17:12:31>  >>>> ORTHON
 <May09-2019> <17:12:31>  >>>> GENPT
 <May09-2019> <17:12:31>  Block Length=  64
 <May09-2019> <17:12:31>  >>>> PTBAS
 <May09-2019> <17:12:31>  >>>> CYCLE
 <May09-2019> <17:12:31>              |Error|         MaxErr       Wt(A-DIIS)
 <May09-2019> <17:12:31>      1      0.00000000      0.00000000
 <May09-2019> <17:12:31>      2      0.03100286      0.02644424
 <May09-2019> <17:12:31>      3      0.00958001      0.00932852    100.0
 <May09-2019> <17:12:31>      4      0.00232093      0.00228640      1.3
 <May09-2019> <17:12:31>      5      0.00003155      0.00002984      0.0
 <May09-2019> <17:12:31>      6      0.00000096      0.00000091      0.0
 <May09-2019> <17:12:31>      7      0.00000000      0.00000000      0.0
 <May09-2019> <17:12:31>  SCF converged
 <May09-2019> <17:12:31>      8      0.00000000      0.00000000      0.0
 <May09-2019> <17:12:31>  >>>> POPAN
 <May09-2019> <17:12:31>  >>>> DEBYE
 <May09-2019> <17:12:31>  NORMAL TERMINATION
 <May09-2019> <17:12:31>  END
 <May09-2019> <17:12:31>  ADF 2017  RunTime: May09-2019 17:12:31  Nodes: 1  Procs: 1
 <May09-2019> <17:12:31>  Bromine (TZ2P)
 <May09-2019> <17:12:31>  RunType   : CREATE
 <May09-2019> <17:12:31>  Net Charge: 0 (Nuclei minus Electrons)
 <May09-2019> <17:12:31>  Symmetry  : ATOM
  Coordinates
    Atom         X           Y           Z   (Angstrom)
    1.Br        0.000000    0.000000    0.000000
 <May09-2019> <17:12:31>  >>>> CORORT
 <May09-2019> <17:12:31>  >>>> CLSMAT
 <May09-2019> <17:12:31>  >>>> ORTHON
 <May09-2019> <17:12:31>  >>>> GENPT
 <May09-2019> <17:12:31>  Block Length= 106
 <May09-2019> <17:12:31>  >>>> PTBAS
 <May09-2019> <17:12:31>  >>>> CYCLE
 <May09-2019> <17:12:32>              |Error|         MaxErr       Wt(A-DIIS)
 <May09-2019> <17:12:32>      1      0.00000000      0.00000000
 <May09-2019> <17:12:32>      2    133.90378859     33.00263884    100.0
 <May09-2019> <17:12:32>      3     49.62914370     17.59518881    100.0
 <May09-2019> <17:12:32>      4      9.09209484      2.12485505    100.0
 <May09-2019> <17:12:32>      5     11.70158419      3.98842598    100.0
 <May09-2019> <17:12:32>      6      1.82354005      0.45661929    100.0
 <May09-2019> <17:12:32>      7      1.60769584      0.41584263    100.0
 <May09-2019> <17:12:32>      8      0.06575401      0.01946729     18.7
 <May09-2019> <17:12:32>      9      0.02601319      0.00809116      7.2
 <May09-2019> <17:12:32>     10      0.00046367      0.00010037      0.0
 <May09-2019> <17:12:32>     11      0.00001086      0.00000278      0.0
 <May09-2019> <17:12:32>     12      0.00000025      0.00000006      0.0
 <May09-2019> <17:12:32>     13      0.00000001      0.00000000      0.0
 <May09-2019> <17:12:32>  SCF converged
 <May09-2019> <17:12:33>     14      0.00000000      0.00000000      0.0
 <May09-2019> <17:12:33>  >>>> POPAN
 <May09-2019> <17:12:33>  >>>> DEBYE
 <May09-2019> <17:12:33>  NORMAL TERMINATION
 <May09-2019> <17:12:33>  END
 <May09-2019> <17:12:33>  ADF 2017  RunTime: May09-2019 17:12:33  Nodes: 1  Procs: 12
 <May09-2019> <17:12:33>  *** (NO TITLE) ***
 <May09-2019> <17:12:33>  RunType   : SINGLE POINT
 <May09-2019> <17:12:33>  Net Charge: 0 (Nuclei minus Electrons)
 <May09-2019> <17:12:33>  Symmetry  : NOSYM
 <May09-2019> <17:12:33>  >>>> FRAGM
  Coordinates
    Atom         X           Y           Z   (Angstrom)
    1.Br       -4.008834   -0.381143   -0.063856
    2.H        -2.507210    0.445110    0.798797
 <May09-2019> <17:12:33>  >>>> CORORT
 <May09-2019> <17:12:33>  >>>> CLSMAT
 <May09-2019> <17:12:33>  >>>> ORTHON
 <May09-2019> <17:12:33>  >>>> GENPT
 <May09-2019> <17:12:33>  Block Length= 128
 <May09-2019> <17:12:34>  >>>> PTBAS
 <May09-2019> <17:12:34>  >>>> CYCLE
 <May09-2019> <17:12:34>              |Error|         MaxErr       Wt(A-DIIS)
 <May09-2019> <17:12:34>      1      0.93174535      0.60798769
 <May09-2019> <17:12:34>      2      0.12467624      0.05913683    100.0
 <May09-2019> <17:12:34>      3      0.30484748      0.14608243    100.0
 <May09-2019> <17:12:34>      4      0.07178541      0.03563952     35.0
 <May09-2019> <17:12:34>      5      0.02020388      0.00827045      7.3
 <May09-2019> <17:12:34>      6      0.00405447      0.00091663      0.0
 <May09-2019> <17:12:34>      7      0.00039731      0.00018179      0.0
 <May09-2019> <17:12:34>      8      0.00003073      0.00001941      0.0
 <May09-2019> <17:12:34>      9      0.00001022      0.00000642      0.0
 <May09-2019> <17:12:34>     10      0.00000054      0.00000015      0.0
 <May09-2019> <17:12:34>  SCF converged
 <May09-2019> <17:12:34>     11      0.00000003      0.00000001      0.0
 <May09-2019> <17:12:34>  >>>> TOTEN
 <May09-2019> <17:12:34>  >>>> POPAN
 <May09-2019> <17:12:34>  >>>> DEBYE
 <May09-2019> <17:12:34>  >>>> AMETS
 <May09-2019> <17:12:34>   Bond Energy          -0.14052440 a.u.
 <May09-2019> <17:12:34>   Bond Energy          -3.82386352 eV
 <May09-2019> <17:12:34>   Bond Energy         -88.18       kcal/mol
 <May09-2019> <17:12:34>  >>>> POPUL
 <May09-2019> <17:12:34>  NORMAL TERMINATION
 <May09-2019> <17:12:34>  END
