

 Parallel Execution: Process Information
 ==============================================================================
 Rank   Node Name                              NodeID   MyNodeRank  NodeMaster
    0   BAZIS-cn021                               0          0          0
    1   BAZIS-cn021                               0          1         -1
    2   BAZIS-cn021                               0          2         -1
    3   BAZIS-cn021                               0          3         -1
    4   BAZIS-cn021                               0          4         -1
    5   BAZIS-cn021                               0          5         -1
    6   BAZIS-cn021                               0          6         -1
    7   BAZIS-cn021                               0          7         -1
    8   BAZIS-cn021                               0          8         -1
    9   BAZIS-cn021                               0          9         -1
   10   BAZIS-cn021                               0         10         -1
   11   BAZIS-cn021                               0         11         -1
 ==============================================================================


May use up to 30771MB of RAM as shared memory on node 0


XC
    GGA BP86
END

SCF
    iterations 250
END

EPRINT
    SFO Eig Ovl
END

ZLMFIT
    Quality normal
END

BECKEGRID
    Quality good
End

SYMMETRY nosym
CHARGE -1

ATOMS
1.Br       -4.945507    3.141778   -0.055115 f=BrBr
2.Br       -3.823658    0.770328    0.392149 f=BrBr
3.Cl       -6.006216    5.386813   -0.474235 f=Cl
END

Fragments
BrBr /home/tcst25/advanced_comp_chemistry/exercise2/halogen/BrBrCl/frag1_BrBr.t21
Cl /home/tcst25/advanced_comp_chemistry/exercise2/halogen/BrBrCl/frag2_Cl.t21
End
end input

 *******************************************************************************
 *                                                                             *
 *  -------------------------------------                                      *
 *   Amsterdam Density Functional  (ADF)         2017                          *
 *  -------------------------------------                                      *
 *                                               r58813 2017-04-12             *
 *                                                                             *
 *                                                                             *
 *                              =================                              *
 *                              |               |                              *
 *                              |     A D F     |                              *
 *                              |               |                              *
 *                              =================                              *
 *                                                                             *
 *                                                                             *
 *   Online information and documentation:  https://www.scm.com/support/       *
 *   E-mail:  support@scm.com   info@scm.com                                   *
 *                                                                             *
 *   Scientific publications using ADF results must be properly referenced     *
 *   See the User Manuals (or the web site) for recommended citations          *
 *   The terms and conditions of the End User License Agreement apply to       *
 *   the use of ADF, https://www.scm.com/license-terms/                        *
 *                                                                             *
 **********************  x86_64_linux_intel / intelmpi  ************************
 
 Licensed to: VU/FEW (+ SARA) / ALGEMEEN / Amsterdam / THE NETHERLANDS
 SCM User ID: u7668
  
 ADF 2017  RunTime: May09-2019 17:11:56  Nodes: 1  Procs: 12

 Temporary files are created in /local/datastore0/tcst25/189766/kid_0.Gb2PY7


Communication costs MPI_COMM_WORLD:      3.861 usec per message,   0.0182 usec per 8-byte item
Communication costs for intra-node:      3.852 usec per message,   0.0183 usec per 8-byte item

 *** (NO TITLE) ***



 ===========================
 A T T A C H E D   F I L E S
 ===========================
  



 ===============================
 M O D E L   P A R A M E T E R S
 ===============================
  
 DENSITY FUNCTIONAL POTENTIAL (scf)
    LDA:                               VWN                                      
    Gradient Corrections:              Becke88 Perdew86                        == Not Default ==

 SPIN  (restricted / unrestr.)
    Molecule:                          Restricted                               
    Fragments:                         Restricted                               

 OTHER ASPECTS
    Relativistic Corrections:          ---                                      

    Nuclear Charge Density Model:      Point Charge Nuclei                      
    Core Treatment:                    Frozen Orbital(s)                        

    Hyperfine or Zeeman Interaction:   ---                                      


 Fragment File(s)
 ----------------
 BrBr:
         file : /home/tcst25/advanced_comp_chemistry/exercise2/halogen/BrBrCl/frag1_BrBr.t21
         jobid: ADF 2017  RunTime: May09-2019 16:32:13  Nodes: 1  Procs: 12
         title: *** (NO TITLE) ***
 Cl:
         file : /home/tcst25/advanced_comp_chemistry/exercise2/halogen/BrBrCl/frag2_Cl.t21
         jobid: ADF 2017  RunTime: May09-2019 16:32:13  Nodes: 1  Procs: 12
         title: *** (NO TITLE) ***



                                        ************************************
                                        *  R U N   T Y P E : SINGLE POINT  *
                                        ************************************
  



 ===============
 G E O M E T R Y  ***  Planar Molecule  ***
 ===============
  

 ATOMS
 =====                            X Y Z                    CHARGE
                                (Angstrom)             Nucl     +Core       At.Mass
                       --------------------------    ----------------       -------
    1  Br             -4.9455    3.1418   -0.0551     35.00     35.00       78.9183
    2  Br             -3.8237    0.7703    0.3921     35.00     35.00       78.9183
    3  Cl             -6.0062    5.3868   -0.4742     17.00     17.00       34.9689


 FRAGMENTS
 =========                                     Atoms in this Fragment     Cart. coord.s (Angstrom)
                                               -------------------------------------------------------
    1  BrBr                                              1  Br          -4.9455    3.1418   -0.0551
                                                         2  Br          -3.8237    0.7703    0.3921
    2  Cl                                                3  Cl          -6.0062    5.3868   -0.4742


 Interatomic Distance Matrix (Angstrom)
 --------------------------------------

   1)     0.000
   2)     2.661   0.000
   3)     2.518   5.179   0.000

 Min. Distance =    2.5181
 Max. Distance =    5.1794



 =====================================
 S Y M M E T R Y ,   E L E C T R O N S
 =====================================
  
 Symmetry: NOSYM

 Irreducible Representations, including subspecies
 -------------------------------------------------
 A


 Configuration of Valence Electrons
 ==================================
 ( determined in the SCF procedure )

 Total:   88

 Net Charge: -1 (Nuclei minus Electrons)

 Aufbau principle for MO occupations will be applied through SCF cycle no.     125
 Thereafter, the program will assign electrons to MOs that are spatially
 similar to the occupied MOs in a "reference" cycle ("KeepOrbitals").
 The reference cycle is always the PREVIOUS cycle: it will evolve with
 the SCF procedure.
1
 ***************************************************************************************************



                                      ****************************************
                                      *  B U I L D : (Fragments, Functions)  *
                                      ****************************************
  

 The individual fragments are copies of the corresponding 'Master' fragments defined on the fragment files.
 However, they may have been rotated (and translated) with respect to the Master. The local coordinate axes
 of each fragment (which define for instance the spatial orientation in the current molecule of a fragment
 P:x orbital) are not necessarily those of the molecule.
 The local frame (if different from the molecular one) is printed to enable an interpretation of the expan-
 sion of an MO in Fragment Orbitals.



                                             **************************
                                             *  Fragment Type : BrBr  *
                                             **************************
  

 Fragment no.    1   (in the list of all fragments)
 -----------------
 The local coordinate frame is identical to the molecular frame.

 Check Atomic Coordinates:

                  Master (on file)          After Computed Tranformation               As specified on Input
           ----------------------------     ----------------------------     ---------------------------------
     1)    -4.94551   3.14178  -0.05512     -4.94551   3.14178  -0.05511       1  -4.94551   3.14178  -0.05511
     2)    -3.82366   0.77033   0.39215     -3.82366   0.77033   0.39215       2  -3.82366   0.77033   0.39215



                                              ************************
                                              *  Fragment Type : Cl  *
                                              ************************
  

 Fragment no.    2   (in the list of all fragments)
 -----------------
 The local coordinate frame is identical to the molecular frame.

 Check Atomic Coordinates:

                  Master (on file)          After Computed Tranformation               As specified on Input
           ----------------------------     ----------------------------     ---------------------------------
     1)    -6.00622   5.38681  -0.47424     -6.00622   5.38681  -0.47424       3  -6.00622   5.38681  -0.47424



 =======
 S F O s  ***  (Symmetrized Fragment Orbitals)  ***
 =======
  
 SFOs are linear combinations of (valence) Fragment Orbitals (FOs), such that the SFOs transform as the
 irreducible representations of the (molecular) symmetry group. Each SFO is therefore characterized by
 an irrep of the molecule and by a few (or only one) generating FOs.
 The SFOs constitute a symmetry-adapted basis for the Fock matrix. The MO eigenvector coefficients in
 this basis provide a direct interpretation of the MOs in terms of Frontier Orbital Theory.

 The SFOs are combined with auxiliary Core Functions (CFs) to ensure orthogonalization on the (frozen)
 Core Orbitals (COs). The Core-orthogonalized SFOs (CSFOs) constitute the true Fock basis.

 The FOs, and hence also the (C)SFOs are combinations of the elementary basis functions (BAS). The basis
 functions that participate in the description of the SFOs depend on the irrep. The indices of the
 involved functions are printed below for each irrep.
 (The complete list of primitive basis functions is printed in another section)

 Total nr. of (C)SFOs (summation over all irreps) :   146

 NOTE: a (C)SFO that is defined as a combination of more than one FO is usually NOT normalized.



                                       === A ===
 Nr. of SFOs :  146
 Cartesian basis functions that participate in this irrep (total number =   164) :
      1     2     3    10    11    36    37    38     4     7
     12    15    39    42    45     5     8    13    16    40
     43    46     6     9    14    17    41    44    47    18
     24    30    48    19    25    31    49    20    26    32
     50    21    27    33    51    22    28    34    52    23
     29    35    53    54    55    56    57    58    59    60
     61    62    63    64    65    66    73    74    99   100
    101    67    70    75    78   102   105   108    68    71
     76    79   103   106   109    69    72    77    80   104
    107   110    81    87    93   111    82    88    94   112
     83    89    95   113    84    90    96   114    85    91
     97   115    86    92    98   116   117   118   119   120
    121   122   123   124   125   126   127   128   129   130
    137   138   139   131   134   140   143   146   132   135
    141   144   147   133   136   142   145   148   149   150
    151   152   153   154   155   156   157   158   159   160
    161   162   163   164

    SFO  (index         Fragment          Generating    Expansion in Fragment Orbitals
  indx  incl.CFs)   Occup   Orb.Energy   FragmentType  Coeff.   Orbital     on Fragment
 --------------------------------------------------------------------------------------
     1       1      2.000    -481.040 au  BrBr          1.00      1 A               1
                        (  -13089.761 eV)
     2       2      2.000    -481.040 au  BrBr          1.00      2 A               1
                        (  -13089.761 eV)
     3       3      2.000     -61.795 au  BrBr          1.00      3 A               1
                        (   -1681.531 eV)
     4       4      2.000     -61.795 au  BrBr          1.00      4 A               1
                        (   -1681.531 eV)
     5       5      2.000     -55.730 au  BrBr          1.00      5 A               1
                        (   -1516.477 eV)
     6       6      2.000     -55.730 au  BrBr          1.00      6 A               1
                        (   -1516.477 eV)
     7       7      2.000     -55.723 au  BrBr          1.00      7 A               1
                        (   -1516.292 eV)
     8       8      2.000     -55.723 au  BrBr          1.00      8 A               1
                        (   -1516.292 eV)
     9       9      2.000     -55.723 au  BrBr          1.00      9 A               1
                        (   -1516.292 eV)
    10      10      2.000     -55.723 au  BrBr          1.00     10 A               1
                        (   -1516.292 eV)
    11      11      2.000      -8.415 au  BrBr          1.00     11 A               1
                        (    -228.986 eV)
    12      12      2.000      -8.415 au  BrBr          1.00     12 A               1
                        (    -228.983 eV)
    13      13      2.000      -6.328 au  BrBr          1.00     13 A               1
                        (    -172.183 eV)
    14      14      2.000      -6.328 au  BrBr          1.00     14 A               1
                        (    -172.182 eV)
    15      15      2.000      -6.308 au  BrBr          1.00     15 A               1
                        (    -171.654 eV)
    16      16      2.000      -6.308 au  BrBr          1.00     16 A               1
                        (    -171.654 eV)
    17      17      2.000      -6.308 au  BrBr          1.00     17 A               1
                        (    -171.654 eV)
    18      18      2.000      -6.308 au  BrBr          1.00     18 A               1
                        (    -171.654 eV)
    19      19      2.000      -2.532 au  BrBr          1.00     19 A               1
                        (     -68.896 eV)
    20      20      2.000      -2.532 au  BrBr          1.00     20 A               1
                        (     -68.887 eV)
    21      21      2.000      -2.527 au  BrBr          1.00     21 A               1
                        (     -68.765 eV)
    22      22      2.000      -2.527 au  BrBr          1.00     22 A               1
                        (     -68.765 eV)
    23      23      2.000      -2.527 au  BrBr          1.00     23 A               1
                        (     -68.762 eV)
    24      24      2.000      -2.527 au  BrBr          1.00     24 A               1
                        (     -68.762 eV)
    25      25      2.000      -2.513 au  BrBr          1.00     25 A               1
                        (     -68.379 eV)
    26      26      2.000      -2.513 au  BrBr          1.00     26 A               1
                        (     -68.379 eV)
    27      27      2.000      -2.513 au  BrBr          1.00     27 A               1
                        (     -68.378 eV)
    28      28      2.000      -2.513 au  BrBr          1.00     28 A               1
                        (     -68.378 eV)
    29      29      2.000      -0.742 au  BrBr          1.00     29 A               1
                        (     -20.202 eV)
    30      30      2.000      -0.693 au  BrBr          1.00     30 A               1
                        (     -18.869 eV)
    31      31      2.000      -0.370 au  BrBr          1.00     31 A               1
                        (     -10.061 eV)
    32      32      2.000      -0.303 au  BrBr          1.00     32 A               1
                        (      -8.247 eV)
    33      33      2.000      -0.303 au  BrBr          1.00     33 A               1
                        (      -8.247 eV)
    34      34      2.000      -0.265 au  BrBr          1.00     34 A               1
                        (      -7.199 eV)
    35      35      2.000      -0.265 au  BrBr          1.00     35 A               1
                        (      -7.199 eV)
    36      36       --        -0.227 au  BrBr          1.00     36 A               1
                        (      -6.190 eV)
    37      37       --         0.092 au  BrBr          1.00     37 A               1
                        (       2.511 eV)
    38      38       --         0.121 au  BrBr          1.00     38 A               1
                        (       3.304 eV)
    39      39       --         0.127 au  BrBr          1.00     39 A               1
                        (       3.448 eV)
    40      40       --         0.127 au  BrBr          1.00     40 A               1
                        (       3.448 eV)
    41      41       --         0.165 au  BrBr          1.00     41 A               1
                        (       4.490 eV)
    42      42       --         0.165 au  BrBr          1.00     42 A               1
                        (       4.490 eV)
    43      43       --         0.184 au  BrBr          1.00     43 A               1
                        (       5.015 eV)
    44      44       --         0.184 au  BrBr          1.00     44 A               1
                        (       5.015 eV)
    45      45       --         0.213 au  BrBr          1.00     45 A               1
                        (       5.783 eV)
    46      46       --         0.238 au  BrBr          1.00     46 A               1
                        (       6.479 eV)
    47      47       --         0.238 au  BrBr          1.00     47 A               1
                        (       6.479 eV)
    48      48       --         0.296 au  BrBr          1.00     48 A               1
                        (       8.065 eV)
    49      49       --         0.296 au  BrBr          1.00     49 A               1
                        (       8.065 eV)
    50      50       --         0.316 au  BrBr          1.00     50 A               1
                        (       8.602 eV)
    51      51       --         0.317 au  BrBr          1.00     51 A               1
                        (       8.618 eV)
    52      52       --         0.402 au  BrBr          1.00     52 A               1
                        (      10.927 eV)
    53      53       --         0.402 au  BrBr          1.00     53 A               1
                        (      10.927 eV)
    54      54       --         0.671 au  BrBr          1.00     54 A               1
                        (      18.249 eV)
    55      55       --         0.760 au  BrBr          1.00     55 A               1
                        (      20.690 eV)
    56      56       --         0.760 au  BrBr          1.00     56 A               1
                        (      20.690 eV)
    57      57       --         0.792 au  BrBr          1.00     57 A               1
                        (      21.550 eV)
    58      58       --         0.792 au  BrBr          1.00     58 A               1
                        (      21.550 eV)
    59      59       --         0.830 au  BrBr          1.00     59 A               1
                        (      22.572 eV)
    60      60       --         0.830 au  BrBr          1.00     60 A               1
                        (      22.572 eV)
    61      61       --         0.854 au  BrBr          1.00     61 A               1
                        (      23.248 eV)
    62      62       --         0.888 au  BrBr          1.00     62 A               1
                        (      24.176 eV)
    63      63       --         0.888 au  BrBr          1.00     63 A               1
                        (      24.176 eV)
    64      64       --         0.985 au  BrBr          1.00     64 A               1
                        (      26.811 eV)
    65      65       --         0.985 au  BrBr          1.00     65 A               1
                        (      26.811 eV)
    66      66       --         1.027 au  BrBr          1.00     66 A               1
                        (      27.959 eV)
    67      67       --         1.068 au  BrBr          1.00     67 A               1
                        (      29.069 eV)
    68      68       --         1.068 au  BrBr          1.00     68 A               1
                        (      29.070 eV)
    69      69       --         1.198 au  BrBr          1.00     69 A               1
                        (      32.597 eV)
    70      70       --         1.198 au  BrBr          1.00     70 A               1
                        (      32.597 eV)
    71      71       --         1.200 au  BrBr          1.00     71 A               1
                        (      32.658 eV)
    72      72       --         1.342 au  BrBr          1.00     72 A               1
                        (      36.529 eV)
    73      73       --         1.342 au  BrBr          1.00     73 A               1
                        (      36.529 eV)
    74      74       --         1.689 au  BrBr          1.00     74 A               1
                        (      45.969 eV)
    75      75       --         2.443 au  BrBr          1.00     75 A               1
                        (      66.469 eV)
    76      76       --         2.620 au  BrBr          1.00     76 A               1
                        (      71.296 eV)
    77      77       --         2.620 au  BrBr          1.00     77 A               1
                        (      71.296 eV)
    78      78       --         2.650 au  BrBr          1.00     78 A               1
                        (      72.105 eV)
    79      79       --         2.650 au  BrBr          1.00     79 A               1
                        (      72.106 eV)
    80      80       --         2.737 au  BrBr          1.00     80 A               1
                        (      74.476 eV)
    81      81       --         2.737 au  BrBr          1.00     81 A               1
                        (      74.476 eV)
    82      82       --         2.739 au  BrBr          1.00     82 A               1
                        (      74.544 eV)
    83      83       --         2.909 au  BrBr          1.00     83 A               1
                        (      79.169 eV)
    84      84       --         3.017 au  BrBr          1.00     84 A               1
                        (      82.085 eV)
    85      85       --         3.017 au  BrBr          1.00     85 A               1
                        (      82.085 eV)
    86      86       --         3.633 au  BrBr          1.00     86 A               1
                        (      98.853 eV)
    87      87       --         8.794 au  BrBr          1.00     87 A               1
                        (     239.285 eV)
    88      88       --         8.794 au  BrBr          1.00     88 A               1
                        (     239.285 eV)
    89      89       --         8.921 au  BrBr          1.00     89 A               1
                        (     242.755 eV)
    90      90       --         8.960 au  BrBr          1.00     90 A               1
                        (     243.819 eV)
    91      91       --         8.960 au  BrBr          1.00     91 A               1
                        (     243.820 eV)
    92      92       --         9.408 au  BrBr          1.00     92 A               1
                        (     256.009 eV)
    93      93       --        14.316 au  BrBr          1.00     93 A               1
                        (     389.552 eV)
    94      94       --        14.983 au  BrBr          1.00     94 A               1
                        (     407.717 eV)
    95      95       --        20.528 au  BrBr          1.00     95 A               1
                        (     558.587 eV)
    96      96       --        20.528 au  BrBr          1.00     96 A               1
                        (     558.587 eV)
    97      97       --        20.556 au  BrBr          1.00     97 A               1
                        (     559.362 eV)
    98      98       --        20.556 au  BrBr          1.00     98 A               1
                        (     559.363 eV)
    99      99       --        20.676 au  BrBr          1.00     99 A               1
                        (     562.611 eV)
   100     100       --        20.676 au  BrBr          1.00    100 A               1
                        (     562.611 eV)
   101     101       --        20.858 au  BrBr          1.00    101 A               1
                        (     567.585 eV)
   102     102       --        21.045 au  BrBr          1.00    102 A               1
                        (     572.672 eV)
   103     103       --        21.045 au  BrBr          1.00    103 A               1
                        (     572.672 eV)
   104     104       --        21.706 au  BrBr          1.00    104 A               1
                        (     590.654 eV)
   105     105       --       100.773 au  BrBr          1.00    105 A               1
                        (    2742.183 eV)
   106     106       --       100.773 au  BrBr          1.00    106 A               1
                        (    2742.183 eV)
   107     107       --       101.075 au  BrBr          1.00    107 A               1
                        (    2750.380 eV)
   108     108       --       101.146 au  BrBr          1.00    108 A               1
                        (    2752.331 eV)
   109     109       --       101.146 au  BrBr          1.00    109 A               1
                        (    2752.332 eV)
   110     110       --       102.135 au  BrBr          1.00    110 A               1
                        (    2779.239 eV)
   111     111       --       746.630 au  BrBr          1.00    111 A               1
                        (   20316.845 eV)
   112     112       --       749.635 au  BrBr          1.00    112 A               1
                        (   20398.605 eV)
   113     113      2.000    -100.372 au  Cl            1.00      1 A               2
                        (   -2731.270 eV)
   114     114      2.000      -8.827 au  Cl            1.00      2 A               2
                        (    -240.193 eV)
   115     115      2.000      -6.649 au  Cl            1.00      3 A               2
                        (    -180.916 eV)
   116     116      2.000      -6.649 au  Cl            1.00      4 A               2
                        (    -180.916 eV)
   117     117      2.000      -6.649 au  Cl            1.00      5 A               2
                        (    -180.916 eV)
   118     118      2.000      -0.385 au  Cl            1.00      6 A               2
                        (     -10.473 eV)
   119     119      2.000       0.033 au  Cl            1.00      7 A               2
                        (       0.909 eV)
   120     120      2.000       0.033 au  Cl            1.00      8 A               2
                        (       0.909 eV)
   121     121      2.000       0.033 au  Cl            1.00      9 A               2
                        (       0.909 eV)
   122     122       --         0.475 au  Cl            1.00     10 A               2
                        (      12.914 eV)
   123     123       --         0.489 au  Cl            1.00     11 A               2
                        (      13.299 eV)
   124     124       --         0.489 au  Cl            1.00     12 A               2
                        (      13.299 eV)
   125     125       --         0.489 au  Cl            1.00     13 A               2
                        (      13.299 eV)
   126     126       --         0.741 au  Cl            1.00     14 A               2
                        (      20.162 eV)
   127     127       --         0.741 au  Cl            1.00     15 A               2
                        (      20.162 eV)
   128     128       --         0.741 au  Cl            1.00     16 A               2
                        (      20.162 eV)
   129     129       --         0.741 au  Cl            1.00     17 A               2
                        (      20.162 eV)
   130     130       --         0.741 au  Cl            1.00     18 A               2
                        (      20.162 eV)
   131     131       --         1.518 au  Cl            1.00     19 A               2
                        (      41.294 eV)
   132     132       --         1.518 au  Cl            1.00     20 A               2
                        (      41.294 eV)
   133     133       --         1.518 au  Cl            1.00     21 A               2
                        (      41.294 eV)
   134     134       --         1.518 au  Cl            1.00     22 A               2
                        (      41.294 eV)
   135     135       --         1.518 au  Cl            1.00     23 A               2
                        (      41.294 eV)
   136     136       --         1.518 au  Cl            1.00     24 A               2
                        (      41.294 eV)
   137     137       --         1.518 au  Cl            1.00     25 A               2
                        (      41.294 eV)
   138     138       --         2.351 au  Cl            1.00     26 A               2
                        (      63.962 eV)
   139     139       --         2.448 au  Cl            1.00     27 A               2
                        (      66.612 eV)
   140     140       --         2.448 au  Cl            1.00     28 A               2
                        (      66.612 eV)
   141     141       --         2.448 au  Cl            1.00     29 A               2
                        (      66.612 eV)
   142     142       --        13.113 au  Cl            1.00     30 A               2
                        (     356.814 eV)
   143     143       --        19.210 au  Cl            1.00     31 A               2
                        (     522.735 eV)
   144     144       --        19.210 au  Cl            1.00     32 A               2
                        (     522.735 eV)
   145     145       --        19.210 au  Cl            1.00     33 A               2
                        (     522.735 eV)
   146     146       --       215.062 au  Cl            1.00     34 A               2
                        (    5852.138 eV)



 ================================
 (Slater-type)  F U N C T I O N S  ***  (Basis and Fit)  ***
 ================================
  

 Atom Type    1  (Br)
 ==============

 Valence Basis Sets:  20
 -----------------------
   1 S   41.300000
   1 S   32.800000
   2 S   13.900000
   2 P   19.450000
   2 P   13.100000
   3 S    7.200000
   3 S    4.950000
   3 P    7.900000
   3 P    5.050000
   3 D   10.900000
   3 D    6.050000
   3 D    3.500000
   4 S    4.500000
   4 S    2.800000
   4 S    1.800000
   4 P    3.250000
   4 P    1.950000
   4 P    1.200000
   4 D    1.800000
   4 F    1.800000

 Atom Type    2  (Cl)
 ==============

 Valence Basis Sets:  14
 -----------------------
   1 S   20.300000
   1 S   15.250000
   2 S    6.250000
   2 S    4.450000
   2 P    8.850000
   2 P    5.050000
   3 S    3.450000
   3 S    2.300000
   3 S    1.600000
   3 P    3.350000
   3 P    2.050000
   3 P    1.200000
   3 D    2.000000
   4 F    2.000000


 BAS: List of all Elementary Cartesian Basis Functions
 =====================================================

 The numbering in the list below (to the right of the function characteristics) is referred
 to in print-outs of MO eigenvectors and Mulliken populations in the BAS representation
 (as contrasted to the SFO representation).

 Notes:
 1. The functions are characterized by a polynomial prefactor (powers of x,y,z and r) and
    an exponential decay factor alpha.
 2. Since the basis sets are specific for an atom TYPE, the individual functions occur on
    all atoms of that type.
 3. The word 'Core' in the left margin signals that it is a Core Function (CF) : not a
    degree of freedom in the valence set, but only used to ensure orthogonalization of
    the other valence basis functions on the frozen Core Orbitals.


 (power of) X  Y  Z  R     Alpha  on Atom
            ==========     =====     ==========

 Br                                   1    2
                                  ---------------------------------------------------------------------------
            0  0  0  0    41.300      1   64
            0  0  0  0    32.800      2   65
            0  0  0  1    13.900      3   66
            1  0  0  0    19.450      4   67
            0  1  0  0    19.450      5   68
            0  0  1  0    19.450      6   69
            1  0  0  0    13.100      7   70
            0  1  0  0    13.100      8   71
            0  0  1  0    13.100      9   72
            0  0  0  2     7.200     10   73
            0  0  0  2     4.950     11   74
            1  0  0  1     7.900     12   75
            0  1  0  1     7.900     13   76
            0  0  1  1     7.900     14   77
            1  0  0  1     5.050     15   78
            0  1  0  1     5.050     16   79
            0  0  1  1     5.050     17   80
            2  0  0  0    10.900     18   81
            1  1  0  0    10.900     19   82
            1  0  1  0    10.900     20   83
            0  2  0  0    10.900     21   84
            0  1  1  0    10.900     22   85
            0  0  2  0    10.900     23   86
            2  0  0  0     6.050     24   87
            1  1  0  0     6.050     25   88
            1  0  1  0     6.050     26   89
            0  2  0  0     6.050     27   90
            0  1  1  0     6.050     28   91
            0  0  2  0     6.050     29   92
            2  0  0  0     3.500     30   93
            1  1  0  0     3.500     31   94
            1  0  1  0     3.500     32   95
            0  2  0  0     3.500     33   96
            0  1  1  0     3.500     34   97
            0  0  2  0     3.500     35   98
            0  0  0  3     4.500     36   99
            0  0  0  3     2.800     37  100
            0  0  0  3     1.800     38  101
            1  0  0  2     3.250     39  102
            0  1  0  2     3.250     40  103
            0  0  1  2     3.250     41  104
            1  0  0  2     1.950     42  105
            0  1  0  2     1.950     43  106
            0  0  1  2     1.950     44  107
            1  0  0  2     1.200     45  108
            0  1  0  2     1.200     46  109
            0  0  1  2     1.200     47  110
            2  0  0  1     1.800     48  111
            1  1  0  1     1.800     49  112
            1  0  1  1     1.800     50  113
            0  2  0  1     1.800     51  114
            0  1  1  1     1.800     52  115
            0  0  2  1     1.800     53  116
            3  0  0  0     1.800     54  117
            2  1  0  0     1.800     55  118
            2  0  1  0     1.800     56  119
            1  2  0  0     1.800     57  120
            1  1  1  0     1.800     58  121
            1  0  2  0     1.800     59  122
            0  3  0  0     1.800     60  123
            0  2  1  0     1.800     61  124
            0  1  2  0     1.800     62  125
            0  0  3  0     1.800     63  126

 Cl                                   3
                                  ---------------------------------------------------------------------------
            0  0  0  0    20.300    127
            0  0  0  0    15.250    128
            0  0  0  1     6.250    129
            0  0  0  1     4.450    130
            1  0  0  0     8.850    131
            0  1  0  0     8.850    132
            0  0  1  0     8.850    133
            1  0  0  0     5.050    134
            0  1  0  0     5.050    135
            0  0  1  0     5.050    136
            0  0  0  2     3.450    137
            0  0  0  2     2.300    138
            0  0  0  2     1.600    139
            1  0  0  1     3.350    140
            0  1  0  1     3.350    141
            0  0  1  1     3.350    142
            1  0  0  1     2.050    143
            0  1  0  1     2.050    144
            0  0  1  1     2.050    145
            1  0  0  1     1.200    146
            0  1  0  1     1.200    147
            0  0  1  1     1.200    148
            2  0  0  0     2.000    149
            1  1  0  0     2.000    150
            1  0  1  0     2.000    151
            0  2  0  0     2.000    152
            0  1  1  0     2.000    153
            0  0  2  0     2.000    154
            3  0  0  0     2.000    155
            2  1  0  0     2.000    156
            2  0  1  0     2.000    157
            1  2  0  0     2.000    158
            1  1  1  0     2.000    159
            1  0  2  0     2.000    160
            0  3  0  0     2.000    161
            0  2  1  0     2.000    162
            0  1  2  0     2.000    163
            0  0  3  0     2.000    164

 Total number of charge fitting functions (nprimf)       446
 Total number of Cartesian basis functions (naos)        164
 Total number of Cartesian core functions  (ncos)          0

1
 ***************************************************************************************************



                                              ***********************
                                              *  T E C H N I C A L  *
                                              ***********************
  



 =============================================================
 P A R A L L E L I Z A T I O N  and  V E C T O R I Z A T I O N
 =============================================================
  
 Nr of parallel processes:                               12
 Maximum vector length in NumInt loops:                 128

 IO buffersize (Mb):                                     64.000000



 =====================
 S C F   U P D A T E S
 =====================
  
 Max. nr. of cycles:                               250
 Convergence criterion:                              0.0000010000
   secondary criterion:                              0.0010000000

 Mix parameter (when DIIS does not apply):           0.2000000000
 Mixed ADIIS+DIIS will be used
    Max number of expansion vectors:                10
    Pure ADIIS when Max([F,P]) is above              0.1000000000
    Pure DIIS when Max([F,P]) is below               0.0010000000
 Automatic ElectronSmearing (in case of problematic SCF convergence) disabled



 =================
 P R E C I S I O N  ***  (General: NumInt, NeglectFunctionTails, ...)  ***
 =================
  

 NumInt:           Target precision:                 6.0000000000
 -------           Initial precision:                6.0000000000
                   Min. precision (optimization):    6.0000000000

 Neglect Functions:          Basis functions:        0.1000000000E-07
 ------------------          Fit functions:          0.1000000000E-07



 ===========================
 L I N E A R   S C A L I N G
 ===========================
  

 Cut-off radii density fit:                        0.1000000000E-09
 Overlap cut-off criterion AO matrix elements:     0.1000000000E-07
 Cut-offs for Coulomb potential and fitted density:0.1000000000E-09
 Cut-off criterion for Coulomb multipole terms:    0.1000000000E-09
 Progressive Convergence parameter:                 0.000000000    
1
 ***************************************************************************************************



                                            ***************************
                                            *  C O M P U T A T I O N  *
                                            ***************************
  

 Number of elements of the density matrix on this node (used, total):      2016     13530



 ===========================================
 Numerical Integration : Fuzzy Cells (Becke)
 ===========================================
  
 Becke grid quality: GOOD           
  
 Lebedev angular grid order:             min:  11 max:  31
 Nr. of radial points:                   min:  80 max:  90

 Total nr. of points:      56044
 Nr. of blocks:              438
 Block length:               128
 Nr. of dummy points:         20


 Test of Precision of the Numerical Integration Grid
 ===================================================

 Integral of the Total Core Density:                   0.00000000000000



 ========================
 Density Fitting (zlmFit)
 ========================
  
 ZlmFit Fit Quality: NORMAL         
  
 Max L-expansion:                        min:   7 max:   7
 Nr. of radial interpolation points:     min:  60 max:  72



 =====
 S C F  ***  ScaSCF  ***
 =====
  
 Initial density matrix is calculated as sum of fragments

 CYCLE    1
 SCF Error: norm([F,P])=      1.602486888534, max([F,P])=      0.599627259882
 orbitals (Q,E):
 ---------------
 A :35...54          ( 2.00    -0.5350)  ( 2.00    -0.4240)  ( 2.00    -0.2447)  ( 2.00    -0.2008)
                     ( 2.00    -0.2008)  ( 2.00    -0.1048)  ( 2.00    -0.1048)  ( 2.00    -0.0988)
                     ( 2.00     0.0038)  ( 2.00     0.0038)  ( 0.00     0.0525)  ( 0.00     0.1924)
                     ( 0.00     0.2375)  ( 0.00     0.2375)  ( 0.00     0.2618)  ( 0.00     0.2917)
                     ( 0.00     0.2917)  ( 0.00     0.3437)  ( 0.00     0.3437)  ( 0.00     0.3440)

 CYCLE    2
  SDIIS (wt  0.000):  0.2684  0.7316
 A-DIIS (wt  1.000):  0.9075  0.0925
  DIIS coefficients:  0.9075  0.0925
 SCF Error: norm([F,P])=      0.945857454872, max([F,P])=      0.377772158024
 orbitals (Q,E):
 ---------------
 A :35...45          ( 2.00    -0.5286)  ( 2.00    -0.4636)  ( 2.00    -0.2200)  ( 2.00    -0.1684)
                     ( 2.00    -0.1684)  ( 2.00    -0.1024)  ( 2.00    -0.0994)  ( 2.00    -0.0994)
                     ( 2.00    -0.0332)  ( 2.00    -0.0332)  ( 0.00     0.0306)

 CYCLE    3
  SDIIS (wt  0.000):  0.0506 -1.2343  2.1837
 A-DIIS (wt  1.000):  0.8570  0.0000  0.1430
  DIIS coefficients:  0.8570  0.0000  0.1430
 SCF Error: norm([F,P])=      0.605680531440, max([F,P])=      0.261953127984
 orbitals (Q,E):
 ---------------
 A :35...45          ( 2.00    -0.5319)  ( 2.00    -0.4681)  ( 2.00    -0.2172)  ( 2.00    -0.1622)
                     ( 2.00    -0.1622)  ( 2.00    -0.1034)  ( 2.00    -0.1026)  ( 2.00    -0.1026)
                     ( 2.00    -0.0376)  ( 2.00    -0.0376)  ( 0.00     0.0268)

 CYCLE    4
  SDIIS (wt  0.000): -1.1292 -0.8708  3.0000
 A-DIIS (wt  1.000):  0.0000  0.0000  1.0000
  DIIS coefficients:  0.0000  0.0000  1.0000
 SCF Error: norm([F,P])=      0.572295544018, max([F,P])=      0.255492836139
 orbitals (Q,E):
 ---------------
 A :35...45          ( 2.00    -0.5332)  ( 2.00    -0.3484)  ( 2.00    -0.3138)  ( 2.00    -0.3138)
                     ( 2.00    -0.3078)  ( 2.00    -0.0961)  ( 2.00    -0.0961)  ( 2.00    -0.0813)
                     ( 2.00     0.0719)  ( 2.00     0.0719)  ( 0.00     0.1100)

 CYCLE    5
  SDIIS (wt  0.000): -0.7063 -1.4095  3.0000  0.1157
 A-DIIS (wt  1.000):  0.0000  0.0000  0.7806  0.2194
  DIIS coefficients:  0.0000  0.0000  0.7806  0.2194
 SCF Error: norm([F,P])=      1.542807845756, max([F,P])=      0.489481383465
 orbitals (Q,E):
 ---------------
 A :35...45          ( 2.00    -0.5022)  ( 2.00    -0.4559)  ( 2.00    -0.2156)  ( 2.00    -0.1692)
                     ( 2.00    -0.1692)  ( 2.00    -0.0966)  ( 2.00    -0.0810)  ( 2.00    -0.0810)
                     ( 2.00    -0.0419)  ( 2.00    -0.0419)  ( 0.00     0.0354)

 CYCLE    6
  SDIIS (wt  0.000): -0.1595 -2.0000  2.7189 -0.0079  0.4485
 A-DIIS (wt  1.000):  0.0000  0.0000  0.4228  0.0000  0.5772
  DIIS coefficients:  0.0000  0.0000  0.4228  0.0000  0.5772
 SCF Error: norm([F,P])=      0.497007014538, max([F,P])=      0.146085769323
 orbitals (Q,E):
 ---------------
 A :35...45          ( 2.00    -0.5233)  ( 2.00    -0.4884)  ( 2.00    -0.2120)  ( 2.00    -0.1463)
                     ( 2.00    -0.1463)  ( 2.00    -0.0954)  ( 2.00    -0.0920)  ( 2.00    -0.0920)
                     ( 2.00    -0.0714)  ( 2.00    -0.0714)  ( 0.00     0.0062)

 CYCLE    7
  SDIIS (wt  0.153): -0.2432  0.4337  0.0605 -0.0523  0.3284  0.4729
 A-DIIS (wt  0.847):  0.0000  0.0000  0.0260  0.0000  0.0921  0.8819
  DIIS coefficients: -0.0372  0.0663  0.0313 -0.0080  0.1282  0.8193
 SCF Error: norm([F,P])=      0.260802000458, max([F,P])=      0.084864789025
 orbitals (Q,E):
 ---------------
 A :35...45          ( 2.00    -0.5406)  ( 2.00    -0.4758)  ( 2.00    -0.1927)  ( 2.00    -0.1244)
                     ( 2.00    -0.1244)  ( 2.00    -0.1102)  ( 2.00    -0.1066)  ( 2.00    -0.1066)
                     ( 2.00    -0.0560)  ( 2.00    -0.0560)  ( 0.00     0.0260)

 CYCLE    8
  SDIIS (wt  0.000): -0.0764 -0.0797  0.2322 -0.0083  0.1197  0.5384  0.2741
 A-DIIS (wt  1.000):  0.0000  0.0000  0.0000  0.0000  0.0000  0.6654  0.3346
  DIIS coefficients:  0.0000  0.0000  0.0000  0.0000  0.0000  0.6654  0.3346
 SCF Error: norm([F,P])=      0.401657649018, max([F,P])=      0.134590019869
 orbitals (Q,E):
 ---------------
 A :35...45          ( 2.00    -0.5294)  ( 2.00    -0.4877)  ( 2.00    -0.2025)  ( 2.00    -0.1310)
                     ( 2.00    -0.1310)  ( 2.00    -0.1046)  ( 2.00    -0.1015)  ( 2.00    -0.1015)
                     ( 2.00    -0.0692)  ( 2.00    -0.0692)  ( 0.00     0.0139)

 CYCLE    9
  SDIIS (wt  0.558): -0.0025 -0.4453  0.5107 -0.0056  0.0055  0.3498  0.1589  0.4285
 A-DIIS (wt  0.442):  0.0000  0.0000  0.0000  0.0000  0.0000  0.2516  0.0000  0.7484
  DIIS coefficients: -0.0014 -0.2486  0.2851 -0.0031  0.0030  0.3064  0.0887  0.5698
 SCF Error: norm([F,P])=      0.133305092933, max([F,P])=      0.044742972448
 orbitals (Q,E):
 ---------------
 A :35...45          ( 2.00    -0.5269)  ( 2.00    -0.4928)  ( 2.00    -0.2031)  ( 2.00    -0.1315)
                     ( 2.00    -0.1315)  ( 2.00    -0.1011)  ( 2.00    -0.0981)  ( 2.00    -0.0981)
                     ( 2.00    -0.0707)  ( 2.00    -0.0707)  ( 0.00     0.0122)

 CYCLE   10
  SDIIS (wt  0.558): -0.0071  0.1938 -0.2178 -0.0012 -0.0072  0.1092 -0.0454  0.4818  0.4939
 A-DIIS (wt  0.442):  0.0000  0.0000  0.0000  0.0000  0.0000  0.0321  0.0000  0.5048  0.4630
  DIIS coefficients: -0.0040  0.1082 -0.1216 -0.0006 -0.0040  0.0751 -0.0253  0.4920  0.4802
 SCF Error: norm([F,P])=      0.122408639820, max([F,P])=      0.047988246449
 orbitals (Q,E):
 ---------------
 A :35...45          ( 2.00    -0.5279)  ( 2.00    -0.4908)  ( 2.00    -0.2050)  ( 2.00    -0.1337)
                     ( 2.00    -0.1337)  ( 2.00    -0.1010)  ( 2.00    -0.0979)  ( 2.00    -0.0979)
                     ( 2.00    -0.0720)  ( 2.00    -0.0720)  ( 0.00     0.0105)

 CYCLE   11
  SDIIS (wt  0.846): -0.0047  0.0812 -0.0921 -0.0010 -0.0035  0.0196 -0.0060  0.2509  0.3072  0.4483
 A-DIIS (wt  0.154):  0.0000  0.0000  0.0000  0.0000  0.0000  0.0000  0.0000  0.0000  0.0760  0.9240
  DIIS coefficients: -0.0040  0.0687 -0.0779 -0.0009 -0.0029  0.0166 -0.0051  0.2123  0.2717  0.5215
 SCF Error: norm([F,P])=      0.039914567074, max([F,P])=      0.016228732416
 orbitals (Q,E):
 ---------------
 A :35...45          ( 2.00    -0.5282)  ( 2.00    -0.4911)  ( 2.00    -0.2032)  ( 2.00    -0.1311)
                     ( 2.00    -0.1311)  ( 2.00    -0.1020)  ( 2.00    -0.0988)  ( 2.00    -0.0988)
                     ( 2.00    -0.0715)  ( 2.00    -0.0715)  ( 0.00     0.0119)

 CYCLE   12
  SDIIS (wt  0.956):  0.0111 -0.0151 -0.0001 -0.0017 -0.0039 -0.0025  0.0587  0.0768  0.3230  0.5537
 A-DIIS (wt  0.044):  0.0000  0.0000  0.0000  0.0000  0.0000  0.0000  0.0000  0.0000  0.1611  0.8389
  DIIS coefficients:  0.0107 -0.0144 -0.0001 -0.0017 -0.0037 -0.0024  0.0561  0.0734  0.3158  0.5663
 SCF Error: norm([F,P])=      0.013235651800, max([F,P])=      0.005399465044
 orbitals (Q,E):
 ---------------
 A :35...45          ( 2.00    -0.5281)  ( 2.00    -0.4911)  ( 2.00    -0.2037)  ( 2.00    -0.1318)
                     ( 2.00    -0.1318)  ( 2.00    -0.1018)  ( 2.00    -0.0986)  ( 2.00    -0.0986)
                     ( 2.00    -0.0717)  ( 2.00    -0.0717)  ( 0.00     0.0115)

 CYCLE   13
  SDIIS (wt  1.000): -0.0007 -0.0000 -0.0005 -0.0010 -0.0005  0.0156  0.0200  0.1173  0.2665  0.5833
  DIIS coefficients: -0.0007 -0.0000 -0.0005 -0.0010 -0.0005  0.0156  0.0200  0.1173  0.2665  0.5833
 SCF Error: norm([F,P])=      0.000640323766, max([F,P])=      0.000256288566
 orbitals (Q,E):
 ---------------
 A :35...45          ( 2.00    -0.5281)  ( 2.00    -0.4911)  ( 2.00    -0.2037)  ( 2.00    -0.1318)
                     ( 2.00    -0.1318)  ( 2.00    -0.1018)  ( 2.00    -0.0986)  ( 2.00    -0.0986)
                     ( 2.00    -0.0717)  ( 2.00    -0.0717)  ( 0.00     0.0115)

 CYCLE   14
  SDIIS (wt  1.000): -0.0000 -0.0001 -0.0004 -0.0002  0.0010  0.0010  0.0189  0.0611  0.2257  0.6930
  DIIS coefficients: -0.0000 -0.0001 -0.0004 -0.0002  0.0010  0.0010  0.0189  0.0611  0.2257  0.6930
 SCF Error: norm([F,P])=      0.000080612531, max([F,P])=      0.000022538296
 orbitals (Q,E):
 ---------------
 A :35...45          ( 2.00    -0.5281)  ( 2.00    -0.4911)  ( 2.00    -0.2037)  ( 2.00    -0.1318)
                     ( 2.00    -0.1318)  ( 2.00    -0.1018)  ( 2.00    -0.0986)  ( 2.00    -0.0986)
                     ( 2.00    -0.0717)  ( 2.00    -0.0717)  ( 0.00     0.0115)

 CYCLE   15
  SDIIS (wt  1.000): -0.0000  0.0000 -0.0001  0.0004  0.0003  0.0032  0.0129  0.0569  0.2066  0.7198
  DIIS coefficients: -0.0000  0.0000 -0.0001  0.0004  0.0003  0.0032  0.0129  0.0569  0.2066  0.7198
 SCF Error: norm([F,P])=      0.000016123101, max([F,P])=      0.000007002308
 orbitals (Q,E):
 ---------------
 A :35...45          ( 2.00    -0.5281)  ( 2.00    -0.4911)  ( 2.00    -0.2037)  ( 2.00    -0.1318)
                     ( 2.00    -0.1318)  ( 2.00    -0.1018)  ( 2.00    -0.0986)  ( 2.00    -0.0986)
                     ( 2.00    -0.0717)  ( 2.00    -0.0717)  ( 0.00     0.0115)

 CYCLE   16
  SDIIS (wt  1.000):  0.0000 -0.0000  0.0000  0.0000 -0.0001  0.0005  0.0019  0.0127  0.0756  0.9093
  DIIS coefficients:  0.0000 -0.0000  0.0000  0.0000 -0.0001  0.0005  0.0019  0.0127  0.0756  0.9093
 SCF Error: norm([F,P])=      0.000001753973, max([F,P])=      0.000000549141
 orbitals (Q,E):
 ---------------
 A :35...45          ( 2.00    -0.5281)  ( 2.00    -0.4911)  ( 2.00    -0.2037)  ( 2.00    -0.1318)
                     ( 2.00    -0.1318)  ( 2.00    -0.1018)  ( 2.00    -0.0986)  ( 2.00    -0.0986)
                     ( 2.00    -0.0717)  ( 2.00    -0.0717)  ( 0.00     0.0115)

 SCF CONVERGED

 CYCLE   17
1
 ***************************************************************************************************



                                                *******************
                                                *  R E S U L T S  *
                                                *******************
  
 *** Setting up for NEW gradients in Focky
 *** Using FIT density in Focky

 Orbital Energies, per Irrep and Spin:
 ======================================
                        Occup              E (au)              E (eV)       Diff (eV) with prev. cycle
                        -----      --------------------        ------       --------------------------
 A
              35        2.000     -0.52810708872117E+00       -14.371              -1.50E-06
              36        2.000     -0.49112774446333E+00       -13.364              -7.68E-07
              37        2.000     -0.20369617636028E+00        -5.543              -1.25E-06
              38        2.000     -0.13178780846242E+00        -3.586              -1.23E-06
              39        2.000     -0.13178580636421E+00        -3.586              -1.23E-06
              40        2.000     -0.10178757092210E+00        -2.770              -1.15E-06
              41        2.000     -0.98583427253197E-01        -2.683              -1.23E-06
              42        2.000     -0.98582147098678E-01        -2.683              -1.23E-06
              43        2.000     -0.71714789750117E-01        -1.951              -9.02E-07
              44        2.000     -0.71712944481617E-01        -1.951              -9.02E-07
              45        0.000      0.11542905716638E-01         0.314
              46        0.000      0.24434057633908E+00         6.649
              47        0.000      0.28492296933379E+00         7.753
              48        0.000      0.28493355653344E+00         7.753
              49        0.000      0.29830037423368E+00         8.117
              50        0.000      0.32655177631972E+00         8.886
              51        0.000      0.32655753828908E+00         8.886
              52        0.000      0.35403074683265E+00         9.634
              53        0.000      0.35403677325218E+00         9.634
              54        0.000      0.36400617307174E+00         9.905
  
 HOMO :       44 A                -0.71712944481617E-01
 LUMO :       45 A                 0.11542905716638E-01
  


 All Electron Calculation, thus no Orbital Energies of the Core Orbitals are calculated


 Fit test: (difference of exact and fit density, squared integrated, result summed over spins)
         Sum-of-Fragments:                             0.00161489615427
         Orthogonalized Fragments:                     0.00161645079105
         SCF:                                          0.00161932535476



 ==========================
 Electron Density at Nuclei
 ==========================
  
 The electron density is calculated at points on a small sphere around the center of a nucleus.
 The printed electron density is the average electron density on these points.
 The radius of the sphere is the printed approximate finite nuclear radius.

         Atom        Nuclear Radius (Angstrom)             Electron Density (a.u.)
         ----        -------------------------             -----------------------
     1)   Br                0.0000536685                            29315.30890
     2)   Br                0.0000536685                            29313.22261
     3)   Cl                0.0000426624                             3210.61201



 =======================================
 M U L L I K E N   P O P U L A T I O N S
 =======================================
  
 The survey below gives for each atom:
 a) the total charge (Z minus electrons)
 b) the net spin polarization (nr of electrons spin-A minus spin-B)
 c) for each spin the atomic electron valence density (integrated) per L-value.

 Atom              Charge    Spin density          S         P         D         F
 ----              ------    ------------       ------    ------    ------    ------
 1 Br             -0.0973                       7.9947   16.9711   10.1148    0.0167
 2 Br             -0.4678                       7.9904   17.4388   10.0316    0.0071
 3 Cl             -0.4348                       5.9775   11.4345    0.0188    0.0040

 Populations of individual BAS functions
 ----------------------------------------
 1 Br           0.3611  1.5681  2.0733  0.7131  0.7124  0.7133  1.2648  1.2661  1.2644  1.4387
                0.5883  1.1383  1.1239  1.1418  0.8908  0.9038  0.8876  0.2678  0.4016  0.4018
                0.2676  0.4016  0.2679  0.7775  1.1650  1.1662  0.7753  1.1652  0.7781  0.2873
                0.4343  0.4321  0.2936  0.4337  0.2859  0.2931  1.2516  0.4205  0.5939  0.3911
                0.6431  0.9826  0.7237  1.0454  0.2265  0.0833  0.2612  0.0005  0.0385  0.0049
                0.0534  0.0198 -0.0048 -0.0060 -0.0042 -0.0006  0.0157  0.0020 -0.0047  0.0204
                0.0141 -0.0097 -0.0104
 2 Br           0.3611  1.5681  2.0732  0.7131  0.7128  0.7132  1.2648  1.2655  1.2646  1.4363
                0.5983  1.1381  1.1311  1.1398  0.8906  0.8970  0.8891  0.2677  0.4014  0.4016
                0.2677  0.4015  0.2676  0.7772  1.1647  1.1655  0.7752  1.1649  0.7776  0.2880
                0.4340  0.4328  0.2919  0.4336  0.2871  0.2674  1.2114  0.4746  0.5990  0.4984
                0.6234  0.9772  0.8418  1.0100  0.3125  0.2226  0.3343 -0.0008  0.0094  0.0019
                0.0187  0.0074 -0.0051 -0.0044 -0.0036 -0.0004  0.0099  0.0008 -0.0034  0.0137
                0.0090 -0.0073 -0.0073
 3 Cl           0.5055  1.4530  1.7123  0.2554  0.7275  0.7231  0.7286  1.2705  1.2765  1.2691
                0.6024  1.0398  0.4092  0.2908  0.2351  0.3043  1.0500  0.9288  1.0793  0.5535
                0.4088  0.5887 -0.0020  0.0059  0.0010  0.0155  0.0041 -0.0057 -0.0033 -0.0032
               -0.0004  0.0072  0.0005 -0.0027  0.0103  0.0071 -0.0055 -0.0060

 Gross Charges per Atom (Z minus electrons)
 ==========================================
            -0.0973   -0.4678   -0.4348
 Net Total: -1.00000000


 Atom-Atom Population Matrix (off-diagonal elements not doubled)
 ===============================================================

     1 :    35.0360
     2 :     0.0316   35.4258
     3 :     0.0297    0.0104   17.3948


 Frag-Frag Population Matrix (off-diagonal elements not doubled)
 ===============================================================

     1 :    70.5251
     2 :     0.0401   17.3948



 =================================================
 H I R S H F E L D   C H A R G E   A N A L Y S I S
 =================================================
  
 For each fragment: the (numerical) integral of rho(scf) * rho(fragment)/rho(sum-of-fragments)
 (nuclear charges are included, electrons are counted negative)

 The fragments and their ordering are defined in the early G E O M E T R Y output section.
 If you use single-atom fragments, this usually implies that all atoms of the same
 chemical type are grouped together. This may not be the order in which you listed them
 in the input file!

    1  BrBr                     -0.4201
    2  Cl                       -0.5799

 Sum of these charges (accuracy NumInt/Tails) =          -0.99999532



 =============================
 V O R O N O I   C H A R G E S
 =============================
  
 For each atom: the (numerical) integral of the total electronic charge density in its Voronoi cell,
 i.e. the region of space that is closer to that atom than to any other atom.
 (cf. Wigner-Seitz cells in crystals)

 Within the Voronoi cell the subintegrals over the atomic sphere and the remaining part are evaluated
 separately to give the numbers of electrons (negative charge) in these regions.
 The net total charge in the cell (including the nuclear charge) is also given.

 Values are provided for
    a) the Initial (sum-of-fragments) density
    b) the Orthogonalized-Fragments density
    c) the SCF density
    d) the Voronoi Deformation Density (VDD): the difference SCF-Initial for the complete atomic cell
 ---------------------------------------------------------------------------------------------------
 Total NetCharge:              -1.000                     -1.000                     -1.000    0.000
 (accuracy NumInt/Tails)

 Remark: the 'NetTotal' Voronoi charges often do not match the Mulliken and/or Hirshfeld charges very
 well. This is caused by the fact that chemically different atoms are not treated in accordance with
 their relative sizes. (Voronoi cells are defined by boundary planes halfway between the atoms.)
 However, the CHANGES in charge, comparing 'Initial' to 'SCF' for instance, do give a fair indication
 of the flow of charge caused by the relaxation from sum-of-fragments to self-consistency.

 Warning: the absolute accuracy of the VDD charges obtained using the Fuzzy Cells (Becke) integration
 scheme is much poorer than the one obtained with an 'equivalent' Voronoi integration grid. 



 =================================================================
 M U L T I P O L E   D E R I V E D   C H A R G E   A N A L Y S I S
 =================================================================

 This charge analysis uses the atomic multipoles (obtained from the fitted density) up to some level X,
 and reconstructs these multipoles exactly (up to level X) by distributing charges over all atoms.
 This is achieved by using Lagrange multipliers and a weight function to keep the multipoles local.

 Dummy atoms can be included (by setting INCDUM in MDC-block to 1) to obtain a fractional charge.
 This is generally useful and necessary only for small symmetrical molecules, when there are not
 enough degrees of freedom to reconstruct the multipoles.

 Since the atomic multipoles are reconstructed up to level X,
 the molecular multipoles are represented also up to level X.
 The recommended level is to reconstruct up to quadrupole : -> MDC-q charges.

 See: M. Swart, P.Th. van Duijnen, J.G. Snijders, J.Comput.Chem., (2001), p. 79-88.

 ------------------------------------------------------------- 
 Atomic electronic multipole moments from SCF equations (a.u.)
 ------------------------------------------------------------- 

   atom        charge        dip-x     dip-y     dip-z      quad-xx   quad-xy   quad-xz   quad-yy   quad-yz   quad-zz
 --------------------------------------------------------------------------------------------------------------------
    1 Br    -0.062112    -0.092073  0.195159 -0.036042    -0.578835 -0.930267  0.174485  1.713402 -0.369224 -1.134568
    2 Br    -0.428523    -0.102869  0.217596 -0.040882    -0.391008 -0.629326  0.118884  1.157595 -0.251210 -0.766587
    3 Cl    -0.509366     0.012377 -0.026089  0.005046    -0.243647 -0.391249  0.073021  0.721368 -0.154539 -0.477721

 --------------------------------------- 
 Multipole derived atomic charges (a.u.)
 --------------------------------------- 

 The MDC-m charges are just the Monopole terms in the multipole expansion, while for the MDC-d charges
 also the Dipoles are reconstructed. The usually preferred charges are the MDC-q charges.
 These reconstruct the Monopoles, Dipoles and Quadrupoles (both atomic AND molecular).

        Atom    Level:     MDC-m        MDC-d        MDC-q
 ---------------------------------------------------------
     1     Br          -0.062112    -0.228192    -0.074431
     2     Br          -0.428523    -0.392078    -0.465957
     3     Cl          -0.509366    -0.379730    -0.459612

 ------------------------------------------------ 
 Average absolute deviations in atomic multipoles
 ------------------------------------------------ 

 Stated here are the average differences between the atomic multipoles
 and the reconstructed atomic multipoles (from the distributed charges).
 If these values are not zero, this means there are not enough degrees of freedom,
 to be able to reconstruct the atomic multipoles. (This usually happens only
 for small and/or highly symmetric molecules). If this is the case, one could add
 dummy atoms as extra point charges (and setting INCDUM in MDC-block to 1).

 Level:                                 MDC-d        MDC-q
 ---------------------------------------------------------
 Charge   (a.u.)                       0.0000       0.0000
 Dipole   (Debye)                      0.0000       0.0094
 Quad.    (a.u.)                       0.3485       0.2351

 --------------------------------------- 
 Represented molecular multipole moments
 --------------------------------------- 

 Given here are the Molecular multipole moments from the atomic charges, and from the Fit Density.
 Note that the atomic charges represent the latter, NOT the ones from the Exact density.

            Q (a.u.)             Dipole moment (Debye)                                          Quadrupole moment (a.u.)
                                 x         y         z              xx        xy        xz        yy        yz        zz
------------------------------------------------------------------------------------------------------------------------
MDC-m        -1.0000       24.0403  -15.7022    0.3695        -65.1545  100.2084   -4.4205   -8.8490    6.3344   74.0035
MDC-d        -1.0000       23.5762  -14.7194    0.1869        -64.9465   90.9890   -2.9778   -3.3024    4.7735   68.2489
MDC-q        -1.0000       23.5851  -14.7393    0.1890        -64.1062   93.2016   -3.3787   -5.9061    5.6044   70.0122
 
Fit.Dens.    -1.0000       23.5763  -14.7194    0.1869        -64.6202   92.7519   -3.3082   -4.2691    5.4727   68.8894



 =============
 Dipole Moment  ***  (Debye)  ***
 =============
  
 Vector   :        23.57113527    -14.70851437      0.18477302
 Magnitude:        27.78440127

 This molecular dipole moment is calculated with analytic integration
 ************************************************************************************
 Since the molecule is NOT NEUTRAL, the dipole moment depends on the choice of origin
 ************************************************************************************



 =========================================
 Quadrupole Moment (Buckingham convention)  ***  (a.u.)  ***
 =========================================
  
      quad-xx        quad-xy        quad-xz        quad-yy        quad-yz        quad-zz
    -64.60959017    91.69436428    -3.11260602    -4.23237841     5.07568273    68.84196858

 This molecular quadrupole moment is calculated with analytic integration
1



                                             *************************
                                             *  SFO MO coefficients  *
                                             *************************
  


                                       === A ===
 MOs expanded in CFs+SFOs
 ========================

 The SFOs have been characterized in an earlier part of output.
 To deduce the bonding / antibonding nature of SFO combinations in an MO, consider the products
 of the coefficients AND THE OVERLAP between the SFOs (may be NEGATIVE). The SFO overlap matrix
 is printed later, in the SFO Populations section.

 (The CF coefficients are not printed)

 MOs :      1        2        3        4        5        6        7        8        9       10
 occup:   2.00     2.00     2.00     2.00     2.00     2.00     2.00     2.00     2.00     2.00
 CF+SFO
     1   0.6966   0.7174  -0.0000   0.0000  -0.0000   0.0000  -0.0000  -0.0000  -0.0000  -0.0000
     2  -0.7174   0.6966   0.0000  -0.0000  -0.0000  -0.0000   0.0000   0.0000  -0.0000  -0.0000
     3   0.0000   0.0000   0.0000  -0.6839   0.7296  -0.0005   0.0000   0.0000   0.0002   0.0000
     4  -0.0000   0.0000  -0.0000   0.7296   0.6839   0.0005  -0.0000  -0.0000   0.0002   0.0000
     5   0.0000   0.0000  -0.0000   0.0005  -0.0002  -0.6907   0.0001   0.0006   0.7231   0.0001
     6  -0.0000   0.0000   0.0000  -0.0005  -0.0002   0.7231  -0.0001  -0.0006   0.6907   0.0000
     7   0.0000   0.0000   0.0000   0.0000  -0.0000   0.0000   0.3905  -0.0550  -0.0001   0.9188
     8  -0.0000   0.0000  -0.0000  -0.0000  -0.0000  -0.0001  -0.9099   0.1284  -0.0000   0.3943
     9   0.0000   0.0000   0.0000   0.0000  -0.0000   0.0003   0.0485   0.3435  -0.0004  -0.0161
    10   0.0000  -0.0000   0.0000   0.0000   0.0000   0.0008   0.1310   0.9287   0.0001   0.0059
    11  -0.0000  -0.0000   0.0000   0.0001  -0.0001   0.0000  -0.0000  -0.0000  -0.0000  -0.0000
    12   0.0000  -0.0000  -0.0000  -0.0001  -0.0001  -0.0000   0.0000   0.0000  -0.0000  -0.0000
    13  -0.0000   0.0000  -0.0000   0.0000   0.0000  -0.0000   0.0000  -0.0000  -0.0000   0.0000
    14  -0.0000   0.0000  -0.0000   0.0000  -0.0000  -0.0000   0.0000  -0.0000   0.0000  -0.0000
    15  -0.0000   0.0000  -0.0000  -0.0000   0.0000  -0.0000   0.0000  -0.0000   0.0000   0.0000
    16   0.0000  -0.0000   0.0000   0.0000  -0.0000   0.0000   0.0000   0.0000  -0.0000   0.0000
    17  -0.0000   0.0000  -0.0000  -0.0000  -0.0000  -0.0000   0.0000  -0.0000  -0.0000  -0.0000
    18   0.0000  -0.0000   0.0000   0.0000   0.0000   0.0000   0.0000   0.0000   0.0000  -0.0000
    19   0.0000  -0.0000   0.0000   0.0000   0.0000   0.0000  -0.0000   0.0000   0.0000  -0.0000
    20  -0.0000   0.0000  -0.0000  -0.0000   0.0000  -0.0000   0.0000  -0.0000   0.0000  -0.0000
    21   0.0000   0.0000  -0.0000   0.0000  -0.0000  -0.0000   0.0000  -0.0000  -0.0000  -0.0000
    22   0.0000  -0.0000   0.0000  -0.0000  -0.0000  -0.0000   0.0000   0.0000  -0.0000  -0.0000
    23  -0.0000  -0.0000   0.0000  -0.0000  -0.0000   0.0000  -0.0000   0.0000  -0.0000  -0.0000
    24  -0.0000   0.0000  -0.0000   0.0000  -0.0000   0.0000  -0.0000  -0.0000  -0.0000  -0.0000
    25   0.0000  -0.0000   0.0000   0.0000   0.0000  -0.0000  -0.0000  -0.0000   0.0000   0.0000
    26  -0.0000  -0.0000   0.0000  -0.0000   0.0000  -0.0000  -0.0000   0.0000   0.0000   0.0000
    27  -0.0000   0.0000  -0.0000  -0.0000   0.0000   0.0000   0.0000   0.0000   0.0000   0.0000
    28   0.0000   0.0000  -0.0000   0.0000   0.0000   0.0000   0.0000  -0.0000   0.0000   0.0000
    29  -0.0000   0.0000  -0.0000   0.0000   0.0000  -0.0000  -0.0000  -0.0000   0.0000   0.0000
    30  -0.0000   0.0000  -0.0000   0.0000  -0.0000  -0.0000  -0.0000  -0.0000  -0.0000   0.0000
    31   0.0000  -0.0000   0.0000   0.0000   0.0000   0.0000  -0.0000  -0.0000   0.0000   0.0000
    32   0.0000  -0.0000   0.0000  -0.0000   0.0000  -0.0000  -0.0000  -0.0000  -0.0000   0.0000
    33  -0.0000   0.0000  -0.0000   0.0000  -0.0000   0.0000  -0.0000   0.0000   0.0000   0.0000
    34  -0.0000   0.0000  -0.0000   0.0000  -0.0000   0.0000   0.0000   0.0000  -0.0000   0.0000
    35   0.0000  -0.0000   0.0000   0.0000   0.0000  -0.0000   0.0000  -0.0000   0.0000   0.0000
    36   0.0000  -0.0000   0.0000   0.0000   0.0000   0.0000  -0.0000  -0.0000  -0.0000  -0.0000
    37   0.0000  -0.0000   0.0001   0.0000   0.0000   0.0000  -0.0000   0.0000   0.0000   0.0000
    38   0.0000  -0.0000   0.0000   0.0000   0.0000   0.0000  -0.0000   0.0000  -0.0000  -0.0000
    39   0.0000  -0.0000   0.0000   0.0000   0.0000   0.0000  -0.0000   0.0000   0.0000   0.0000
    40  -0.0000   0.0000  -0.0000  -0.0000  -0.0000  -0.0000  -0.0000  -0.0000  -0.0000   0.0000
    41   0.0000  -0.0000   0.0000   0.0000   0.0000   0.0000  -0.0000  -0.0000  -0.0000   0.0000
    42  -0.0000   0.0000  -0.0000  -0.0000  -0.0000  -0.0000  -0.0000   0.0000   0.0000   0.0000
    43  -0.0000   0.0000  -0.0000  -0.0000  -0.0000  -0.0000  -0.0000   0.0000  -0.0000   0.0000
    44   0.0000  -0.0000   0.0000   0.0000   0.0000   0.0000  -0.0000  -0.0000   0.0000   0.0000
    45   0.0000  -0.0000   0.0000   0.0000   0.0000   0.0000  -0.0000  -0.0000   0.0000  -0.0000
    46   0.0000  -0.0000   0.0000   0.0000   0.0000  -0.0000  -0.0000  -0.0000   0.0000   0.0000
    47   0.0000  -0.0000   0.0000   0.0000   0.0000   0.0000  -0.0000   0.0000   0.0000   0.0000
    48   0.0000  -0.0000  -0.0000   0.0000   0.0000  -0.0000   0.0000  -0.0000   0.0000   0.0000
    49  -0.0000   0.0000  -0.0000   0.0000  -0.0000  -0.0000  -0.0000  -0.0000  -0.0000  -0.0000
    50  -0.0000   0.0000  -0.0000   0.0000  -0.0000   0.0000  -0.0000  -0.0000  -0.0000  -0.0000
    51  -0.0000   0.0000  -0.0000   0.0000   0.0000  -0.0000  -0.0000  -0.0000  -0.0000   0.0000
    52  -0.0000   0.0000   0.0000   0.0000  -0.0000  -0.0000   0.0000   0.0000   0.0000   0.0000
    53   0.0000  -0.0000  -0.0000   0.0000   0.0000   0.0000   0.0000  -0.0000  -0.0000   0.0000
    54   0.0000  -0.0000  -0.0000   0.0000  -0.0000  -0.0000  -0.0000  -0.0000   0.0000   0.0000
    55   0.0000  -0.0000   0.0000  -0.0000  -0.0000   0.0000  -0.0000  -0.0000  -0.0000   0.0000
    56   0.0000  -0.0000  -0.0000  -0.0000  -0.0000   0.0000  -0.0000   0.0000   0.0000   0.0000
    57   0.0000  -0.0000  -0.0000  -0.0000   0.0000   0.0000  -0.0000   0.0000   0.0000   0.0000
    58  -0.0000   0.0000   0.0000   0.0000  -0.0000  -0.0000  -0.0000  -0.0000  -0.0000   0.0000
    59  -0.0000  -0.0000  -0.0000   0.0000  -0.0000  -0.0000  -0.0000  -0.0000   0.0000  -0.0000
    60   0.0000  -0.0000  -0.0000  -0.0000  -0.0000   0.0000   0.0000  -0.0000   0.0000   0.0000
    61   0.0000  -0.0000  -0.0000  -0.0000   0.0000   0.0000  -0.0000   0.0000   0.0000  -0.0000
    62  -0.0000   0.0000   0.0000  -0.0000  -0.0000   0.0000   0.0000   0.0000  -0.0000  -0.0000
    63   0.0000  -0.0000  -0.0000   0.0000  -0.0000  -0.0000  -0.0000   0.0000   0.0000   0.0000
    64  -0.0000   0.0000   0.0000  -0.0000   0.0000   0.0000   0.0000   0.0000   0.0000   0.0000
    65   0.0000  -0.0000  -0.0000  -0.0000  -0.0000   0.0000  -0.0000   0.0000  -0.0000  -0.0000
    66  -0.0000  -0.0000  -0.0000   0.0000  -0.0000   0.0000  -0.0000  -0.0000  -0.0000  -0.0000
    67  -0.0000   0.0000   0.0000   0.0000  -0.0000   0.0000  -0.0000  -0.0000  -0.0000   0.0000
    68   0.0000  -0.0000  -0.0000  -0.0000   0.0000  -0.0000  -0.0000   0.0000   0.0000   0.0000
    69  -0.0000   0.0000  -0.0000  -0.0000  -0.0000  -0.0000  -0.0000  -0.0000  -0.0000   0.0000
    70   0.0000  -0.0000   0.0000  -0.0000   0.0000   0.0000  -0.0000   0.0000  -0.0000   0.0000
    71   0.0000  -0.0000  -0.0000  -0.0000  -0.0000   0.0000  -0.0000   0.0000   0.0000  -0.0000
    72   0.0000  -0.0000  -0.0000  -0.0000   0.0000   0.0000   0.0000   0.0000  -0.0000   0.0000
    73  -0.0000   0.0000   0.0000   0.0000  -0.0000  -0.0000   0.0000  -0.0000   0.0000   0.0000
    74   0.0000  -0.0000  -0.0000  -0.0000  -0.0000   0.0000  -0.0000   0.0000  -0.0000   0.0000
    75  -0.0000   0.0000  -0.0000   0.0000   0.0000   0.0000  -0.0000  -0.0000   0.0000   0.0000
    76   0.0000  -0.0000   0.0000  -0.0000  -0.0000   0.0000  -0.0000   0.0000  -0.0000   0.0000
    77  -0.0000   0.0000  -0.0000   0.0000   0.0000   0.0000  -0.0000  -0.0000   0.0000   0.0000
    78  -0.0000   0.0000  -0.0000  -0.0000   0.0000   0.0000  -0.0000  -0.0000   0.0000   0.0000
    79  -0.0000   0.0000  -0.0000   0.0000   0.0000  -0.0000   0.0000  -0.0000   0.0000  -0.0000
    80   0.0000   0.0000  -0.0000  -0.0000   0.0000  -0.0000  -0.0000  -0.0000   0.0000  -0.0000
    81   0.0000   0.0000  -0.0000  -0.0000   0.0000  -0.0000   0.0000  -0.0000   0.0000   0.0000
    82  -0.0000  -0.0000   0.0000   0.0000  -0.0000   0.0000  -0.0000  -0.0000  -0.0000  -0.0000
    83   0.0000  -0.0000   0.0000  -0.0000   0.0000   0.0000   0.0000   0.0000   0.0000  -0.0000
    84  -0.0000   0.0000  -0.0000   0.0000  -0.0000   0.0000  -0.0000  -0.0000  -0.0000  -0.0000
    85   0.0000  -0.0000   0.0000  -0.0000   0.0000  -0.0000  -0.0000   0.0000   0.0000  -0.0000
    86  -0.0000  -0.0000   0.0000   0.0000   0.0000  -0.0000  -0.0000   0.0000   0.0000   0.0000
    87  -0.0000   0.0000   0.0000   0.0000   0.0000   0.0000  -0.0000  -0.0000  -0.0000   0.0000
    88  -0.0000   0.0000   0.0000   0.0000   0.0000   0.0000   0.0000  -0.0000   0.0000  -0.0000
    89  -0.0000   0.0000  -0.0000   0.0000   0.0000   0.0000  -0.0000  -0.0000   0.0000   0.0000
    90  -0.0000  -0.0000   0.0000   0.0000  -0.0000   0.0000  -0.0000  -0.0000   0.0000  -0.0000
    91  -0.0000  -0.0000   0.0000   0.0000  -0.0000   0.0000   0.0000  -0.0000  -0.0000   0.0000
    92  -0.0000  -0.0000  -0.0000   0.0000  -0.0000   0.0000  -0.0000  -0.0000  -0.0000  -0.0000
    93   0.0000  -0.0000  -0.0000  -0.0001  -0.0001  -0.0000   0.0000   0.0000  -0.0000  -0.0000
    94  -0.0000  -0.0000  -0.0000   0.0001  -0.0001   0.0000  -0.0000  -0.0000  -0.0000  -0.0000
    95   0.0000  -0.0000   0.0000   0.0000   0.0000   0.0000   0.0000  -0.0000   0.0000  -0.0000
    96  -0.0000   0.0000  -0.0000  -0.0000  -0.0000  -0.0000   0.0000   0.0000  -0.0000  -0.0000
    97  -0.0000   0.0000   0.0000   0.0000   0.0000  -0.0000   0.0000   0.0000   0.0000  -0.0000
    98  -0.0000   0.0000   0.0000  -0.0000   0.0000   0.0000  -0.0000   0.0000   0.0000   0.0000
    99   0.0000   0.0000  -0.0000  -0.0000   0.0000   0.0000  -0.0000  -0.0000  -0.0000  -0.0000
   100   0.0000   0.0000  -0.0000   0.0000   0.0000  -0.0000   0.0000  -0.0000   0.0000   0.0000
   101  -0.0000   0.0000  -0.0000   0.0000  -0.0000  -0.0000  -0.0000   0.0000  -0.0000   0.0000
   102  -0.0000   0.0000  -0.0000  -0.0000   0.0000  -0.0000   0.0000   0.0000   0.0000  -0.0000
   103   0.0000  -0.0000   0.0000   0.0000  -0.0000   0.0000  -0.0000   0.0000  -0.0000  -0.0000
   104  -0.0000  -0.0000  -0.0000   0.0000   0.0000  -0.0000  -0.0000   0.0000   0.0000   0.0000
   105  -0.0000   0.0000  -0.0000   0.0000   0.0000   0.0000   0.0001   0.0000   0.0000  -0.0001
   106  -0.0000   0.0000  -0.0000   0.0000   0.0000   0.0000  -0.0000   0.0001   0.0000   0.0000
   107  -0.0000   0.0000   0.0000   0.0000   0.0000  -0.0001   0.0000   0.0000  -0.0000  -0.0000
   108  -0.0000  -0.0000  -0.0000   0.0000  -0.0000   0.0000   0.0000   0.0000  -0.0000   0.0000
   109  -0.0000  -0.0000  -0.0000   0.0000  -0.0000   0.0000  -0.0000   0.0000  -0.0000  -0.0000
   110  -0.0000  -0.0000   0.0000   0.0000  -0.0000  -0.0001   0.0000   0.0000   0.0000   0.0000
   111  -0.0000   0.0000  -0.0000   0.0000   0.0000   0.0000  -0.0000  -0.0000   0.0000  -0.0000
   112  -0.0000  -0.0000   0.0000   0.0000  -0.0000   0.0000  -0.0000  -0.0000  -0.0000   0.0000
   113   0.0000  -0.0000   1.0000   0.0000   0.0000   0.0000  -0.0000   0.0000   0.0000  -0.0000
   114   0.0000  -0.0000  -0.0000   0.0000   0.0000   0.0000  -0.0000   0.0000   0.0000  -0.0000
   115   0.0000  -0.0000   0.0000   0.0000   0.0000   0.0000  -0.0000   0.0000   0.0000   0.0000
   116  -0.0000   0.0000  -0.0000  -0.0000  -0.0000  -0.0000  -0.0000   0.0000  -0.0000   0.0000
   117  -0.0000   0.0000  -0.0000  -0.0000  -0.0000  -0.0000   0.0000   0.0000  -0.0000  -0.0000
   118   0.0000  -0.0000   0.0001   0.0000   0.0000   0.0000  -0.0000   0.0000   0.0000  -0.0000
   119   0.0000  -0.0000   0.0000   0.0000   0.0000   0.0000  -0.0000  -0.0000   0.0000   0.0000
   120  -0.0000   0.0000  -0.0000  -0.0000  -0.0000  -0.0000  -0.0000   0.0000  -0.0000   0.0000
   121   0.0000  -0.0000   0.0000   0.0000   0.0000   0.0000  -0.0000   0.0000   0.0000   0.0000
   122   0.0000  -0.0000   0.0001   0.0000   0.0000   0.0000  -0.0000  -0.0000  -0.0000  -0.0000
   123   0.0000  -0.0000   0.0000   0.0000   0.0000   0.0000   0.0000  -0.0000  -0.0000  -0.0000
   124   0.0000  -0.0000   0.0000   0.0000   0.0000   0.0000  -0.0000   0.0000  -0.0000   0.0000
   125  -0.0000   0.0000  -0.0000  -0.0000  -0.0000  -0.0000   0.0000   0.0000   0.0000  -0.0000
   126   0.0000  -0.0000   0.0000  -0.0000   0.0000  -0.0000  -0.0000  -0.0000   0.0000   0.0000
   127   0.0000  -0.0000   0.0000  -0.0000   0.0000  -0.0000   0.0000  -0.0000   0.0000  -0.0000
   128  -0.0000   0.0000  -0.0000   0.0000  -0.0000   0.0000  -0.0000  -0.0000  -0.0000  -0.0000
   129   0.0000  -0.0000   0.0000  -0.0000   0.0000  -0.0000   0.0000  -0.0000   0.0000  -0.0000
   130  -0.0000   0.0000  -0.0000   0.0000  -0.0000   0.0000   0.0000  -0.0000  -0.0000  -0.0000
   131  -0.0000   0.0000  -0.0000  -0.0000  -0.0000  -0.0000   0.0000  -0.0000   0.0000  -0.0000
[...]

 column         133                   134                   135                   136
 row
  133    1.00000000000000E+00
  134    1.47888147559783E-17  1.00000000000000E+00
  135    7.62235846938684E-16  1.34216220521887E-15  9.99999999999998E-01
  136    4.80658371731387E-16  8.01642235012343E-16  8.59678090365623E-16  1.00000000000000E+00
  137   -8.18079620729140E-16  1.07478667335783E-16 -7.80695682635728E-16  5.28750827907510E-16
  138   -2.01107697474359E-16 -2.20440748039405E-16  3.22919664437677E-16 -1.57134776111040E-16
  139    4.99920751293619E-16 -4.47097659120473E-16  6.49146674897027E-16 -6.01419412343902E-16
  140    3.77034614204284E-16  3.71218912458216E-16  9.89760116449018E-17 -4.24857326782654E-16
  141    4.87461240746643E-16  2.90063944627953E-16 -1.52721628576726E-17 -7.08151837035709E-17
  142    9.63618562114382E-17 -3.65440506631606E-16 -8.20839512151645E-17  2.80287172713388E-17
  143   -7.68717736789046E-17  2.18807099416838E-16  1.72397198089819E-16 -4.99733292314480E-17
  144   -3.45974366014722E-16  2.48566635871662E-16  2.97194903252650E-16 -4.29778958783116E-16
  145    6.99217293803401E-17  6.20444070124254E-16  3.16661976929265E-16 -3.19661221333819E-16
  146   -1.85805147309703E-17 -6.99039350710029E-17  5.32885367776625E-17 -3.12331540838762E-16

 column         137                   138                   139                   140
 row
  137    9.99999999999999E-01
  138   -9.27837772839992E-17  9.99999999999999E-01
  139   -1.53954643850133E-16 -4.64628911788032E-16  9.99999999999998E-01
  140   -6.06541341166610E-16  3.65160138726065E-16  1.60412370100440E-16  9.99999999999999E-01
  141   -2.63731966698862E-16 -3.59141122602876E-16  4.44566936432314E-16  6.34104534424093E-16
  142   -5.38744718189257E-17  1.21078269141989E-14  4.49365801594983E-16  3.87888573799740E-16
  143   -2.18234875721408E-16  1.01838983006621E-16  9.67114161208582E-16  1.08251085944807E-15
  144    4.86744306766131E-17 -3.11260044160485E-16  4.66137477467092E-16 -1.26005849431323E-15
  145   -6.13072719578659E-17 -7.51729035193983E-16 -4.67747951797618E-16 -4.63755409061176E-16
  146    3.40575007432009E-16  8.00358043728799E-15 -6.41847686111419E-17  1.38344197209150E-16

 column         141                   142                   143                   144
 row
  141    9.99999999999999E-01
  142   -8.02128766105034E-16  1.00000000000004E+00
  143   -2.87538039439681E-17 -9.03204995942653E-17  1.00000000000000E+00
  144    1.27575443834233E-16  1.88981097345433E-16 -1.32372614931008E-16  9.99999999999999E-01
  145    1.47862036445695E-15  1.14702660618336E-16 -5.68531664100859E-16  1.01441406917004E-16
  146   -7.15573433840433E-18  3.67160728903526E-14  1.77375475418629E-16 -3.76868675155961E-16

 column         145                   146
 row
  145    1.00000000000000E+00
  146   -3.13334427848311E-17  1.00000000000004E+00


 SFO contributions (%) per orbital
 (multiplication by the orbital occupation yields the SFO Gross Populations)

 Orb.:       35     36     37     38     39     40     41     42     43     44     45     46     47     48
 occup:     2.00   2.00   2.00   2.00   2.00   2.00   2.00   2.00   2.00   2.00   0.00   0.00   0.00   0.00
 CF+SFO     ----   ----   ----   ----   ----   ----   ----   ----   ----   ----   ----   ----   ----   ----
 ------
     29:   48.49   1.05   0.19   0.00   0.00   0.14   0.00   0.00   0.00   0.00   0.14   0.04   0.00   0.00
     30:    4.42  83.61   0.43   0.00   0.00   0.40   0.00   0.00   0.00   0.00   0.12  -0.09  -0.00  -0.00
     31:    0.40   0.06  66.48   0.00   0.00  30.41   0.00   0.00   0.00   0.00   2.13   0.50  -0.00  -0.00
     32:    0.00   0.00   0.00  53.92  11.11   0.00  26.74   8.15  -0.03  -0.00   0.00   0.00   0.07   0.01
     33:    0.00   0.00   0.00  11.11  53.92   0.00   8.15  26.74  -0.00  -0.03   0.00   0.00   0.01   0.07
     34:    0.00   0.00   0.00   7.26   1.21   0.00  12.42   3.15  74.19   1.64   0.00   0.00   0.04   0.00
     35:    0.00   0.00   0.00   1.21   7.26  -0.00   3.15  12.42   1.64  74.18   0.00   0.00   0.00   0.04
     36:    0.41   0.03   3.07   0.00   0.00  24.23   0.00   0.00   0.00   0.00  73.21  -0.55   0.00   0.00
     37:   -0.06  -0.11   0.13   0.00   0.00  -0.04  -0.00  -0.00   0.00   0.00  -0.96 103.38  -0.00  -0.00
     38:    0.13   0.02   0.04   0.00   0.00  -0.07  -0.00  -0.00  -0.00  -0.00   0.41   1.92   0.00   0.00
     39:   -0.00  -0.00   0.00   0.00   0.10  -0.00  -0.00  -0.15   0.00   0.05  -0.00   0.00   0.30  97.76
     40:   -0.00  -0.00   0.00   0.10   0.00  -0.00  -0.15  -0.00   0.05   0.00  -0.00   0.00  97.76   0.30
     41:   -0.00  -0.00   0.00   0.01   0.00   0.00   0.29   0.00  -0.18  -0.01  -0.00  -0.00   1.38   0.01
     42:   -0.00  -0.00   0.00   0.00   0.01   0.00   0.00   0.29  -0.01  -0.18  -0.00  -0.00   0.01   1.38
    118:   46.29  14.67   1.16   0.00   0.00  -0.01  -0.00  -0.00   0.00   0.00   0.60  -0.65  -0.00  -0.00
    119:    0.00   0.16   7.77  15.73   3.42  11.98  26.88   8.62  16.59   0.66   6.83  -0.30  -0.10  -0.01
    120:    0.00   0.41  19.96   4.01   3.86  30.55   6.31   8.26   5.24   1.84  17.55  -0.76  -0.03  -0.02
    121:    0.00   0.01   0.70   6.64  19.10   0.99  15.73  32.03   1.93  21.27   0.62  -0.03  -0.03  -0.12
    122:    0.06   0.06  -0.14   0.00   0.00   0.11   0.00   0.00   0.00   0.00  -0.85  -4.99  -0.00  -0.00


 Summation over all MOs, multiplied by occupation: Total SFO Gross Populations in this Irrep
 ===========================================================================================

     2.00    2.00    2.00    2.00    2.00    2.00    2.00    2.00    2.00    2.00    2.00    2.00
     2.00    2.00    2.00    2.00    2.00    2.00    2.00    2.00    2.00    2.00    2.00    2.00
     2.00    2.00    2.00    2.00    2.00    2.00    1.96    2.00    2.00    2.00    2.00    0.56
    -0.00    0.00    0.00    0.00    0.00    0.00    0.01    0.01   -0.00    0.00    0.00    0.00
     0.00    0.01    0.01    0.00    0.00    0.00    0.00    0.00    0.00    0.00    0.00    0.00
     0.00    0.00    0.00    0.00    0.00    0.00    0.00    0.00    0.00    0.00   -0.00    0.00
     0.00   -0.00    0.00   -0.00   -0.00    0.00    0.00    0.00    0.00    0.00   -0.00   -0.00
    -0.00   -0.00    0.00    0.00   -0.00   -0.00   -0.00   -0.00    0.00    0.00   -0.00   -0.00
     0.00    0.00    0.00    0.00   -0.00   -0.00   -0.00   -0.00    0.00    0.00    0.00    0.00
     0.00    0.00   -0.00   -0.00    2.00    2.00    2.00    2.00    2.00    1.98    1.84    1.62
     1.97   -0.00   -0.00    0.00    0.00    0.01    0.01    0.00    0.00    0.00    0.00    0.00
     0.00    0.00    0.00    0.00    0.00    0.00    0.00    0.00    0.00    0.00   -0.00   -0.00
    -0.00    0.00



 List of all MOs, ordered by energy, with the most significant SFO gross populations
 ===================================================================================

 Each percentage contribution in the table below corresponds to the indicated SFO.
 In general, a SFO may be a linear combination of several Fragment Orbitals on the same,
 or on symmetry-related Fragments. Only the first 'member' of such a combination is
 specified here. A full definition of all SFOs is given in an earlier part of the output.
 The numbering of the SFOs in this table does NOT include the Core Orbitals, and starts
 from one for each symmetry representation, as in the SFO definition list earlier.

       E(eV)  Occ       MO           %     SFO (first member)   E(eV)  Occ   Fragment
 -------------------------------------------------------------------------------------

     -15.494  2.00    34 A         50.28%    29 A             -20.202  2.00     1 BrBr
                                   36.93%     6 A             -10.473  2.00     2 Cl
                                   11.19%    30 A             -18.869  2.00     1 BrBr
     -14.371  2.00    35 A         48.49%    29 A             -20.202  2.00     1 BrBr
                                   46.29%     6 A             -10.473  2.00     2 Cl
                                    4.42%    30 A             -18.869  2.00     1 BrBr
     -13.364  2.00    36 A         83.61%    30 A             -18.869  2.00     1 BrBr
                                   14.67%     6 A             -10.473  2.00     2 Cl
                                    1.05%    29 A             -20.202  2.00     1 BrBr
      -5.543  2.00    37 A         66.48%    31 A             -10.061  2.00     1 BrBr
                                   19.96%     8 A               0.909  2.00     2 Cl
                                    7.77%     7 A               0.909  2.00     2 Cl
                                    3.07%    36 A              -6.190  0.00     1 BrBr
                                    1.16%     6 A             -10.473  2.00     2 Cl
      -3.586  2.00    38 A         53.92%    32 A              -8.247  2.00     1 BrBr
                                   15.73%     7 A               0.909  2.00     2 Cl
                                   11.11%    33 A              -8.247  2.00     1 BrBr
                                    7.26%    34 A              -7.199  2.00     1 BrBr
                                    6.64%     9 A               0.909  2.00     2 Cl
                                    4.01%     8 A               0.909  2.00     2 Cl
                                    1.21%    35 A              -7.199  2.00     1 BrBr
      -3.586  2.00    39 A         53.92%    33 A              -8.247  2.00     1 BrBr
                                   19.10%     9 A               0.909  2.00     2 Cl
                                   11.11%    32 A              -8.247  2.00     1 BrBr
                                    7.26%    35 A              -7.199  2.00     1 BrBr
                                    3.86%     8 A               0.909  2.00     2 Cl
                                    3.42%     7 A               0.909  2.00     2 Cl
                                    1.21%    34 A              -7.199  2.00     1 BrBr
      -2.770  2.00    40 A         30.55%     8 A               0.909  2.00     2 Cl
                                   30.41%    31 A             -10.061  2.00     1 BrBr
                                   24.23%    36 A              -6.190  0.00     1 BrBr
                                   11.98%     7 A               0.909  2.00     2 Cl
      -2.683  2.00    41 A         26.88%     7 A               0.909  2.00     2 Cl
                                   26.74%    32 A              -8.247  2.00     1 BrBr
                                   15.73%     9 A               0.909  2.00     2 Cl
                                   12.42%    34 A              -7.199  2.00     1 BrBr
                                    8.15%    33 A              -8.247  2.00     1 BrBr
                                    6.31%     8 A               0.909  2.00     2 Cl
                                    3.15%    35 A              -7.199  2.00     1 BrBr
      -2.683  2.00    42 A         32.03%     9 A               0.909  2.00     2 Cl
                                   26.74%    33 A              -8.247  2.00     1 BrBr
                                   12.42%    35 A              -7.199  2.00     1 BrBr
                                    8.62%     7 A               0.909  2.00     2 Cl
                                    8.26%     8 A               0.909  2.00     2 Cl
                                    8.15%    32 A              -8.247  2.00     1 BrBr
                                    3.15%    34 A              -7.199  2.00     1 BrBr
      -1.951  2.00    43 A         74.19%    34 A              -7.199  2.00     1 BrBr
                                   16.59%     7 A               0.909  2.00     2 Cl
                                    5.24%     8 A               0.909  2.00     2 Cl
                                    1.93%     9 A               0.909  2.00     2 Cl
                                    1.64%    35 A              -7.199  2.00     1 BrBr
      -1.951  2.00    44 A         74.18%    35 A              -7.199  2.00     1 BrBr
                                   21.27%     9 A               0.909  2.00     2 Cl
                                    1.84%     8 A               0.909  2.00     2 Cl
                                    1.64%    34 A              -7.199  2.00     1 BrBr
       0.314  0.00    45 A         73.21%    36 A              -6.190  0.00     1 BrBr
                                   17.55%     8 A               0.909  2.00     2 Cl
                                    6.83%     7 A               0.909  2.00     2 Cl
                                    2.13%    31 A             -10.061  2.00     1 BrBr



 =======================================================================
 Electrostatic potential at the Nuclei due to electrons and other nuclei
 =======================================================================
  
         Atom                  Potential
         ----                  ---------
     1)   Br                176.10050053
     2)   Br                176.13663888
     3)   Cl                 64.61940268
 
 
 ========================
 No memory problems found
 ========================
 
 Maximum number of active allocate calls:         696
 
 *******************************************************************************

                             A D F   E X I T
 NORMAL TERMINATION



 =================
 Timing Statistics
 =================
  
 Total Used :                     CPU=        6.79      System=        0.17     Elapsed=        7.09

 Calls  Section                     ( Mean, Percentage )
 ---------------------------------------------------------------------------------------------------
     3  ><      ................      0.00    0.01             0.00    0.60             0.00    0.02
     1  INIT    ................      0.49    7.23             0.02   11.45             0.55    7.78
     1  GEOMET  ................      0.03    0.47             0.01    4.82             0.05    0.75
     1  FRAGM   ................      0.01    0.19             0.01    3.61             0.03    0.41
     1  INPUTA  ................      0.00    0.00             0.00    0.00             0.00    0.01
     1  ATDEN   ................      0.00    0.06             0.00    0.60             0.00    0.06
     1  MAINSY  ................      0.01    0.13             0.00    0.00             0.01    0.16
     1  SYMFIT  ................      0.00    0.01             0.00    0.60             0.00    0.03
     1  CORORT  ................      0.00    0.01             0.00    0.00             0.00    0.01
     1  SYMORB  ................      0.00    0.04             0.00    0.00             0.00    0.05
     1  CLSMAT  ................      0.01    0.18             0.00    0.00             0.01    0.16
     1  ORTHON  ................      0.01    0.18             0.00    1.20             0.01    0.19
     1  GENPT   ................      0.11    1.65             0.00    2.41             0.12    1.65
     1  PTBAS   ................      0.05    0.72             0.00    0.60             0.05    0.70
    17  FOCKY   ................      0.14   34.40             0.00   13.86             0.14   33.32
    17  FOCKTR  ................      0.00    0.52             0.00    0.60             0.00    0.58
    17  SDIIS   ................      0.00    1.02             0.00    1.81             0.00    1.00
     1  COREPS  ................      0.11    1.64             0.00    0.60             0.11    1.59
     1  TOTEN   ................      0.39    5.76             0.01    3.61             0.40    5.61
     1  POPAN   ................      0.00    0.04             0.00    0.60             0.01    0.13
     1  DEBYE   ................      0.01    0.15             0.00    0.00             0.01    0.14
     1  INPUTE  ................      0.00    0.01             0.00    0.00             0.00    0.02
     1  SYMORE  ................      0.00    0.01             0.00    0.00             0.00    0.02
     1  METS    ................      0.00    0.01             0.00    0.00             0.00    0.01
     1  CETS    ................      0.02    0.32             0.00    0.00             0.04    0.54
     1  POPUL   ................      3.04   44.78             0.09   51.81             3.17   44.63
     1  EXIT PROCEDURE .........      0.03    0.43             0.00    1.21             0.03    0.44


 Currently Open Files (EXIT00)
 ====================

 Unit    Access Format  Status   Type       Ident (file)
 -------------------------------------------------------
   3      SEQ    FORM   TRANSP  NORMAL      LOGFILE
                                          ( logfile )


 Buffered I/O statistics
 =======================
 Memory available:                     67108864
 Number of records fitting in memory:     16131
 Input :   1.0% of                        58567  *4k bytes
 Output:  14.1% of                         4788  *4k bytes
 Records from serial files evicted:           0
                    others evicted:           0
 Hash table lookups:     167711 with          0 conflicts (  0.00%)

 ***************************************************************************************************
 (LOGFILE)
 <May09-2019> <17:11:56>  ADF 2017  RunTime: May09-2019 17:11:56  Nodes: 1  Procs: 12
 <May09-2019> <17:11:57>  *** (NO TITLE) ***
 <May09-2019> <17:11:57>  RunType   : SINGLE POINT
 <May09-2019> <17:11:57>  Net Charge: -1 (Nuclei minus Electrons)
 <May09-2019> <17:11:57>  Symmetry  : NOSYM
 <May09-2019> <17:11:57>  >>>> FRAGM
  Coordinates
    Atom         X           Y           Z   (Angstrom)
    1.Br       -4.945507    3.141778   -0.055115
    2.Br       -3.823658    0.770328    0.392149
    3.Cl       -6.006216    5.386813   -0.474235
 <May09-2019> <17:11:57>  >>>> CORORT
 <May09-2019> <17:11:57>  >>>> CLSMAT
 <May09-2019> <17:11:57>  >>>> ORTHON
 <May09-2019> <17:11:57>  >>>> GENPT
 <May09-2019> <17:11:57>  Block Length= 128
 <May09-2019> <17:11:57>  >>>> PTBAS
 <May09-2019> <17:11:57>  >>>> CYCLE
 <May09-2019> <17:11:57>              |Error|         MaxErr       Wt(A-DIIS)
 <May09-2019> <17:11:57>      1      1.60248689      0.59962726
 <May09-2019> <17:11:58>      2      0.94585745      0.37777216    100.0
 <May09-2019> <17:11:58>      3      0.60568053      0.26195313    100.0
 <May09-2019> <17:11:58>      4      0.57229554      0.25549284    100.0
 <May09-2019> <17:11:58>      5      1.54280785      0.48948138    100.0
 <May09-2019> <17:11:58>      6      0.49700701      0.14608577    100.0
 <May09-2019> <17:11:58>      7      0.26080200      0.08486479     84.7
 <May09-2019> <17:11:58>      8      0.40165765      0.13459002    100.0
 <May09-2019> <17:11:59>      9      0.13330509      0.04474297     44.2
 <May09-2019> <17:11:59>     10      0.12240864      0.04798825     44.2
 <May09-2019> <17:11:59>     11      0.03991457      0.01622873     15.4
 <May09-2019> <17:11:59>     12      0.01323565      0.00539947      4.4
 <May09-2019> <17:11:59>     13      0.00064032      0.00025629      0.0
 <May09-2019> <17:11:59>     14      0.00008061      0.00002254      0.0
 <May09-2019> <17:11:59>     15      0.00001612      0.00000700      0.0
 <May09-2019> <17:11:59>     16      0.00000175      0.00000055      0.0
 <May09-2019> <17:12:00>  SCF converged
 <May09-2019> <17:12:00>     17      0.00000081      0.00000027      0.0
 <May09-2019> <17:12:00>  >>>> TOTEN
 <May09-2019> <17:12:00>  >>>> POPAN
 <May09-2019> <17:12:00>  >>>> DEBYE
 <May09-2019> <17:12:00>  >>>> AMETS
 <May09-2019> <17:12:03>   Bond Energy          -0.08645139 a.u.
 <May09-2019> <17:12:03>   Bond Energy          -2.35246202 eV
 <May09-2019> <17:12:03>   Bond Energy         -54.25       kcal/mol
 <May09-2019> <17:12:03>  >>>> POPUL
 <May09-2019> <17:12:03>  NORMAL TERMINATION
 <May09-2019> <17:12:03>  END
