

 Parallel Execution: Process Information
 ==============================================================================
 Rank   Node Name                              NodeID   MyNodeRank  NodeMaster
    0   BAZIS-cn076                               0          0          0
    1   BAZIS-cn076                               0          1         -1
    2   BAZIS-cn076                               0          2         -1
    3   BAZIS-cn076                               0          3         -1
    4   BAZIS-cn076                               0          4         -1
    5   BAZIS-cn076                               0          5         -1
    6   BAZIS-cn076                               0          6         -1
    7   BAZIS-cn076                               0          7         -1
    8   BAZIS-cn076                               0          8         -1
    9   BAZIS-cn076                               0          9         -1
   10   BAZIS-cn076                               0         10         -1
   11   BAZIS-cn076                               0         11         -1
 ==============================================================================


May use up to 30736MB of RAM as shared memory on node 0


XC
    GGA BP86
END

SCF
    iterations 250
END

EPRINT
    SFO Eig Ovl
END

ZLMFIT
    Quality normal
END

BECKEGRID
    Quality good
End

SYMMETRY nosym
CHARGE -1

ATOMS
1.F        -3.569077    0.026568    0.140371 f=FH
2.H        -2.626797    0.379303    0.730098 f=FH
3.F        -1.684622    0.731998    1.319760 f=F
END

Fragments
FH /home/tcst25/advanced_comp_chemistry/exercise2/hydrogen/FHF/frag1_FH.t21
F /home/tcst25/advanced_comp_chemistry/exercise2/hydrogen/FHF/frag2_F.t21
End
end input

 *******************************************************************************
 *                                                                             *
 *  -------------------------------------                                      *
 *   Amsterdam Density Functional  (ADF)         2017                          *
 *  -------------------------------------                                      *
 *                                               r58813 2017-04-12             *
 *                                                                             *
 *                                                                             *
 *                              =================                              *
 *                              |               |                              *
 *                              |     A D F     |                              *
 *                              |               |                              *
 *                              =================                              *
 *                                                                             *
 *                                                                             *
 *   Online information and documentation:  https://www.scm.com/support/       *
 *   E-mail:  support@scm.com   info@scm.com                                   *
 *                                                                             *
 *   Scientific publications using ADF results must be properly referenced     *
 *   See the User Manuals (or the web site) for recommended citations          *
 *   The terms and conditions of the End User License Agreement apply to       *
 *   the use of ADF, https://www.scm.com/license-terms/                        *
 *                                                                             *
 **********************  x86_64_linux_intel / intelmpi  ************************
 
 Licensed to: VU/FEW (+ SARA) / ALGEMEEN / Amsterdam / THE NETHERLANDS
 SCM User ID: u7668
  
 ADF 2017  RunTime: May09-2019 17:23:41  Nodes: 1  Procs: 12

 Temporary files are created in /local/datastore0/tcst25/189818/kid_0.dozwCB


Communication costs MPI_COMM_WORLD:      2.480 usec per message,   0.0110 usec per 8-byte item
Communication costs for intra-node:      2.499 usec per message,   0.0109 usec per 8-byte item

 *** (NO TITLE) ***



 ===========================
 A T T A C H E D   F I L E S
 ===========================
  



 ===============================
 M O D E L   P A R A M E T E R S
 ===============================
  
 DENSITY FUNCTIONAL POTENTIAL (scf)
    LDA:                               VWN                                      
    Gradient Corrections:              Becke88 Perdew86                        == Not Default ==

 SPIN  (restricted / unrestr.)
    Molecule:                          Restricted                               
    Fragments:                         Restricted                               

 OTHER ASPECTS
    Relativistic Corrections:          ---                                      

    Nuclear Charge Density Model:      Point Charge Nuclei                      
    Core Treatment:                    Frozen Orbital(s)                        

    Hyperfine or Zeeman Interaction:   ---                                      


 Fragment File(s)
 ----------------
 FH:
         file : /home/tcst25/advanced_comp_chemistry/exercise2/hydrogen/FHF/frag1_FH.t21
         jobid: ADF 2017  RunTime: May09-2019 17:12:37  Nodes: 1  Procs: 12
         title: *** (NO TITLE) ***
 F:
         file : /home/tcst25/advanced_comp_chemistry/exercise2/hydrogen/FHF/frag2_F.t21
         jobid: ADF 2017  RunTime: May09-2019 17:12:37  Nodes: 1  Procs: 12
         title: *** (NO TITLE) ***



                                        ************************************
                                        *  R U N   T Y P E : SINGLE POINT  *
                                        ************************************
  



 ===============
 G E O M E T R Y  ***  Linear Molecule  ***
 ===============
  

 ATOMS
 =====                            X Y Z                    CHARGE
                                (Angstrom)             Nucl     +Core       At.Mass
                       --------------------------    ----------------       -------
    1  F              -3.5691    0.0266    0.1404      9.00      9.00       18.9984
    2  H              -2.6268    0.3793    0.7301      1.00      1.00        1.0078
    3  F              -1.6846    0.7320    1.3198      9.00      9.00       18.9984


 FRAGMENTS
 =========                                     Atoms in this Fragment     Cart. coord.s (Angstrom)
                                               -------------------------------------------------------
    1  FH                                                1  F           -3.5691    0.0266    0.1404
                                                         2  H           -2.6268    0.3793    0.7301
    2  F                                                 3  F           -1.6846    0.7320    1.3198


 Interatomic Distance Matrix (Angstrom)
 --------------------------------------

   1)     0.000
   2)     1.166   0.000
   3)     2.332   1.166   0.000

 Min. Distance =    1.1661
 Max. Distance =    2.3323



 =====================================
 S Y M M E T R Y ,   E L E C T R O N S
 =====================================
  
 Symmetry: NOSYM

 Irreducible Representations, including subspecies
 -------------------------------------------------
 A


 Configuration of Valence Electrons
 ==================================
 ( determined in the SCF procedure )

 Total:   20

 Net Charge: -1 (Nuclei minus Electrons)

 Aufbau principle for MO occupations will be applied through SCF cycle no.     125
 Thereafter, the program will assign electrons to MOs that are spatially
 similar to the occupied MOs in a "reference" cycle ("KeepOrbitals").
 The reference cycle is always the PREVIOUS cycle: it will evolve with
 the SCF procedure.
1
 ***************************************************************************************************



                                      ****************************************
                                      *  B U I L D : (Fragments, Functions)  *
                                      ****************************************
  

 The individual fragments are copies of the corresponding 'Master' fragments defined on the fragment files.
 However, they may have been rotated (and translated) with respect to the Master. The local coordinate axes
 of each fragment (which define for instance the spatial orientation in the current molecule of a fragment
 P:x orbital) are not necessarily those of the molecule.
 The local frame (if different from the molecular one) is printed to enable an interpretation of the expan-
 sion of an MO in Fragment Orbitals.



                                              ************************
                                              *  Fragment Type : FH  *
                                              ************************
  

 Fragment no.    1   (in the list of all fragments)
 -----------------
 The local coordinate frame is identical to the molecular frame.

 Check Atomic Coordinates:

                  Master (on file)          After Computed Tranformation               As specified on Input
           ----------------------------     ----------------------------     ---------------------------------
     1)    -3.56908   0.02657   0.14037     -3.56908   0.02657   0.14037       1  -3.56908   0.02657   0.14037
     2)    -2.62680   0.37930   0.73010     -2.62680   0.37930   0.73010       2  -2.62680   0.37930   0.73010



                                              ***********************
                                              *  Fragment Type : F  *
                                              ***********************
  

 Fragment no.    2   (in the list of all fragments)
 -----------------
 The local coordinate frame is identical to the molecular frame.

 Check Atomic Coordinates:

                  Master (on file)          After Computed Tranformation               As specified on Input
           ----------------------------     ----------------------------     ---------------------------------
     1)    -1.68462   0.73200   1.31976     -1.68462   0.73200   1.31976       3  -1.68462   0.73200   1.31976



 =======
 S F O s  ***  (Symmetrized Fragment Orbitals)  ***
 =======
  
 SFOs are linear combinations of (valence) Fragment Orbitals (FOs), such that the SFOs transform as the
 irreducible representations of the (molecular) symmetry group. Each SFO is therefore characterized by
 an irrep of the molecule and by a few (or only one) generating FOs.
 The SFOs constitute a symmetry-adapted basis for the Fock matrix. The MO eigenvector coefficients in
 this basis provide a direct interpretation of the MOs in terms of Frontier Orbital Theory.

 The SFOs are combined with auxiliary Core Functions (CFs) to ensure orthogonalization on the (frozen)
 Core Orbitals (COs). The Core-orthogonalized SFOs (CSFOs) constitute the true Fock basis.

 The FOs, and hence also the (C)SFOs are combinations of the elementary basis functions (BAS). The basis
 functions that participate in the description of the SFOs depend on the irrep. The indices of the
 involved functions are printed below for each irrep.
 (The complete list of primitive basis functions is printed in another section)

 Total nr. of (C)SFOs (summation over all irreps) :    63

 NOTE: a (C)SFO that is defined as a combination of more than one FO is usually NOT normalized.



                                       === A ===
 Nr. of SFOs :   63
 Cartesian basis functions that participate in this irrep (total number =    72) :
      1     2     3     4     5     6     9    12     7    10
     13     8    11    14    15    16    17    18    19    20
     21    22    23    24    25    26    27    28    29    30
     31    32    33    34    35    36    37    38    39    40
     41    42    43    44    45    46    47    48    51    54
     49    52    55    50    53    56    57    58    59    60
     61    62    63    64    65    66    67    68    69    70
     71    72

    SFO  (index         Fragment          Generating    Expansion in Fragment Orbitals
  indx  incl.CFs)   Occup   Orb.Energy   FragmentType  Coeff.   Orbital     on Fragment
 --------------------------------------------------------------------------------------
     1       1      2.000     -24.283 au  FH            1.00      1 A               1
                        (    -660.774 eV)
     2       2      2.000      -1.044 au  FH            1.00      2 A               1
                        (     -28.410 eV)
     3       3      2.000      -0.450 au  FH            1.00      3 A               1
                        (     -12.233 eV)
     4       4      2.000      -0.336 au  FH            1.00      4 A               1
                        (      -9.143 eV)
     5       5      2.000      -0.336 au  FH            1.00      5 A               1
                        (      -9.143 eV)
     6       6       --        -0.097 au  FH            1.00      6 A               1
                        (      -2.627 eV)
     7       7       --         0.070 au  FH            1.00      7 A               1
                        (       1.896 eV)
     8       8       --         0.130 au  FH            1.00      8 A               1
                        (       3.529 eV)
     9       9       --         0.377 au  FH            1.00      9 A               1
                        (      10.257 eV)
    10      10       --         0.377 au  FH            1.00     10 A               1
                        (      10.257 eV)
    11      11       --         0.624 au  FH            1.00     11 A               1
                        (      16.988 eV)
    12      12       --         0.624 au  FH            1.00     12 A               1
                        (      16.988 eV)
    13      13       --         0.652 au  FH            1.00     13 A               1
                        (      17.747 eV)
    14      14       --         0.913 au  FH            1.00     14 A               1
                        (      24.831 eV)
    15      15       --         1.086 au  FH            1.00     15 A               1
                        (      29.563 eV)
    16      16       --         1.152 au  FH            1.00     16 A               1
                        (      31.336 eV)
    17      17       --         1.152 au  FH            1.00     17 A               1
                        (      31.336 eV)
    18      18       --         1.471 au  FH            1.00     18 A               1
                        (      40.033 eV)
    19      19       --         1.471 au  FH            1.00     19 A               1
                        (      40.033 eV)
    20      20       --         1.848 au  FH            1.00     20 A               1
                        (      50.287 eV)
    21      21       --         2.539 au  FH            1.00     21 A               1
                        (      69.092 eV)
    22      22       --         2.539 au  FH            1.00     22 A               1
                        (      69.093 eV)
    23      23       --         2.914 au  FH            1.00     23 A               1
                        (      79.284 eV)
    24      24       --         3.102 au  FH            1.00     24 A               1
                        (      84.396 eV)
    25      25       --         3.102 au  FH            1.00     25 A               1
                        (      84.399 eV)
    26      26       --         3.483 au  FH            1.00     26 A               1
                        (      94.773 eV)
    27      27       --         3.483 au  FH            1.00     27 A               1
                        (      94.773 eV)
    28      28       --         3.906 au  FH            1.00     28 A               1
                        (     106.292 eV)
    29      29       --         3.906 au  FH            1.00     29 A               1
                        (     106.292 eV)
    30      30       --         3.950 au  FH            1.00     30 A               1
                        (     107.472 eV)
    31      31       --         4.153 au  FH            1.00     31 A               1
                        (     113.014 eV)
    32      32       --         4.587 au  FH            1.00     32 A               1
                        (     124.831 eV)
    33      33       --         4.587 au  FH            1.00     33 A               1
                        (     124.832 eV)
    34      34       --         5.168 au  FH            1.00     34 A               1
                        (     140.623 eV)
    35      35       --         5.168 au  FH            1.00     35 A               1
                        (     140.624 eV)
    36      36       --         5.943 au  FH            1.00     36 A               1
                        (     161.709 eV)
    37      37       --        52.863 au  FH            1.00     37 A               1
                        (    1438.481 eV)
    38      38      2.000     -23.791 au  F             1.00      1 A               2
                        (    -647.398 eV)
    39      39      2.000      -0.555 au  F             1.00      2 A               2
                        (     -15.093 eV)
    40      40      2.000       0.108 au  F             1.00      3 A               2
                        (       2.944 eV)
    41      41      2.000       0.108 au  F             1.00      4 A               2
                        (       2.944 eV)
    42      42      2.000       0.108 au  F             1.00      5 A               2
                        (       2.944 eV)
    43      43       --         0.286 au  F             1.00      6 A               2
                        (       7.773 eV)
    44      44       --         0.812 au  F             1.00      7 A               2
                        (      22.092 eV)
    45      45       --         0.812 au  F             1.00      8 A               2
                        (      22.092 eV)
    46      46       --         0.812 au  F             1.00      9 A               2
                        (      22.092 eV)
    47      47       --         1.566 au  F             1.00     10 A               2
                        (      42.603 eV)
    48      48       --         1.566 au  F             1.00     11 A               2
                        (      42.603 eV)
    49      49       --         1.566 au  F             1.00     12 A               2
                        (      42.603 eV)
    50      50       --         1.566 au  F             1.00     13 A               2
                        (      42.603 eV)
    51      51       --         1.566 au  F             1.00     14 A               2
                        (      42.603 eV)
    52      52       --         2.040 au  F             1.00     15 A               2
                        (      55.515 eV)
    53      53       --         3.896 au  F             1.00     16 A               2
                        (     106.020 eV)
    54      54       --         3.896 au  F             1.00     17 A               2
                        (     106.020 eV)
    55      55       --         3.896 au  F             1.00     18 A               2
                        (     106.020 eV)
    56      56       --         3.896 au  F             1.00     19 A               2
                        (     106.020 eV)
    57      57       --         3.896 au  F             1.00     20 A               2
                        (     106.020 eV)
    58      58       --         3.896 au  F             1.00     21 A               2
                        (     106.020 eV)
    59      59       --         3.896 au  F             1.00     22 A               2
                        (     106.020 eV)
    60      60       --         5.088 au  F             1.00     23 A               2
                        (     138.458 eV)
    61      61       --         5.088 au  F             1.00     24 A               2
                        (     138.458 eV)
    62      62       --         5.088 au  F             1.00     25 A               2
                        (     138.458 eV)
    63      63       --        48.938 au  F             1.00     26 A               2
                        (    1331.672 eV)



 ================================
 (Slater-type)  F U N C T I O N S  ***  (Basis and Fit)  ***
 ================================
  

 Atom Type    1  (F)
 ==============

 Valence Basis Sets:  10
 -----------------------
   1 S   10.880000
   1 S    7.700000
   2 S    3.240000
   2 S    1.940000
   2 S    0.740000
   2 P    4.540000
   2 P    2.300000
   2 P    1.240000
   3 D    2.000000
   4 F    3.000000

 Atom Type    2  (H)
 ==============

 Valence Basis Sets:   5
 -----------------------
   1 S    0.690000
   1 S    0.920000
   1 S    1.580000
   2 P    1.250000
   3 D    2.500000

 Atom Type    3  (F)
 ==============

 Valence Basis Sets:  10
 -----------------------
   1 S   10.880000
   1 S    7.700000
   2 S    3.240000
   2 S    1.940000
   2 S    0.740000
   2 P    4.540000
   2 P    2.300000
   2 P    1.240000
   3 D    2.000000
   4 F    3.000000


 BAS: List of all Elementary Cartesian Basis Functions
 =====================================================

 The numbering in the list below (to the right of the function characteristics) is referred
 to in print-outs of MO eigenvectors and Mulliken populations in the BAS representation
 (as contrasted to the SFO representation).

 Notes:
 1. The functions are characterized by a polynomial prefactor (powers of x,y,z and r) and
    an exponential decay factor alpha.
 2. Since the basis sets are specific for an atom TYPE, the individual functions occur on
    all atoms of that type.
 3. The word 'Core' in the left margin signals that it is a Core Function (CF) : not a
    degree of freedom in the valence set, but only used to ensure orthogonalization of
    the other valence basis functions on the frozen Core Orbitals.


 (power of) X  Y  Z  R     Alpha  on Atom
            ==========     =====     ==========

 F                                    1
                                  ---------------------------------------------------------------------------
            0  0  0  0    10.880      1
            0  0  0  0     7.700      2
            0  0  0  1     3.240      3
            0  0  0  1     1.940      4
            0  0  0  1     0.740      5
            1  0  0  0     4.540      6
            0  1  0  0     4.540      7
            0  0  1  0     4.540      8
            1  0  0  0     2.300      9
            0  1  0  0     2.300     10
            0  0  1  0     2.300     11
            1  0  0  0     1.240     12
            0  1  0  0     1.240     13
            0  0  1  0     1.240     14
            2  0  0  0     2.000     15
            1  1  0  0     2.000     16
            1  0  1  0     2.000     17
            0  2  0  0     2.000     18
            0  1  1  0     2.000     19
            0  0  2  0     2.000     20
            3  0  0  0     3.000     21
            2  1  0  0     3.000     22
            2  0  1  0     3.000     23
            1  2  0  0     3.000     24
            1  1  1  0     3.000     25
            1  0  2  0     3.000     26
            0  3  0  0     3.000     27
            0  2  1  0     3.000     28
            0  1  2  0     3.000     29
            0  0  3  0     3.000     30

 H                                    2
                                  ---------------------------------------------------------------------------
            0  0  0  0     0.690     31
            0  0  0  0     0.920     32
            0  0  0  0     1.580     33
            1  0  0  0     1.250     34
            0  1  0  0     1.250     35
            0  0  1  0     1.250     36
            2  0  0  0     2.500     37
            1  1  0  0     2.500     38
            1  0  1  0     2.500     39
            0  2  0  0     2.500     40
            0  1  1  0     2.500     41
            0  0  2  0     2.500     42

 F                                    3
                                  ---------------------------------------------------------------------------
            0  0  0  0    10.880     43
            0  0  0  0     7.700     44
            0  0  0  1     3.240     45
            0  0  0  1     1.940     46
            0  0  0  1     0.740     47
            1  0  0  0     4.540     48
            0  1  0  0     4.540     49
            0  0  1  0     4.540     50
            1  0  0  0     2.300     51
            0  1  0  0     2.300     52
            0  0  1  0     2.300     53
            1  0  0  0     1.240     54
            0  1  0  0     1.240     55
            0  0  1  0     1.240     56
            2  0  0  0     2.000     57
            1  1  0  0     2.000     58
            1  0  1  0     2.000     59
            0  2  0  0     2.000     60
            0  1  1  0     2.000     61
            0  0  2  0     2.000     62
            3  0  0  0     3.000     63
            2  1  0  0     3.000     64
            2  0  1  0     3.000     65
            1  2  0  0     3.000     66
            1  1  1  0     3.000     67
            1  0  2  0     3.000     68
            0  3  0  0     3.000     69
            0  2  1  0     3.000     70
            0  1  2  0     3.000     71
            0  0  3  0     3.000     72

 Total number of charge fitting functions (nprimf)       220
 Total number of Cartesian basis functions (naos)         72
 Total number of Cartesian core functions  (ncos)          0

1
 ***************************************************************************************************



                                              ***********************
                                              *  T E C H N I C A L  *
                                              ***********************
  



 =============================================================
 P A R A L L E L I Z A T I O N  and  V E C T O R I Z A T I O N
 =============================================================
  
 Nr of parallel processes:                               12
 Maximum vector length in NumInt loops:                 128

 IO buffersize (Mb):                                     64.000000



 =====================
 S C F   U P D A T E S
 =====================
  
 Max. nr. of cycles:                               250
 Convergence criterion:                              0.0000010000
   secondary criterion:                              0.0010000000

 Mix parameter (when DIIS does not apply):           0.2000000000
 Mixed ADIIS+DIIS will be used
    Max number of expansion vectors:                10
    Pure ADIIS when Max([F,P]) is above              0.1000000000
    Pure DIIS when Max([F,P]) is below               0.0010000000
 Automatic ElectronSmearing (in case of problematic SCF convergence) disabled



 =================
 P R E C I S I O N  ***  (General: NumInt, NeglectFunctionTails, ...)  ***
 =================
  

 NumInt:           Target precision:                 6.0000000000
 -------           Initial precision:                6.0000000000
                   Min. precision (optimization):    6.0000000000

 Neglect Functions:          Basis functions:        0.1000000000E-07
 ------------------          Fit functions:          0.1000000000E-07



 ===========================
 L I N E A R   S C A L I N G
 ===========================
  

 Cut-off radii density fit:                        0.1000000000E-09
 Overlap cut-off criterion AO matrix elements:     0.1000000000E-07
 Cut-offs for Coulomb potential and fitted density:0.1000000000E-09
 Cut-off criterion for Coulomb multipole terms:    0.1000000000E-09
 Progressive Convergence parameter:                 0.000000000    
1
 ***************************************************************************************************



                                            ***************************
                                            *  C O M P U T A T I O N  *
                                            ***************************
  

 Number of elements of the density matrix on this node (used, total):       465      2628



 ===========================================
 Numerical Integration : Fuzzy Cells (Becke)
 ===========================================
  
 Becke grid quality: GOOD           
  
 Lebedev angular grid order:             min:  11 max:  31
 Nr. of radial points:                   min:  54 max:  65

 Total nr. of points:      39938
 Nr. of blocks:              313
 Block length:               128
 Nr. of dummy points:        126


 Test of Precision of the Numerical Integration Grid
 ===================================================

 Integral of the Total Core Density:                   0.00000000000000



 ========================
 Density Fitting (zlmFit)
 ========================
  
 ZlmFit Fit Quality: NORMAL         
  
 Max L-expansion:                        min:   6 max:   7
 Nr. of radial interpolation points:     min:  39 max:  51



 =====
 S C F  ***  ScaSCF  ***
 =====
  
 Initial density matrix is calculated as sum of fragments

 CYCLE    1
 SCF Error: norm([F,P])=      0.870665108298, max([F,P])=      0.646598007675
 orbitals (Q,E):
 ---------------
 A :1...20           ( 2.00   -24.0460)  ( 2.00   -23.8902)  ( 2.00    -0.8261)  ( 2.00    -0.6912)
                     ( 2.00    -0.2194)  ( 2.00    -0.1214)  ( 2.00    -0.1214)  ( 2.00    -0.0377)
                     ( 2.00     0.0048)  ( 2.00     0.0048)  ( 0.00     0.2001)  ( 0.00     0.2873)
                     ( 0.00     0.3720)  ( 0.00     0.5331)  ( 0.00     0.6213)  ( 0.00     0.6213)
                     ( 0.00     0.7945)  ( 0.00     0.7945)  ( 0.00     0.8932)  ( 0.00     0.9696)

 CYCLE    2
   MIX coefficients:  0.8000  0.2000
 SCF Error: norm([F,P])=      0.371991136050, max([F,P])=      0.109462353617
 orbitals (Q,E):
 ---------------
 A :1...11           ( 2.00   -23.9751)  ( 2.00   -23.9211)  ( 2.00    -0.7881)  ( 2.00    -0.7093)
                     ( 2.00    -0.1953)  ( 2.00    -0.0841)  ( 2.00    -0.0841)  ( 2.00    -0.0427)
                     ( 2.00    -0.0144)  ( 2.00    -0.0144)  ( 0.00     0.2042)

 CYCLE    3
  SDIIS (wt  0.000): -0.5144  1.5144
 A-DIIS (wt  1.000):  0.0000  1.0000
  DIIS coefficients:  0.0000  1.0000
 SCF Error: norm([F,P])=      0.147036260392, max([F,P])=      0.046411025572
 orbitals (Q,E):
 ---------------
 A :1...11           ( 2.00   -23.9665)  ( 2.00   -23.8420)  ( 2.00    -0.7648)  ( 2.00    -0.6859)
                     ( 2.00    -0.1754)  ( 2.00    -0.0628)  ( 2.00    -0.0628)  ( 2.00    -0.0196)
                     ( 2.00     0.0058)  ( 2.00     0.0058)  ( 0.00     0.2078)

 CYCLE    4
  SDIIS (wt  0.000):  0.6281 -0.2183  0.5903
 A-DIIS (wt  1.000):  0.0000  0.7419  0.2581
  DIIS coefficients:  0.0000  0.7419  0.2581
 SCF Error: norm([F,P])=      0.346493086372, max([F,P])=      0.102919398863
 orbitals (Q,E):
 ---------------
 A :1...11           ( 2.00   -23.9384)  ( 2.00   -23.9258)  ( 2.00    -0.7576)  ( 2.00    -0.7160)
                     ( 2.00    -0.1785)  ( 2.00    -0.0523)  ( 2.00    -0.0523)  ( 2.00    -0.0364)
                     ( 2.00    -0.0262)  ( 2.00    -0.0262)  ( 0.00     0.2071)

 CYCLE    5
  SDIIS (wt  0.839): -0.1114  0.3094 -0.1401  0.9420
 A-DIIS (wt  0.161):  0.0000  0.0188  0.0000  0.9812
  DIIS coefficients: -0.0934  0.2626 -0.1175  0.9483
 SCF Error: norm([F,P])=      0.053776655078, max([F,P])=      0.016933387080
 orbitals (Q,E):
 ---------------
 A :1...11           ( 2.00   -23.9450)  ( 2.00   -23.9412)  ( 2.00    -0.7607)  ( 2.00    -0.7221)
                     ( 2.00    -0.1818)  ( 2.00    -0.0545)  ( 2.00    -0.0545)  ( 2.00    -0.0415)
                     ( 2.00    -0.0327)  ( 2.00    -0.0327)  ( 0.00     0.2067)

 CYCLE    6
  SDIIS (wt  0.960):  0.0104  0.0589 -0.0031  0.3943  0.5394
 A-DIIS (wt  0.040):  0.0000  0.0000  0.0000  0.0296  0.9704
  DIIS coefficients:  0.0100  0.0565 -0.0029  0.3797  0.5568
 SCF Error: norm([F,P])=      0.016511412276, max([F,P])=      0.004983587278
 orbitals (Q,E):
 ---------------
 A :1...11           ( 2.00   -23.9390)  ( 2.00   -23.9388)  ( 2.00    -0.7591)  ( 2.00    -0.7204)
                     ( 2.00    -0.1805)  ( 2.00    -0.0530)  ( 2.00    -0.0530)  ( 2.00    -0.0400)
                     ( 2.00    -0.0312)  ( 2.00    -0.0312)  ( 0.00     0.2068)

 CYCLE    7
  SDIIS (wt  1.000): -0.0034  0.0192 -0.0028  0.0900  0.2262  0.6708
  DIIS coefficients: -0.0034  0.0192 -0.0028  0.0900  0.2262  0.6708
 SCF Error: norm([F,P])=      0.002243411865, max([F,P])=      0.000594760260
 orbitals (Q,E):
 ---------------
 A :1...11           ( 2.00   -23.9395)  ( 2.00   -23.9395)  ( 2.00    -0.7594)  ( 2.00    -0.7207)
                     ( 2.00    -0.1807)  ( 2.00    -0.0532)  ( 2.00    -0.0532)  ( 2.00    -0.0402)
                     ( 2.00    -0.0314)  ( 2.00    -0.0314)  ( 0.00     0.2068)

 CYCLE    8
  SDIIS (wt  1.000): -0.0014  0.0031 -0.0001  0.0069  0.0362  0.1305  0.8249
  DIIS coefficients: -0.0014  0.0031 -0.0001  0.0069  0.0362  0.1305  0.8249
 SCF Error: norm([F,P])=      0.000187406020, max([F,P])=      0.000041072355
 orbitals (Q,E):
 ---------------
 A :1...11           ( 2.00   -23.9395)  ( 2.00   -23.9395)  ( 2.00    -0.7594)  ( 2.00    -0.7207)
                     ( 2.00    -0.1807)  ( 2.00    -0.0532)  ( 2.00    -0.0532)  ( 2.00    -0.0402)
                     ( 2.00    -0.0314)  ( 2.00    -0.0314)  ( 0.00     0.2068)

 CYCLE    9
  SDIIS (wt  1.000): -0.0002  0.0006  0.0001  0.0012  0.0087  0.0321  0.2459  0.7115
  DIIS coefficients: -0.0002  0.0006  0.0001  0.0012  0.0087  0.0321  0.2459  0.7115
 SCF Error: norm([F,P])=      0.000020760631, max([F,P])=      0.000005680552
 orbitals (Q,E):
 ---------------
 A :1...11           ( 2.00   -23.9395)  ( 2.00   -23.9395)  ( 2.00    -0.7594)  ( 2.00    -0.7207)
                     ( 2.00    -0.1807)  ( 2.00    -0.0532)  ( 2.00    -0.0532)  ( 2.00    -0.0402)
                     ( 2.00    -0.0314)  ( 2.00    -0.0314)  ( 0.00     0.2068)

 CYCLE   10
  SDIIS (wt  1.000):  0.0000 -0.0000  0.0000 -0.0001 -0.0002  0.0005  0.0071  0.0565  0.9362
  DIIS coefficients:  0.0000 -0.0000  0.0000 -0.0001 -0.0002  0.0005  0.0071  0.0565  0.9362
 SCF Error: norm([F,P])=      0.000002898202, max([F,P])=      0.000000971699
 orbitals (Q,E):
 ---------------
 A :1...11           ( 2.00   -23.9395)  ( 2.00   -23.9395)  ( 2.00    -0.7594)  ( 2.00    -0.7207)
                     ( 2.00    -0.1807)  ( 2.00    -0.0532)  ( 2.00    -0.0532)  ( 2.00    -0.0402)
                     ( 2.00    -0.0314)  ( 2.00    -0.0314)  ( 0.00     0.2068)

 SCF CONVERGED

 CYCLE   11
1
 ***************************************************************************************************



                                                *******************
                                                *  R E S U L T S  *
                                                *******************
  
 *** Setting up for NEW gradients in Focky
 *** Using FIT density in Focky

 Orbital Energies, per Irrep and Spin:
 ======================================
                        Occup              E (au)              E (eV)       Diff (eV) with prev. cycle
                        -----      --------------------        ------       --------------------------
 A
               1        2.000     -0.23939499526410E+02      -651.427              -1.49E-06
               2        2.000     -0.23939467498082E+02      -651.426              -6.11E-07
               3        2.000     -0.75940221013446E+00       -20.664              -7.97E-07
               4        2.000     -0.72070139737881E+00       -19.611              -8.16E-07
               5        2.000     -0.18068629506272E+00        -4.917              -6.89E-07
               6        2.000     -0.53196921515967E-01        -1.448              -7.30E-07
               7        2.000     -0.53195847196546E-01        -1.448              -7.30E-07
               8        2.000     -0.40225660018934E-01        -1.095              -7.98E-07
               9        2.000     -0.31444635560239E-01        -0.856              -7.64E-07
              10        2.000     -0.31443704276417E-01        -0.856              -7.64E-07
              11        0.000      0.20680237075432E+00         5.627
              12        0.000      0.28281650997037E+00         7.696
              13        0.000      0.37323098791905E+00        10.156
              14        0.000      0.53845419073826E+00        14.652
              15        0.000      0.63446018537800E+00        17.265
              16        0.000      0.63446408180938E+00        17.265
              17        0.000      0.79737105159700E+00        21.698
              18        0.000      0.79737232168116E+00        21.698
              19        0.000      0.93383036337244E+00        25.411
              20        0.000      0.96453185892184E+00        26.246
  
 HOMO :       10 A                -0.31443704276417E-01
 LUMO :       11 A                 0.20680237075432E+00
  


 All Electron Calculation, thus no Orbital Energies of the Core Orbitals are calculated


 Fit test: (difference of exact and fit density, squared integrated, result summed over spins)
         Sum-of-Fragments:                             0.00002439511809
         Orthogonalized Fragments:                     0.00002678000249
         SCF:                                          0.00002696664470



 ==========================
 Electron Density at Nuclei
 ==========================
  
 The electron density is calculated at points on a small sphere around the center of a nucleus.
 The printed electron density is the average electron density on these points.
 The radius of the sphere is the printed approximate finite nuclear radius.

         Atom        Nuclear Radius (Angstrom)             Electron Density (a.u.)
         ----        -------------------------             -----------------------
     1)   F                 0.0000361580                              447.08103
     2)   H                 0.0000181514                                0.33155
     3)   F                 0.0000361580                              447.08101



 =======================================
 M U L L I K E N   P O P U L A T I O N S
 =======================================
  
 The survey below gives for each atom:
 a) the total charge (Z minus electrons)
 b) the net spin polarization (nr of electrons spin-A minus spin-B)
 c) for each spin the atomic electron valence density (integrated) per L-value.

 Atom              Charge    Spin density          S         P         D         F
 ----              ------    ------------       ------    ------    ------    ------
 1 F              -0.7001                       3.9644    5.7247    0.0100    0.0010
 2 H               0.4001                       0.4038    0.1864    0.0098    0.0000
 3 F              -0.7000                       3.9644    5.7247    0.0100    0.0010

 Populations of individual BAS functions
 ----------------------------------------
 1 F            0.5761  1.4008  1.0734  0.8840  0.0301  0.3718  0.3976  0.3900  0.9123  0.9285
                0.9237  0.5579  0.6324  0.6106  0.0064  0.0019  0.0044 -0.0027  0.0008 -0.0008
                0.0037  0.0030  0.0036 -0.0028  0.0002 -0.0007 -0.0030 -0.0015  0.0002 -0.0017
 2 H           -0.1518  0.2126  0.3430  0.0821  0.0470  0.0573  0.0057  0.0021  0.0032 -0.0021
                0.0009 -0.0001
 3 F            0.5761  1.4008  1.0734  0.8840  0.0301  0.3718  0.3976  0.3900  0.9123  0.9285
                0.9238  0.5579  0.6323  0.6105  0.0064  0.0019  0.0044 -0.0027  0.0008 -0.0008
                0.0037  0.0030  0.0036 -0.0028  0.0002 -0.0007 -0.0030 -0.0015  0.0002 -0.0017

 Gross Charges per Atom (Z minus electrons)
 ==========================================
            -0.7001    0.4001   -0.7000
 Net Total: -1.00000000


 Atom-Atom Population Matrix (off-diagonal elements not doubled)
 ===============================================================

     1 :     9.5208
     2 :     0.2073    0.1852
     3 :    -0.0280    0.2074    9.5207


 Frag-Frag Population Matrix (off-diagonal elements not doubled)
 ===============================================================

     1 :    10.1206
     2 :     0.1793    9.5207



 =================================================
 H I R S H F E L D   C H A R G E   A N A L Y S I S
 =================================================
  
 For each fragment: the (numerical) integral of rho(scf) * rho(fragment)/rho(sum-of-fragments)
 (nuclear charges are included, electrons are counted negative)

 The fragments and their ordering are defined in the early G E O M E T R Y output section.
 If you use single-atom fragments, this usually implies that all atoms of the same
 chemical type are grouped together. This may not be the order in which you listed them
 in the input file!

    1  FH                       -0.2093
    2  F                        -0.7907

 Sum of these charges (accuracy NumInt/Tails) =          -1.00000309



 =============================
 V O R O N O I   C H A R G E S
 =============================
  
 For each atom: the (numerical) integral of the total electronic charge density in its Voronoi cell,
 i.e. the region of space that is closer to that atom than to any other atom.
 (cf. Wigner-Seitz cells in crystals)

 Within the Voronoi cell the subintegrals over the atomic sphere and the remaining part are evaluated
 separately to give the numbers of electrons (negative charge) in these regions.
 The net total charge in the cell (including the nuclear charge) is also given.

 Values are provided for
    a) the Initial (sum-of-fragments) density
    b) the Orthogonalized-Fragments density
    c) the SCF density
    d) the Voronoi Deformation Density (VDD): the difference SCF-Initial for the complete atomic cell
 ---------------------------------------------------------------------------------------------------
 Total NetCharge:              -1.000                     -1.000                     -1.000    0.000
 (accuracy NumInt/Tails)

 Remark: the 'NetTotal' Voronoi charges often do not match the Mulliken and/or Hirshfeld charges very
 well. This is caused by the fact that chemically different atoms are not treated in accordance with
 their relative sizes. (Voronoi cells are defined by boundary planes halfway between the atoms.)
 However, the CHANGES in charge, comparing 'Initial' to 'SCF' for instance, do give a fair indication
 of the flow of charge caused by the relaxation from sum-of-fragments to self-consistency.

 Warning: the absolute accuracy of the VDD charges obtained using the Fuzzy Cells (Becke) integration
 scheme is much poorer than the one obtained with an 'equivalent' Voronoi integration grid. 



 =================================================================
 M U L T I P O L E   D E R I V E D   C H A R G E   A N A L Y S I S
 =================================================================

 This charge analysis uses the atomic multipoles (obtained from the fitted density) up to some level X,
 and reconstructs these multipoles exactly (up to level X) by distributing charges over all atoms.
 This is achieved by using Lagrange multipliers and a weight function to keep the multipoles local.

 Dummy atoms can be included (by setting INCDUM in MDC-block to 1) to obtain a fractional charge.
 This is generally useful and necessary only for small symmetrical molecules, when there are not
 enough degrees of freedom to reconstruct the multipoles.

 Since the atomic multipoles are reconstructed up to level X,
 the molecular multipoles are represented also up to level X.
 The recommended level is to reconstruct up to quadrupole : -> MDC-q charges.

 See: M. Swart, P.Th. van Duijnen, J.G. Snijders, J.Comput.Chem., (2001), p. 79-88.

 ------------------------------------------------------------- 
 Atomic electronic multipole moments from SCF equations (a.u.)
 ------------------------------------------------------------- 

   atom        charge        dip-x     dip-y     dip-z      quad-xx   quad-xy   quad-xz   quad-yy   quad-yz   quad-zz
 --------------------------------------------------------------------------------------------------------------------
    1 F     -0.561596     0.223712  0.083753  0.140019     0.269802  0.137610  0.230009 -0.204219  0.086105 -0.065583
    2 H      0.123091    -0.000002 -0.000001 -0.000001     0.049579  0.025282  0.042377 -0.037586  0.015854 -0.011993
    3 F     -0.561495    -0.223732 -0.083761 -0.140032     0.269824  0.137622  0.230027 -0.204235  0.086112 -0.065589

 --------------------------------------- 
 Multipole derived atomic charges (a.u.)
 --------------------------------------- 

 The MDC-m charges are just the Monopole terms in the multipole expansion, while for the MDC-d charges
 also the Dipoles are reconstructed. The usually preferred charges are the MDC-q charges.
 These reconstruct the Monopoles, Dipoles and Quadrupoles (both atomic AND molecular).

        Atom    Level:     MDC-m        MDC-d        MDC-q
 ---------------------------------------------------------
     1     F           -0.561596    -0.658003    -0.758630
     2     H            0.123091     0.315929     0.517194
     3     F           -0.561495    -0.657926    -0.758564

 ------------------------------------------------ 
 Average absolute deviations in atomic multipoles
 ------------------------------------------------ 

 Stated here are the average differences between the atomic multipoles
 and the reconstructed atomic multipoles (from the distributed charges).
 If these values are not zero, this means there are not enough degrees of freedom,
 to be able to reconstruct the atomic multipoles. (This usually happens only
 for small and/or highly symmetric molecules). If this is the case, one could add
 dummy atoms as extra point charges (and setting INCDUM in MDC-block to 1).

 Level:                                 MDC-d        MDC-q
 ---------------------------------------------------------
 Charge   (a.u.)                       0.0000       0.0000
 Dipole   (Debye)                      0.0000       0.0000
 Quad.    (a.u.)                       0.0934       0.0453

 --------------------------------------- 
 Represented molecular multipole moments
 --------------------------------------- 

 Given here are the Molecular multipole moments from the atomic charges, and from the Fit Density.
 Note that the atomic charges represent the latter, NOT the ones from the Exact density.

            Q (a.u.)             Dipole moment (Debye)                                          Quadrupole moment (a.u.)
                                 x         y         z              xx        xy        xz        yy        yz        zz
------------------------------------------------------------------------------------------------------------------------
MDC-m        -1.0000       12.6178   -1.8216   -3.5063        -26.0489    3.3372    6.9296   14.7383   -2.7343   11.3106
MDC-d        -1.0000       12.6177   -1.8216   -3.5064        -26.4975    2.9940    6.3557   15.0779   -2.9491   11.4195
MDC-q        -1.0000       12.6177   -1.8216   -3.5064        -26.9659    2.6357    5.7567   15.4325   -3.1734   11.5334
 
Fit.Dens.    -1.0000       12.6177   -1.8216   -3.5064        -26.6292    2.7430    5.9362   15.1776   -3.1062   11.4515



 =============
 Dipole Moment  ***  (Debye)  ***
 =============
  
 Vector   :        12.61772595     -1.82161305     -3.50638379
 Magnitude:        13.22195181

 This molecular dipole moment is calculated with analytic integration
 ************************************************************************************
 Since the molecule is NOT NEUTRAL, the dipole moment depends on the choice of origin
 ************************************************************************************



 =========================================
 Quadrupole Moment (Buckingham convention)  ***  (a.u.)  ***
 =========================================
  
      quad-xx        quad-xy        quad-xz        quad-yy        quad-yz        quad-zz
    -26.63207687     2.89099453     6.18353643    15.17986171    -3.01360542    11.45221516

 This molecular quadrupole moment is calculated with analytic integration
1



                                             *************************
                                             *  SFO MO coefficients  *
                                             *************************
  


                                       === A ===
 MOs expanded in CFs+SFOs
 ========================

 The SFOs have been characterized in an earlier part of output.
 To deduce the bonding / antibonding nature of SFO combinations in an MO, consider the products
 of the coefficients AND THE OVERLAP between the SFOs (may be NEGATIVE). The SFO overlap matrix
 is printed later, in the SFO Populations section.

 (The CF coefficients are not printed)

 MOs :      1        2        3        4        5        6        7        8        9       10
 occup:   2.00     2.00     2.00     2.00     2.00     2.00     2.00     2.00     2.00     2.00
 CF+SFO
     1   0.0053   1.0000  -0.0006  -0.0003  -0.0022   0.0000  -0.0000  -0.0016   0.0000  -0.0000
     2  -0.0003  -0.0002   0.6992  -0.7078  -0.0366   0.0000  -0.0000  -0.0821   0.0000   0.0000
     3   0.0006   0.0002  -0.0215  -0.0756  -0.7174  -0.0000   0.0001   0.6660  -0.0000  -0.0000
     4  -0.0000   0.0000   0.0000   0.0000   0.0000  -0.4245   0.5508  -0.0001   0.4743  -0.5405
     5  -0.0000   0.0000   0.0000  -0.0000   0.0000   0.5508   0.4245  -0.0000  -0.5405  -0.4743
     6   0.0011   0.0002  -0.0286  -0.0395   0.0071  -0.0000  -0.0000  -0.2716  -0.0000   0.0000
     7   0.0003  -0.0000  -0.0060  -0.0176  -0.0193   0.0000   0.0000  -0.0118  -0.0000  -0.0000
     8   0.0001  -0.0002  -0.0238  -0.0154  -0.0304   0.0000  -0.0000  -0.0999  -0.0000  -0.0000
     9   0.0000   0.0000  -0.0000  -0.0000  -0.0000  -0.0282   0.0141  -0.0000   0.0004  -0.0002
    10   0.0000  -0.0000   0.0000   0.0000   0.0000   0.0141   0.0282  -0.0000  -0.0002  -0.0004
    11   0.0000   0.0000  -0.0000  -0.0000  -0.0000   0.0080  -0.0030   0.0000  -0.0290   0.0088
    12   0.0000   0.0000   0.0000   0.0000   0.0000  -0.0030  -0.0080   0.0000   0.0088   0.0290
    13   0.0001   0.0001  -0.0013  -0.0030   0.0149   0.0000  -0.0000  -0.0229  -0.0000   0.0000
    14  -0.0004  -0.0001   0.0035   0.0141   0.0018   0.0000   0.0000   0.0135   0.0000   0.0000
    15  -0.0003  -0.0000  -0.0031  -0.0096  -0.0200   0.0000  -0.0000  -0.0312   0.0000  -0.0000
    16   0.0000   0.0000   0.0000   0.0000   0.0000  -0.0000  -0.0000   0.0000   0.0000   0.0000
    17   0.0000   0.0000   0.0000   0.0000   0.0000   0.0000   0.0000   0.0000  -0.0000  -0.0000
    18  -0.0000   0.0000  -0.0000   0.0000  -0.0000   0.0002   0.0032   0.0000  -0.0000  -0.0001
    19   0.0000  -0.0000  -0.0000  -0.0000  -0.0000  -0.0032   0.0002  -0.0000   0.0001  -0.0000
    20   0.0001   0.0000   0.0122   0.0077   0.0168  -0.0000   0.0000   0.0264  -0.0000   0.0000
    21   0.0000  -0.0000   0.0000  -0.0000   0.0000  -0.0000   0.0000  -0.0000  -0.0000   0.0000
    22   0.0000  -0.0000   0.0000  -0.0000   0.0000  -0.0000  -0.0000  -0.0000   0.0000  -0.0000
    23   0.0001  -0.0001  -0.0027  -0.0002  -0.0002  -0.0000  -0.0000  -0.0007  -0.0000   0.0000
    24  -0.0000  -0.0000   0.0000  -0.0000   0.0000  -0.0001  -0.0005  -0.0000   0.0000   0.0003
    25  -0.0000  -0.0000  -0.0000   0.0000  -0.0000   0.0005  -0.0001   0.0000  -0.0003   0.0000
    26  -0.0000   0.0000   0.0000  -0.0000  -0.0000  -0.0000   0.0000   0.0000   0.0000  -0.0000
    27  -0.0000   0.0000  -0.0000  -0.0000  -0.0000   0.0000  -0.0000   0.0000  -0.0000  -0.0000
    28  -0.0000   0.0000  -0.0000   0.0000   0.0000   0.0000  -0.0000  -0.0000   0.0000  -0.0000
    29  -0.0000   0.0000  -0.0000   0.0000  -0.0000   0.0000   0.0000  -0.0000   0.0000   0.0000
    30  -0.0001   0.0001  -0.0015   0.0000  -0.0006   0.0000  -0.0000  -0.0033  -0.0000  -0.0000
    31   0.0000   0.0000   0.0023   0.0024   0.0053  -0.0000   0.0000   0.0032  -0.0000  -0.0000
    32   0.0000   0.0000  -0.0000  -0.0000  -0.0000   0.0002   0.0022  -0.0000  -0.0000  -0.0029
    33  -0.0000  -0.0000  -0.0000  -0.0000  -0.0000   0.0022  -0.0002  -0.0000  -0.0029   0.0000
    34   0.0000  -0.0000  -0.0000  -0.0000  -0.0000  -0.0001  -0.0012  -0.0000   0.0000   0.0004
    35   0.0000  -0.0000   0.0000   0.0000   0.0000   0.0012  -0.0001   0.0000  -0.0004   0.0000
    36  -0.0000  -0.0002   0.0011   0.0011   0.0010   0.0000   0.0000   0.0036  -0.0000  -0.0000
    37  -0.0000  -0.0002  -0.0001   0.0001  -0.0001  -0.0000   0.0000  -0.0001   0.0000  -0.0000
    38   0.9999  -0.0053   0.0028   0.0030   0.0085   0.0000   0.0000   0.0045   0.0000  -0.0000
    39  -0.0010  -0.0002  -0.6636  -0.6892   0.2062   0.0000   0.0000   0.0432   0.0000  -0.0000
    40  -0.0003  -0.0000  -0.0423  -0.0161  -0.4491  -0.1733  -0.3742  -0.5667  -0.1570  -0.4047
    41  -0.0002  -0.0000  -0.0248  -0.0095  -0.2633  -0.2175   0.5620  -0.3324  -0.2661   0.5759
    42  -0.0002  -0.0000  -0.0204  -0.0078  -0.2172   0.6222   0.0922  -0.2740   0.6474   0.1386
    43  -0.0004  -0.0003   0.0085   0.0226  -0.0029   0.0000   0.0000   0.0721   0.0000  -0.0000
    44  -0.0000  -0.0000   0.0008   0.0007   0.0027  -0.0293  -0.0057   0.0036  -0.0267  -0.0070
    45  -0.0004  -0.0000   0.0090   0.0084   0.0308  -0.0013   0.0164   0.0412  -0.0021   0.0150
    46   0.0003   0.0000  -0.0059  -0.0055  -0.0200  -0.0059   0.0244  -0.0268  -0.0069   0.0222
    47  -0.0002  -0.0000  -0.0050  -0.0031  -0.0154   0.0015   0.0038  -0.0050   0.0009   0.0027
    48   0.0001   0.0000   0.0036   0.0022   0.0109  -0.0048  -0.0004   0.0035  -0.0033  -0.0005
    49  -0.0001  -0.0000  -0.0027  -0.0017  -0.0084  -0.0024  -0.0064  -0.0027  -0.0014  -0.0045
    50   0.0001   0.0000   0.0036   0.0023   0.0112   0.0056   0.0000   0.0036   0.0038   0.0003
    51   0.0000   0.0000   0.0005   0.0003   0.0017  -0.0044   0.0052   0.0005  -0.0033   0.0034
    52  -0.0003  -0.0001   0.0041   0.0084   0.0044   0.0000   0.0000   0.0110   0.0000  -0.0000
    53  -0.0000  -0.0000  -0.0005  -0.0005  -0.0014   0.0012  -0.0005  -0.0010   0.0011  -0.0003
    54   0.0000   0.0000   0.0002   0.0002   0.0006   0.0012  -0.0007   0.0004   0.0011  -0.0006
    55  -0.0000  -0.0000  -0.0000  -0.0000  -0.0000  -0.0004   0.0020  -0.0000  -0.0005   0.0017
    56  -0.0000  -0.0000  -0.0008  -0.0008  -0.0024  -0.0007  -0.0010  -0.0018  -0.0006  -0.0009
    57   0.0000   0.0000   0.0010   0.0009   0.0028  -0.0015  -0.0011   0.0020  -0.0012  -0.0010
    58   0.0000   0.0000   0.0006   0.0006   0.0018  -0.0000   0.0005   0.0013  -0.0000   0.0004
    59  -0.0000  -0.0000  -0.0011  -0.0010  -0.0032  -0.0011   0.0001  -0.0023  -0.0009   0.0000
    60   0.0003   0.0000   0.0001  -0.0001   0.0008  -0.0002  -0.0011   0.0014  -0.0002  -0.0016
    61  -0.0002  -0.0000  -0.0000   0.0000  -0.0005  -0.0014  -0.0007  -0.0008  -0.0020  -0.0012
    62  -0.0002  -0.0000  -0.0000   0.0000  -0.0004   0.0011  -0.0012  -0.0008   0.0017  -0.0017
    63   0.0002   0.0000  -0.0003  -0.0003  -0.0004  -0.0000   0.0000  -0.0003  -0.0000   0.0000

 MOs :     11       12       13       14       15       16       17       18       19       20
 occup:   0.00     0.00     0.00     0.00     0.00     0.00     0.00     0.00     0.00     0.00
 CF+SFO
     1  -0.0345  -0.0294   0.0586  -0.0011  -0.0000   0.0000   0.0000  -0.0000   0.0713  -0.0451
     2  -0.4694  -0.3909   0.8068  -0.0719  -0.0000   0.0000   0.0000  -0.0000   1.0338  -0.6543
     3   0.4988   0.4776  -1.0571   0.2894   0.0000  -0.0000  -0.0000   0.0000  -1.4039   0.8508
     4  -0.0000  -0.0000   0.0000  -0.0000  -0.0334  -0.0570  -0.0105  -0.0461   0.0000  -0.0000
     5  -0.0000  -0.0000   0.0000  -0.0000   0.0570  -0.0334   0.0461  -0.0105   0.0000  -0.0000
     6   0.8939   1.0535  -3.1994   0.6345   0.0000  -0.0000  -0.0000   0.0000  -2.9796   1.6893
     7   0.4762  -0.8583   0.0435   0.3630   0.0000  -0.0000  -0.0000   0.0000   0.1271  -0.0824
     8  -0.4584  -0.1774   1.9315   1.0098   0.0000   0.0000  -0.0000   0.0000   0.9996  -0.3041
     9   0.0000   0.0000  -0.0000  -0.0000   0.5642   0.3787  -0.4047  -0.5058  -0.0000   0.0000
    10   0.0000  -0.0000  -0.0000   0.0000  -0.3787   0.5642   0.5058  -0.4047  -0.0000  -0.0001
    11   0.0000   0.0000  -0.0000  -0.0000  -0.1341  -0.0705   0.3124   0.3145   0.0000   0.0001
    12   0.0000   0.0000  -0.0000   0.0000   0.0705  -0.1341  -0.3145   0.3124   0.0000  -0.0001
    13   0.0447   0.0137   0.0057   0.0555  -0.0000  -0.0000  -0.0000   0.0000  -0.7010  -0.6907
    14  -0.0266  -0.0450  -0.0884   0.0480   0.0000   0.0000   0.0000   0.0000   0.0316  -0.3207
    15  -0.2024  -0.1512   0.2963  -0.0596  -0.0000   0.0000   0.0000   0.0000   0.7249  -0.3694
    16   0.0000   0.0000  -0.0000   0.0000   0.0000  -0.0000  -0.0000   0.0000  -0.0000   0.0000
    17   0.0000   0.0000  -0.0000  -0.0000  -0.0000   0.0000   0.0000  -0.0000  -0.0000   0.0000
    18   0.0000   0.0000  -0.0000   0.0000   0.0081  -0.0417   0.0094  -0.0173  -0.0000   0.0000
    19  -0.0000  -0.0000   0.0000  -0.0000  -0.0417  -0.0081  -0.0173  -0.0094   0.0000  -0.0000
    20   0.0943   0.0837  -0.1784   0.0516   0.0000  -0.0000  -0.0000   0.0000  -0.2661   0.1264
    21   0.0000   0.0000  -0.0000   0.0000   0.0000  -0.0000  -0.0000  -0.0000  -0.0000   0.0000
    22   0.0000   0.0000  -0.0000   0.0000   0.0000  -0.0000  -0.0000   0.0000  -0.0000   0.0000
    23   0.0255   0.0193  -0.0291   0.0074   0.0000  -0.0000  -0.0000   0.0000  -0.0700   0.0521
    24  -0.0000  -0.0000   0.0000  -0.0000  -0.0035   0.0106  -0.0104   0.0144   0.0000  -0.0000
    25  -0.0000  -0.0000   0.0000   0.0000   0.0106   0.0036   0.0144   0.0104   0.0000  -0.0000
    26  -0.0000   0.0000   0.0000   0.0000   0.0000  -0.0000   0.0000  -0.0000   0.0000   0.0000
    27   0.0000   0.0000  -0.0000   0.0000  -0.0000  -0.0000   0.0000   0.0000  -0.0000   0.0000
    28  -0.0000  -0.0000   0.0000  -0.0000  -0.0000   0.0000   0.0000  -0.0000   0.0000  -0.0000
    29  -0.0000  -0.0000   0.0000  -0.0000   0.0000   0.0000   0.0000   0.0000   0.0000  -0.0000
    30  -0.0166  -0.0128   0.0220  -0.0133  -0.0000   0.0000   0.0000  -0.0000   0.0587  -0.0227
    31   0.0184   0.0164  -0.0380   0.0052   0.0000  -0.0000  -0.0000   0.0000  -0.0412   0.0309
    32  -0.0000  -0.0000   0.0000   0.0000   0.0007  -0.0036  -0.0038   0.0069   0.0000  -0.0000
    33  -0.0000  -0.0000   0.0000  -0.0000   0.0036   0.0007  -0.0069  -0.0038   0.0000  -0.0000
    34  -0.0000  -0.0000   0.0000   0.0000  -0.0021   0.0095  -0.0072   0.0126   0.0000  -0.0000
    35   0.0000   0.0000  -0.0000   0.0000   0.0095   0.0021   0.0126   0.0072  -0.0000   0.0000
    36   0.0049   0.0058  -0.0113  -0.0015  -0.0000   0.0000   0.0000  -0.0000   0.0016   0.0079
    37  -0.0020  -0.0017   0.0034  -0.0001   0.0000  -0.0000  -0.0000   0.0000   0.0041  -0.0029
    38  -0.0845  -0.0551   0.2112  -0.0376  -0.0000   0.0000   0.0000  -0.0000   0.2448  -0.1230
    39  -0.7461  -0.5267   1.9902  -0.3382  -0.0000   0.0000   0.0000  -0.0000   2.1085  -1.0756
    40  -0.2189  -0.2943   0.4294  -0.5711  -0.0427   0.0680   0.0533  -0.0454   0.7492  -0.6123
    41  -0.1284  -0.1726   0.2518  -0.3349  -0.0282  -0.1139  -0.0064   0.1020   0.4393  -0.3590
    42  -0.1059  -0.1423   0.2077  -0.2761   0.1225  -0.0025  -0.1024  -0.0300   0.3623  -0.2960
    43  -1.6161  -1.3815   2.9288   0.3190  -0.0000   0.0000   0.0000  -0.0000   2.4089  -1.2095
    44  -0.0201  -0.0124   0.0186  -0.0159  -0.5357   0.0344  -0.7561  -0.1856   0.1071  -0.0924
    45  -0.2287  -0.1409   0.2112  -0.1800   0.0144  -0.2950   0.1483  -0.4018   1.2157  -1.0503
    46   0.1487   0.0916  -0.1373   0.1170  -0.0505  -0.4490   0.1256  -0.6431  -0.7904   0.6828
    47  -0.0421  -0.0405   0.0112  -0.0014  -0.0079   0.0145   0.0140  -0.0135   0.1578   0.0104
    48   0.0299   0.0288  -0.0079   0.0010   0.0197   0.0008  -0.0219  -0.0078  -0.1122  -0.0074
    49  -0.0230  -0.0222   0.0061  -0.0008   0.0131  -0.0245  -0.0234   0.0229   0.0863   0.0057
    50   0.0305   0.0294  -0.0081   0.0010  -0.0227  -0.0028   0.0245   0.0111  -0.1146  -0.0076
    51   0.0046   0.0044  -0.0012   0.0002   0.0153   0.0235  -0.0088  -0.0317  -0.0173  -0.0011
    52  -0.2123  -0.1378   0.4304  -0.0229  -0.0000   0.0000   0.0000  -0.0000   0.4667  -0.2347
    53  -0.0033  -0.0044  -0.0016  -0.0055   0.0023   0.0012  -0.0032  -0.0032   0.0156  -0.0109
    54   0.0014   0.0019   0.0007   0.0024   0.0021   0.0017  -0.0027  -0.0040  -0.0067   0.0047
    55  -0.0000  -0.0000  -0.0000  -0.0000  -0.0004  -0.0039  -0.0015   0.0067   0.0001  -0.0001
    56  -0.0056  -0.0076  -0.0027  -0.0094  -0.0017   0.0018   0.0038  -0.0021   0.0268  -0.0187
    57   0.0065   0.0088   0.0032   0.0108  -0.0031   0.0018   0.0063  -0.0014  -0.0310   0.0216
    58   0.0042   0.0056   0.0020   0.0070   0.0001  -0.0009  -0.0006   0.0015  -0.0199   0.0139
    59  -0.0074  -0.0099  -0.0036  -0.0123  -0.0021  -0.0005   0.0032   0.0019   0.0351  -0.0245
    60   0.0208   0.0185  -0.0179   0.0279  -0.0009   0.0028   0.0044  -0.0060  -0.0942   0.0644
    61  -0.0115  -0.0103   0.0099  -0.0155  -0.0040   0.0015   0.0109  -0.0007   0.0523  -0.0358
    62  -0.0111  -0.0099   0.0096  -0.0149   0.0024   0.0036  -0.0032  -0.0106   0.0504  -0.0345
    63   0.0056   0.0037  -0.0134   0.0017   0.0000  -0.0000  -0.0000  -0.0000  -0.0146   0.0074

 MOs :     21       22       23       24       25       26       27       28       29       30
 occup:   0.00     0.00     0.00     0.00     0.00     0.00     0.00     0.00     0.00     0.00
 CF+SFO
     1   0.0000   0.0000   0.0000  -0.0000  -0.0290   0.0000   0.0000   0.0349  -0.0000  -0.0000
     2   0.0001   0.0001   0.0000  -0.0000  -0.3383   0.0000   0.0000   0.5514  -0.0000   0.0000
     3  -0.0001  -0.0001  -0.0000   0.0000   0.2956  -0.0000  -0.0000  -0.8281   0.0000  -0.0000
     4   0.0457  -0.0384   0.0000  -0.0000  -0.0000   0.0000   0.0000   0.0000   0.0481   0.0487
     5  -0.0384  -0.0457  -0.0000  -0.0000  -0.0000   0.0000   0.0000   0.0000   0.0487  -0.0481
     6  -0.0002  -0.0002  -0.0001   0.0000   1.1776  -0.0000  -0.0000  -1.6874   0.0000  -0.0000
     7   0.0000   0.0000   0.0000  -0.0000  -0.2233  -0.0000  -0.0000  -0.1105  -0.0000  -0.0000
     8   0.0000   0.0000   0.0001  -0.0000  -1.2685   0.0000   0.0000   0.2160  -0.0000  -0.0000
     9   0.4480  -0.1139   0.0000   0.0000   0.0000   0.0000   0.0000  -0.0000   0.1155   0.3388
    10  -0.1139  -0.4479  -0.0000  -0.0000  -0.0000  -0.0000   0.0000   0.0000   0.3388  -0.1155
    11   0.8498  -0.1211   0.0000   0.0000  -0.0000   0.0000  -0.0000  -0.0000   0.0658   0.2928
    12  -0.1211  -0.8498  -0.0000  -0.0000  -0.0000  -0.0000  -0.0000   0.0000   0.2928  -0.0658
    13   0.0001   0.0001  -0.0000   0.0000   0.3504  -0.0000  -0.0000  -0.1991   0.0000   0.0000
    14   0.0000   0.0000  -0.0000   0.0000   0.0525   0.0000   0.0000   0.9319  -0.0000   0.0000
    15   0.0000   0.0000  -0.0001   0.0000   0.6940   0.0000  -0.0000  -0.0308   0.0000   0.0000
    16   0.0000   0.0000  -0.6920  -0.1232  -0.0001   0.7102   0.0457  -0.0000  -0.0000   0.0000
    17  -0.0000   0.0000  -0.1232   0.6920  -0.0000   0.0457  -0.7102   0.0000   0.0000   0.0000
    18  -0.0097   0.0642   0.0000   0.0000   0.0000   0.0000   0.0000  -0.0000  -0.6108  -0.0428
    19  -0.0642  -0.0097  -0.0000   0.0000  -0.0000  -0.0000  -0.0000   0.0000   0.0428  -0.6108
    20  -0.0000  -0.0000   0.0000  -0.0000   0.0379  -0.0000  -0.0000  -0.3569   0.0000  -0.0000
    21   0.0000   0.0000  -0.0278   0.0388   0.0000  -0.0378   0.0676  -0.0000  -0.0000  -0.0000
    22   0.0000   0.0000  -0.0388  -0.0278   0.0000  -0.0676  -0.0378  -0.0000  -0.0000   0.0000
    23  -0.0000  -0.0000   0.0000   0.0000   0.0019   0.0000   0.0000   0.0147  -0.0000  -0.0000
    24  -0.0000   0.0010   0.0000   0.0000  -0.0000  -0.0000   0.0000  -0.0000  -0.0118   0.0007
    25  -0.0010  -0.0000  -0.0000  -0.0000   0.0000   0.0000   0.0000   0.0000  -0.0007  -0.0118
    26  -0.0000   0.0000   0.0000   0.0000  -0.0000  -0.0000   0.0000   0.0000  -0.0000   0.0000
    27   0.0000  -0.0000  -0.0000  -0.0000   0.0000   0.0000  -0.0000  -0.0000   0.0000  -0.0000
    28  -0.0000  -0.0000   0.0082  -0.0114   0.0000   0.0071  -0.0127   0.0000   0.0000   0.0000
    29   0.0000   0.0000   0.0114   0.0082   0.0000   0.0127   0.0071   0.0000  -0.0000   0.0000
    30  -0.0000   0.0000  -0.0000  -0.0000   0.0212  -0.0000  -0.0000   0.0337   0.0000  -0.0000
    31  -0.0000  -0.0000  -0.0000   0.0000   0.0169  -0.0000  -0.0000  -0.0300   0.0000   0.0000
    32  -0.0001   0.0009   0.0000  -0.0000   0.0000  -0.0000   0.0000   0.0000  -0.0039  -0.0002
    33   0.0009   0.0001  -0.0000   0.0000   0.0000  -0.0000  -0.0000   0.0000  -0.0002   0.0039
    34  -0.0011   0.0088  -0.0000  -0.0000   0.0000   0.0000  -0.0000   0.0000  -0.0092  -0.0004
    35  -0.0088  -0.0011   0.0000  -0.0000   0.0000   0.0000  -0.0000  -0.0000   0.0004  -0.0092
    36  -0.0000  -0.0000   0.0000  -0.0000  -0.0064   0.0000  -0.0000   0.0040  -0.0000  -0.0000
    37   0.0000   0.0000   0.0000  -0.0000  -0.0018   0.0000   0.0000   0.0014  -0.0000   0.0000
    38   0.0000   0.0000   0.0000  -0.0000  -0.0524   0.0000   0.0000   0.1787  -0.0000   0.0000
    39   0.0001   0.0001   0.0001  -0.0000  -0.6545   0.0000   0.0000   1.3955  -0.0000   0.0000
    40  -0.0465  -0.2095   0.0000   0.0000   0.0735   0.0000   0.0000   0.6263   0.0189  -0.0058
    41  -0.1731   0.2617  -0.0000   0.0000   0.0431   0.0000   0.0000   0.3672  -0.0253  -0.0140
    42   0.3061   0.1161  -0.0000  -0.0000   0.0355   0.0000   0.0000   0.3028  -0.0084   0.0290
    43   0.0001   0.0001   0.0001  -0.0000  -1.6941   0.0000   0.0000   1.0295  -0.0000  -0.0000
    44   0.4839   0.2082   0.0000   0.0000  -0.0144   0.0000   0.0000   0.0376  -0.0550   0.1622
    45   0.0840  -0.2773   0.0000  -0.0000  -0.1633   0.0000   0.0000   0.4271   0.0921   0.0200
    46   0.1945  -0.3985  -0.0000   0.0000   0.1062  -0.0000  -0.0000  -0.2777   0.1341   0.0527
    47  -0.0177  -0.1107  -0.0040  -0.4060   0.4309  -0.0532  -0.4342   0.3848  -0.3132   0.0760
    48   0.1277   0.0399   0.1466  -0.4464  -0.3062   0.1032  -0.4956  -0.2735   0.0850  -0.3750
    49   0.0279   0.1863  -0.3534  -0.1075   0.2355  -0.3913  -0.0725   0.2104   0.5274  -0.1224
    50  -0.1512  -0.0339  -0.3527  -0.2224  -0.3128  -0.4045  -0.1956  -0.2793  -0.0626   0.4409
    51   0.1508  -0.1152  -0.4131   0.1274  -0.0472  -0.4269   0.1861  -0.0421  -0.3645  -0.4056
    52   0.0000   0.0000   0.0000  -0.0000  -0.2519   0.0000   0.0000   0.0018  -0.0000   0.0000
    53   0.0068  -0.0010   0.0039   0.0083   0.0170  -0.0012  -0.0019   0.0189  -0.0034  -0.0151
    54   0.0068  -0.0024  -0.0037  -0.0030  -0.0073   0.0010   0.0006  -0.0081  -0.0066  -0.0149
    55  -0.0043   0.0094  -0.0011   0.0019   0.0001   0.0002  -0.0005   0.0001   0.0219   0.0081
    56  -0.0026  -0.0059  -0.0070   0.0018   0.0291   0.0016  -0.0006   0.0323  -0.0128   0.0069
    57  -0.0063  -0.0073   0.0028   0.0028  -0.0337  -0.0008  -0.0006  -0.0375  -0.0153   0.0154
    58  -0.0006   0.0023  -0.0062   0.0061  -0.0216   0.0013  -0.0016  -0.0240   0.0053   0.0008
    59  -0.0056  -0.0007   0.0019   0.0003   0.0381  -0.0005  -0.0000   0.0424  -0.0006   0.0126
    60   0.0002  -0.0119   0.0000  -0.0000  -0.0210  -0.0000  -0.0000  -0.0728   0.0096  -0.0006
    61  -0.0133  -0.0114  -0.0000   0.0000   0.0117   0.0000   0.0000   0.0404   0.0083  -0.0114
    62   0.0142  -0.0104  -0.0000   0.0000   0.0113   0.0000   0.0000   0.0389   0.0093   0.0108
    63  -0.0000  -0.0000  -0.0000   0.0000   0.0045  -0.0000  -0.0000  -0.0096   0.0000  -0.0000

 MOs :     31       32       33       34       35       36       37       38       39       40
 occup:   0.00     0.00     0.00     0.00     0.00     0.00     0.00     0.00     0.00     0.00
 CF+SFO
     1  -0.0131   0.0243   0.0000   0.0000   0.0000  -0.0000  -0.0397   0.0000   0.0000   0.0000
     2  -0.1935   0.3159   0.0000   0.0000   0.0000  -0.0000  -0.7078   0.0000  -0.0000   0.0001
     3   0.1978  -0.3402  -0.0000  -0.0000  -0.0000   0.0000   1.2288   0.0000   0.0000  -0.0001
     4  -0.0000   0.0000  -0.0981   0.0778   0.0000   0.0000  -0.0000  -0.0136   0.0158  -0.0000
     5  -0.0000   0.0000   0.0778   0.0981  -0.0000   0.0000  -0.0000  -0.0158  -0.0136   0.0000
     6   0.0639  -0.8192   0.0000  -0.0000  -0.0001   0.0001   2.2999   0.0000   0.0000  -0.0002
     7  -0.1325   0.1437  -0.0000  -0.0000   0.0000  -0.0000   0.3095   0.0000   0.0000  -0.0000
     8   0.2349   0.4686  -0.0000  -0.0000   0.0001  -0.0001  -0.0030   0.0000   0.0000   0.0000
     9  -0.0000  -0.0000  -0.6710   0.1503   0.0000  -0.0000   0.0000  -0.0302   0.1135  -0.0000
    10   0.0000   0.0000   0.1503   0.6710   0.0000   0.0000  -0.0000  -0.1135  -0.0302  -0.0000
    11   0.0000   0.0000  -0.5394   0.0612   0.0000  -0.0000   0.0000  -0.0125   0.0812  -0.0000
    12   0.0000   0.0000   0.0612   0.5394   0.0000   0.0000   0.0000  -0.0812  -0.0125  -0.0000
    13  -0.3275  -0.0140  -0.0000   0.0000  -0.0000  -0.0000   0.1352  -0.0000   0.0000  -0.0000
    14   0.6321  -0.0999  -0.0000  -0.0000  -0.0000   0.0000  -0.6069  -0.0000  -0.0000   0.0001
    15   0.4802  -0.1807  -0.0000  -0.0000  -0.0000   0.0000  -0.5149  -0.0000  -0.0000   0.0001
    16  -0.0000   0.0000  -0.0000  -0.0000   0.0046  -0.0076   0.0000   0.0000   0.0000   0.0000
    17  -0.0000   0.0000   0.0000   0.0000   0.0076   0.0046   0.0000  -0.0000  -0.0000  -0.0000
    18   0.0000   0.0000  -0.1546   0.8590   0.0000   0.0000  -0.0000  -0.1269   0.0177  -0.0000
    19  -0.0000  -0.0000  -0.8590  -0.1546   0.0000  -0.0000  -0.0000   0.0177   0.1269  -0.0000
    20   0.3566   0.8317  -0.0000  -0.0000   0.0000  -0.0000   0.2627   0.0000   0.0000  -0.0000
    21   0.0000  -0.0000   0.0000  -0.0000   0.8881   0.0887   0.0000   0.0000  -0.0000  -0.0000
    22   0.0000  -0.0000   0.0000   0.0000   0.0887  -0.8881   0.0000   0.0000  -0.0000   0.0000
    23   0.1566   0.0120  -0.0000   0.0000  -0.0000   0.0000  -0.6066   0.0001   0.0000  -0.0001
    24  -0.0000  -0.0000  -0.0106   0.2177  -0.0000   0.0000   0.0000   0.8272  -0.0075  -0.0000
    25   0.0000   0.0000  -0.2177  -0.0106  -0.0000  -0.0000  -0.0000  -0.0075  -0.8272   0.0000
    26   0.0000   0.0000   0.0000  -0.0000   0.0000   0.0000  -0.0000  -0.0000   0.0000  -0.0715
    27   0.0000   0.0000  -0.0000  -0.0000  -0.0000  -0.0000  -0.0000  -0.0000   0.0000  -0.7022
    28  -0.0000   0.0000  -0.0000   0.0000   0.0102   0.0010  -0.0000   0.0000  -0.0000  -0.0000
    29  -0.0000   0.0000  -0.0000  -0.0000   0.0010  -0.0102  -0.0001  -0.0000  -0.0000   0.0000
    30  -0.0672   0.0239   0.0000   0.0000   0.0000   0.0000  -0.1932  -0.0000   0.0000  -0.0000
    31   0.0144  -0.0491  -0.0000  -0.0000  -0.0000   0.0000  -0.0481  -0.0000  -0.0000   0.0000
    32  -0.0000  -0.0000   0.0012  -0.0071  -0.0000  -0.0000  -0.0000   0.0003  -0.0000  -0.0000
    33  -0.0000   0.0000  -0.0071  -0.0012   0.0000  -0.0000  -0.0000   0.0000   0.0003  -0.0000
    34  -0.0000  -0.0000  -0.0002   0.0013  -0.0000  -0.0000  -0.0000  -0.0026   0.0003   0.0000
    35   0.0000  -0.0000  -0.0013  -0.0002  -0.0000   0.0000   0.0000   0.0003   0.0026  -0.0000
    36   0.0108   0.0006   0.0000   0.0000  -0.0000   0.0000  -0.0490  -0.0000   0.0000   0.0000
    37  -0.0013   0.0013  -0.0000   0.0000   0.0000  -0.0000  -0.0021   0.0000  -0.0000   0.0000
    38   0.0614   0.0317  -0.0000   0.0000  -0.0000   0.0000  -0.1924  -0.0000  -0.0000   0.0000
    39   0.3411   0.4163  -0.0000   0.0000   0.0000  -0.0000  -1.6538  -0.0000  -0.0000   0.0002
    40   0.0032   0.0837   0.0575   0.2989  -0.0000   0.0000  -0.8828  -0.1230  -0.0287   0.0001
    41   0.0019   0.0491   0.2559  -0.3638  -0.0000   0.0000  -0.5177   0.1550  -0.1001   0.0000
    42   0.0015   0.0405  -0.4292  -0.1769   0.0000  -0.0000  -0.4268   0.0663   0.1808   0.0000
    43  -0.1723   0.9834  -0.0000   0.0000   0.0001  -0.0001  -1.2928   0.0000   0.0000   0.0001
    44  -0.0336   0.0113  -0.4878  -0.2266   0.0000  -0.0000  -0.0760   0.0286   0.0685   0.0000
    45  -0.3819   0.1282  -0.0936   0.2807   0.0000  -0.0000  -0.8628  -0.0392   0.0114   0.0001
    46   0.2483  -0.0833  -0.2101   0.4009  -0.0000   0.0000   0.5610  -0.0565   0.0268  -0.0000
    47  -0.3961   0.2686  -0.0502  -0.3842   0.1204   0.1080  -0.3642   0.1104   0.0189   0.0000
    48   0.2815  -0.1909   0.4372   0.1503   0.1721   0.0737   0.2589  -0.0384  -0.1280  -0.0000
    49  -0.2165   0.1468   0.0779   0.6463  -0.0608   0.1340  -0.1991  -0.1858  -0.0299   0.0000
    50   0.2876  -0.1949  -0.5189  -0.1320  -0.0263   0.1640   0.2644   0.0322   0.1514  -0.0000
    51   0.0434  -0.0294   0.5321  -0.3831  -0.1468   0.0900   0.0399   0.1167  -0.1493  -0.0000
    52  -0.0088  -0.1046  -0.0000   0.0000   0.0000  -0.0000  -1.2896  -0.0000  -0.0000   0.0001
    53   0.0178  -0.0587   0.0748  -0.0084   0.0988   0.2311   0.0271   0.0352  -0.2319   0.1202
    54  -0.0077   0.0253   0.0753  -0.0242   0.0040  -0.1305  -0.0117   0.0848  -0.2317   0.4354
    55   0.0001  -0.0003  -0.0504   0.1013   0.0582   0.0122   0.0001  -0.3217   0.1447   0.4232
    56   0.0305  -0.1007  -0.0268  -0.0653   0.1639  -0.1126   0.0465   0.2001   0.0915   0.0816
    57  -0.0354   0.1166  -0.0661  -0.0819   0.0064   0.1095  -0.0539   0.2469   0.2159   0.2439
    58  -0.0227   0.0748  -0.0068   0.0252   0.2383  -0.0169  -0.0345  -0.0792   0.0181  -0.2161
    59   0.0400  -0.1320  -0.0605  -0.0095  -0.0277   0.0452   0.0610   0.0220   0.1898   0.0596
    60   0.0228   0.0144  -0.0012   0.0250   0.0000  -0.0000   0.0747   0.0482  -0.0004   0.0000
    61  -0.0126  -0.0080   0.0272   0.0247  -0.0000  -0.0000  -0.0415   0.0455   0.0543  -0.0000
    62  -0.0122  -0.0077  -0.0305   0.0210  -0.0000   0.0000  -0.0400   0.0428  -0.0572  -0.0000
    63  -0.0034  -0.0032   0.0000   0.0000  -0.0000  -0.0000   0.0037   0.0000   0.0000  -0.0000

 MOs :     41       42       43       44       45       46       47       48       49       50
 occup:   0.00     0.00     0.00     0.00     0.00     0.00     0.00     0.00     0.00     0.00
 CF+SFO
     1   0.0000  -0.0000  -0.0000   0.0302   0.0000   0.0000  -0.0570   0.0000  -0.0000   0.0405
     2   0.0000  -0.0000  -0.0000   0.5161   0.0001   0.0000  -0.9840   0.0000  -0.0001   0.6954
     3  -0.0000   0.0000   0.0000  -0.9084  -0.0002  -0.0000   1.6467  -0.0000   0.0002  -1.1588
     4   0.0000   0.0000  -0.0000   0.0000  -0.0000   0.0000  -0.0000   0.1134  -0.0287   0.0000
     5   0.0000   0.0000   0.0000   0.0000   0.0000   0.0000  -0.0000  -0.0287  -0.1134   0.0000
     6  -0.0000   0.0000   0.0000  -1.9044  -0.0004  -0.0000   3.0920  -0.0000   0.0004  -2.2470
     7  -0.0000   0.0000  -0.0000  -0.2618  -0.0001  -0.0000   0.3580  -0.0000   0.0000  -0.2611
     8   0.0000  -0.0000  -0.0000   0.2121   0.0000   0.0000  -0.0920   0.0000  -0.0000   0.1334
     9  -0.0000   0.0000  -0.0000  -0.0000  -0.0000   0.0000   0.0000   0.5971   0.1226  -0.0000
    10   0.0000   0.0000   0.0000  -0.0000   0.0000   0.0000   0.0001   0.1225  -0.5971   0.0000
    11  -0.0000   0.0000  -0.0000   0.0000  -0.0000   0.0000  -0.0000   0.4633   0.1483  -0.0000
    12   0.0000   0.0000   0.0000  -0.0000   0.0000   0.0000   0.0001   0.1483  -0.4633   0.0000
    13  -0.0000   0.0000   0.0000  -0.2317  -0.0000  -0.0000   0.2109   0.0000   0.0000  -0.1925
    14   0.0000  -0.0000  -0.0000   0.6651   0.0001   0.0000  -0.7866   0.0000  -0.0001   0.6458
    15   0.0000  -0.0000  -0.0000   0.5874   0.0001   0.0000  -0.5526   0.0000  -0.0001   0.4007
    16  -0.0000   0.0000   0.0000  -0.0000  -0.0458  -0.0076   0.0000   0.0000   0.0000  -0.0001
    17   0.0000   0.0000   0.0000  -0.0000  -0.0076   0.0458   0.0000  -0.0000  -0.0000  -0.0000
    18   0.0000  -0.0000   0.0000   0.0000   0.0000   0.0000   0.0000   0.2627  -0.3832   0.0000
    19  -0.0000   0.0000  -0.0000   0.0000  -0.0000  -0.0000  -0.0000   0.3832   0.2627  -0.0000
    20  -0.0000   0.0000   0.0000  -0.3257  -0.0001  -0.0000   0.0667  -0.0000   0.0000   0.0154
    21   0.0000   0.0000  -0.0000   0.0000  -0.2334   0.3335   0.0000  -0.0000   0.0000  -0.0001
    22  -0.0000  -0.0000   0.0000   0.0000  -0.3335  -0.2334   0.0001   0.0000   0.0000  -0.0002
    23  -0.0000   0.0000   0.0000  -0.5462  -0.0001  -0.0000   0.3964  -0.0000   0.0001  -0.4839
    24  -0.0000  -0.0000  -0.0000   0.0000   0.0000  -0.0000  -0.0001  -0.2612   0.5123   0.0000
    25   0.0000  -0.0000   0.0000  -0.0000   0.0000  -0.0000   0.0000  -0.5123  -0.2612   0.0000
    26  -0.7022  -0.0717   0.7048   0.0000  -0.0000  -0.0000   0.0000   0.0000  -0.0000  -0.0000
    27   0.0715  -0.7048  -0.0717   0.0001   0.0000  -0.0000   0.0000  -0.0000  -0.0000   0.0000
    28   0.0000  -0.0000  -0.0000   0.0000  -0.3360   0.4790   0.0000  -0.0000   0.0000   0.0003
    29   0.0000   0.0000  -0.0000  -0.0000  -0.4790  -0.3360   0.0001  -0.0000  -0.0000   0.0007
    30  -0.0000   0.0000   0.0000  -0.4010   0.0001   0.0001   0.0906   0.0000   0.0000   0.5967
    31   0.0000  -0.0000   0.0000   0.1946   0.0001   0.0000   0.6743  -0.0000   0.0001   0.5439
    32   0.0000  -0.0000  -0.0000  -0.0000  -0.0000   0.0000   0.0000   0.1031  -0.1526  -0.0000
    33   0.0000  -0.0000  -0.0000  -0.0000   0.0000   0.0000   0.0000  -0.1526  -0.1031  -0.0000
    34   0.0000   0.0000   0.0000  -0.0000  -0.0000   0.0000   0.0000   0.2121  -0.3266  -0.0000
    35   0.0000   0.0000  -0.0000   0.0000  -0.0000  -0.0000  -0.0000   0.3266   0.2121  -0.0000
    36   0.0000   0.0000  -0.0000   0.0405   0.0000   0.0000  -0.0602  -0.0000  -0.0000   0.0203
    37   0.0000  -0.0000  -0.0000   0.0016   0.0000   0.0000  -0.0022  -0.0000  -0.0000   0.0006
    38   0.0000  -0.0000   0.0000   0.2130   0.0000   0.0000  -0.3004   0.0000  -0.0000   0.2533
    39   0.0000  -0.0000  -0.0000   1.6236   0.0003   0.0000  -2.3839   0.0000  -0.0003   1.8721
    40   0.0000  -0.0000   0.0000   0.7307   0.0002   0.0000  -1.1762   0.0629  -0.2653   0.9104
    41   0.0000  -0.0000  -0.0000   0.4285   0.0001   0.0000  -0.6898  -0.3427   0.2030   0.5338
    42   0.0000  -0.0000  -0.0000   0.3533   0.0001   0.0000  -0.5688   0.2855   0.3021   0.4402
    43   0.0000  -0.0000  -0.0000   1.0560   0.0002   0.0000  -1.7678   0.0000  -0.0002   1.2683
    44  -0.0000  -0.0000  -0.0000   0.0446   0.0000  -0.0000  -0.0874   0.3159   0.3652   0.0479
    45   0.0000  -0.0000   0.0000   0.5061   0.0001   0.0000  -0.9914   0.1801  -0.1954   0.5435
    46  -0.0000   0.0000   0.0000  -0.3291  -0.0001  -0.0000   0.6446   0.3197  -0.2508  -0.3534
    47   0.0000  -0.0000  -0.0000   0.2185   0.0003   0.0102  -0.4713  -0.0687   0.2276   0.3303
    48  -0.0000   0.0000   0.0000  -0.1553  -0.0036   0.0113   0.3349  -0.2068  -0.1942  -0.2348
    49   0.0000  -0.0000   0.0000   0.1195   0.0090   0.0026  -0.2575   0.1192  -0.3813   0.1806
    50  -0.0000   0.0000  -0.0000  -0.1586   0.0089   0.0055   0.3421   0.2571   0.2046  -0.2397
    51  -0.0000  -0.0000  -0.0000  -0.0239   0.0104  -0.0033   0.0516  -0.3942   0.0804  -0.0361
    52   0.0000  -0.0000  -0.0000   0.8717   0.0002   0.0000  -1.2785   0.0000  -0.0001   0.7606
    53   0.0514  -0.1203   0.0514  -0.1265  -0.2533  -0.5156  -0.1537   0.3608   0.1162   0.1308
    54  -0.2794  -0.4358  -0.2796   0.0544   0.2320   0.1876   0.0661   0.3962   0.0444  -0.0562
[...]
   58    1.11198824128723E-15 -1.54839613285512E-15 -3.57287221591221E-15 -1.17227030559390E-16
   59   -2.28702622703629E-15  1.21783347837613E-15  3.58289430974412E-15 -3.42695512063813E-15
   60   -5.14267583595976E-16  4.60384429689341E-16  2.19971915303100E-16  9.11212633667759E-17
   61    6.26239409992364E-16 -3.51645728052623E-17 -4.16635177963656E-16 -2.37914614224788E-16
   62    5.91461931243997E-16 -4.04004222654200E-16 -3.93166012577608E-16  4.89058612536267E-16
   63   -1.49012746586408E-15  1.15445847326257E-15  2.52575738102223E-15 -1.76985162636534E-15

 column          49                    50                    51                    52
 row
   49    1.00000000000000E+00
   50    2.01244525059076E-15  9.99999999999998E-01
   51    1.17417570620875E-15  3.09046323552836E-17  1.00000000000000E+00
   52    5.90768211260195E-16 -7.17023554246132E-16  2.47299739280366E-17  9.99999999999998E-01
   53    3.39889757777680E-16 -2.25369484528712E-15 -9.21920109502898E-16 -3.52778211103102E-16
   54   -3.00157888029616E-15 -2.35469854792863E-15 -3.67979100108730E-15  4.19243192408252E-17
   55   -2.86199684948654E-15 -1.92756352804412E-15 -3.89944068983714E-15 -5.60576992404737E-18
   56    1.22103780401559E-15 -2.95121440713154E-15 -1.83244725528831E-15 -6.78287043502299E-17
   57   -3.36388123573731E-15  1.60046409515579E-15 -1.88455778099458E-15  1.79245724166166E-16
   58    2.78402365587070E-16  2.40944027560643E-15  1.72594090898408E-15  1.07934867369774E-16
   59    1.97027105663049E-15 -3.72435008248501E-15 -7.54504338645661E-16 -3.28152422227578E-16
   60    3.25094209771516E-16 -6.93315102052484E-16  1.89001426136167E-16  1.17987284981198E-15
   61   -1.42242242832415E-17 -2.36291275581375E-16  5.15846294190980E-16 -9.30934948811628E-16
   62   -3.47334330351098E-17 -1.32741921296010E-16  2.07243445325591E-16 -8.40558227405488E-16
   63    1.70610053862319E-15 -2.04437161643867E-15 -6.34529321447141E-16  1.16746889933239E-14

 column          53                    54                    55                    56
 row
   53    1.00000000000000E+00
   54    1.74338048356999E-15  1.00000000000001E+00
   55    1.58237814716357E-15  9.24397124284462E-16  1.00000000000001E+00
   56   -9.80723863088591E-17  4.81956328623812E-15  4.86804231121145E-15  1.00000000000000E+00
   57    2.67454893554238E-15  1.36963170869145E-15  2.23445779978551E-15  4.75314910044003E-15
   58    5.66550904023484E-16  1.40222574826004E-15  1.04096124599370E-16 -1.75287962720120E-16
   59   -2.66109582887849E-15  2.39735605359465E-15 -9.66567826198374E-16 -4.88690248495418E-15
   60   -2.55773562763816E-16  4.70329602341731E-16 -2.55088278367901E-16 -3.16395181403214E-16
   61    7.84737485632009E-16 -6.59150901627709E-16  5.85302104992313E-16  7.78601261324744E-16
   62    1.25106395732546E-16 -4.78407173224544E-16  5.62226324371718E-17  6.80622736854352E-18
   63   -6.57785458046956E-16  3.13713898608681E-16 -1.71384834899172E-16 -9.49219002011059E-16

 column          57                    58                    59                    60
 row
   57    9.99999999999995E-01
   58   -1.14125068851603E-15  9.99999999999997E-01
   59    3.04486935780179E-15  4.24085108020466E-15  9.99999999999999E-01
   60    3.94140735741661E-16  6.53448861115250E-16 -9.60696298446355E-16  1.00000000000000E+00
   61    2.39487130891365E-16  3.84132935590733E-16  6.74880700504915E-16 -1.04088935448589E-15
   62   -6.62339001292276E-16 -2.15798107515945E-16 -4.81280203102512E-16 -7.56145888497440E-16
   63    1.23436417337475E-15  8.26920996954694E-16 -1.50595681758237E-15  4.41205232071251E-15

 column          61                    62                    63
 row
   61    9.99999999999999E-01
   62    1.26452246382438E-15  9.99999999999998E-01
   63   -2.53638256231259E-15 -2.53649098252984E-15  1.00000000000003E+00


 SFO contributions (%) per orbital
 (multiplication by the orbital occupation yields the SFO Gross Populations)

 Orb.:        1      2      3      4      5      6      7      8      9     10     11     12     13     14
 occup:     2.00   2.00   2.00   2.00   2.00   2.00   2.00   2.00   2.00   2.00   0.00   0.00   0.00   0.00
 CF+SFO     ----   ----   ----   ----   ----   ----   ----   ----   ----   ----   ----   ----   ----   ----
 ------
      1:    0.00 100.00  -0.00   0.00  -0.00  -0.00   0.00   0.00   0.00  -0.00   0.00   0.00   0.00  -0.00
      2:    0.00   0.00  50.99  48.35  -0.04  -0.00   0.00   0.28   0.00   0.00   0.20  -0.15   0.13   0.02
      3:    0.00   0.00   0.30   1.41  57.02   0.00   0.00  36.68   0.00   0.00  -2.25   1.14   3.89   2.22
      4:    0.00   0.00   0.00   0.00   0.00  18.75  31.58   0.00  21.55  27.99  -0.00  -0.00   0.00   0.00
      5:    0.00   0.00   0.00  -0.00   0.00  31.58  18.75   0.00  27.99  21.55   0.00  -0.00  -0.00   0.00
      6:    0.01  -0.00   1.01   1.41  -0.02  -0.00   0.00  10.40  -0.00   0.00 -45.85 -11.31 124.97  25.44
      7:    0.00   0.00   0.08   0.25   0.01   0.00  -0.00   0.05   0.00   0.00  29.61  61.31  -0.34   8.09
      8:   -0.00  -0.00  -0.08  -0.08   0.71   0.00   0.00   3.64   0.00   0.00 -17.46  -8.91  48.79  57.56
     14:    0.00  -0.00   0.09   0.39   0.01  -0.00   0.00   0.21  -0.00  -0.00   0.19   0.43   2.62   1.73
     15:    0.00  -0.00  -0.04  -0.13  -0.04  -0.00  -0.00  -0.23  -0.00  -0.00   3.91   2.40   4.27  -1.15
     20:    0.00   0.00  -0.00  -0.00  -0.00   0.00  -0.00  -0.02   0.00  -0.00   0.83   0.76   3.13  -0.25
     38:   99.98   0.00  -0.00  -0.00   0.00   0.00   0.00   0.00   0.00  -0.00   0.00  -0.00  -0.00   0.00
     39:    0.00   0.00  47.05  47.96   2.09  -0.00   0.00   0.14  -0.00  -0.00   0.71   0.13  -1.41   1.08
     40:   -0.00   0.00   0.49  -0.03  25.48   3.18  14.81  29.96   2.38  15.80  -0.37   0.18  -0.42   6.82
     41:   -0.00   0.00   0.17  -0.01   8.76   5.00  33.40  10.31   6.83  32.00  -0.13   0.06  -0.14   2.34
     42:   -0.00   0.00   0.11  -0.01   5.96  40.93   0.90   7.00  40.44   1.85  -0.09   0.04  -0.10   1.59
     43:    0.00   0.00  -0.12   0.35   0.02  -0.00   0.00   0.78   0.00  -0.00 133.74  58.52 -69.00   1.45
     45:    0.00   0.00  -0.12   0.10  -0.36  -0.00  -0.04   0.58   0.00   0.07  -0.58  -3.97  -9.36  -3.80
     46:    0.00   0.00  -0.05   0.04  -0.15  -0.01  -0.09   0.24   0.02   0.16  -0.25  -1.68  -3.96  -1.61
     52:   -0.00  -0.00   0.01  -0.03  -0.04  -0.00   0.00   0.03  -0.00  -0.00  -2.21   1.19  -3.31  -0.82


 Summation over all MOs, multiplied by occupation: Total SFO Gross Populations in this Irrep
 ===========================================================================================

     2.00    1.99    1.91    2.00    2.00    0.26    0.01    0.08    0.01    0.01    0.01    0.01
     0.00    0.01   -0.01   -0.00    0.00    0.00    0.00   -0.00   -0.00   -0.00    0.00    0.00
     0.00    0.00    0.00   -0.00   -0.00   -0.00    0.00    0.00    0.00    0.00    0.00    0.00
     0.00    2.00    1.94    1.84    1.93    1.94    0.02    0.00    0.00    0.00    0.00    0.00
     0.00    0.00    0.00   -0.00    0.00    0.00    0.00    0.00    0.00    0.00    0.00    0.00
     0.00    0.00   -0.00



 List of all MOs, ordered by energy, with the most significant SFO gross populations
 ===================================================================================

 Each percentage contribution in the table below corresponds to the indicated SFO.
 In general, a SFO may be a linear combination of several Fragment Orbitals on the same,
 or on symmetry-related Fragments. Only the first 'member' of such a combination is
 specified here. A full definition of all SFOs is given in an earlier part of the output.
 The numbering of the SFOs in this table does NOT include the Core Orbitals, and starts
 from one for each symmetry representation, as in the SFO definition list earlier.

       E(eV)  Occ       MO           %     SFO (first member)   E(eV)  Occ   Fragment
 -------------------------------------------------------------------------------------

     -19.611  2.00     4 A         48.35%     2 A             -28.410  2.00     1 FH
                                   47.96%     2 A             -15.093  2.00     2 F
                                    1.41%     6 A              -2.627  0.00     1 FH
                                    1.41%     3 A             -12.233  2.00     1 FH
      -4.917  2.00     5 A         57.02%     3 A             -12.233  2.00     1 FH
                                   25.48%     3 A               2.944  2.00     2 F
                                    8.76%     4 A               2.944  2.00     2 F
                                    5.96%     5 A               2.944  2.00     2 F
                                    2.09%     2 A             -15.093  2.00     2 F
      -1.448  2.00     6 A         40.93%     5 A               2.944  2.00     2 F
                                   31.58%     5 A              -9.143  2.00     1 FH
                                   18.75%     4 A              -9.143  2.00     1 FH
                                    5.00%     4 A               2.944  2.00     2 F
                                    3.18%     3 A               2.944  2.00     2 F
      -1.448  2.00     7 A         33.40%     4 A               2.944  2.00     2 F
                                   31.58%     4 A              -9.143  2.00     1 FH
                                   18.75%     5 A              -9.143  2.00     1 FH
                                   14.81%     3 A               2.944  2.00     2 F
      -1.095  2.00     8 A         36.68%     3 A             -12.233  2.00     1 FH
                                   29.96%     3 A               2.944  2.00     2 F
                                   10.40%     6 A              -2.627  0.00     1 FH
                                   10.31%     4 A               2.944  2.00     2 F
                                    7.00%     5 A               2.944  2.00     2 F
                                    3.64%     8 A               3.529  0.00     1 FH
      -0.856  2.00     9 A         40.44%     5 A               2.944  2.00     2 F
                                   27.99%     5 A              -9.143  2.00     1 FH
                                   21.55%     4 A              -9.143  2.00     1 FH
                                    6.83%     4 A               2.944  2.00     2 F
                                    2.38%     3 A               2.944  2.00     2 F
      -0.856  2.00    10 A         32.00%     4 A               2.944  2.00     2 F
                                   27.99%     4 A              -9.143  2.00     1 FH
                                   21.55%     5 A              -9.143  2.00     1 FH
                                   15.80%     3 A               2.944  2.00     2 F
                                    1.85%     5 A               2.944  2.00     2 F
       5.627  0.00    11 A        133.74%     6 A               7.773  0.00     2 F
                                  -45.85%     6 A              -2.627  0.00     1 FH
                                   29.61%     7 A               1.896  0.00     1 FH
                                  -17.46%     8 A               3.529  0.00     1 FH
                                    3.91%    15 A              29.563  0.00     1 FH
                                   -2.25%     3 A             -12.233  2.00     1 FH
                                   -2.21%    15 A              55.515  0.00     2 F
       7.696  0.00    12 A         61.31%     7 A               1.896  0.00     1 FH
                                   58.52%     6 A               7.773  0.00     2 F
                                  -11.31%     6 A              -2.627  0.00     1 FH
                                   -8.91%     8 A               3.529  0.00     1 FH
                                   -3.97%     8 A              22.092  0.00     2 F
                                    2.40%    15 A              29.563  0.00     1 FH
                                   -1.68%     9 A              22.092  0.00     2 F
                                    1.19%    15 A              55.515  0.00     2 F
                                    1.14%     3 A             -12.233  2.00     1 FH
      10.156  0.00    13 A        124.97%     6 A              -2.627  0.00     1 FH
                                  -69.00%     6 A               7.773  0.00     2 F
                                   48.79%     8 A               3.529  0.00     1 FH
                                   -9.36%     8 A              22.092  0.00     2 F
                                    4.27%    15 A              29.563  0.00     1 FH
                                   -3.96%     9 A              22.092  0.00     2 F
                                    3.89%     3 A             -12.233  2.00     1 FH
                                   -3.31%    15 A              55.515  0.00     2 F
                                    3.13%    20 A              50.287  0.00     1 FH
                                    2.62%    14 A              24.831  0.00     1 FH
                                   -1.41%     2 A             -15.093  2.00     2 F



 =======================================================================
 Electrostatic potential at the Nuclei due to electrons and other nuclei
 =======================================================================
  
         Atom                  Potential
         ----                  ---------
     1)   F                  26.92790781
     2)   H                   1.23415897
     3)   F                  26.92787552
 
 
 ========================
 No memory problems found
 ========================
 
 Maximum number of active allocate calls:         530
 
 *******************************************************************************

                             A D F   E X I T
 NORMAL TERMINATION



 =================
 Timing Statistics
 =================
  
 Total Used :                     CPU=        2.99      System=        0.10     Elapsed=        3.30

 Calls  Section                     ( Mean, Percentage )
 ---------------------------------------------------------------------------------------------------
     3  ><      ................      0.00    0.00             0.00    0.98             0.00    0.02
     1  INIT    ................      0.42   14.00             0.02   18.63             0.45   13.51
     1  GEOMET  ................      0.03    1.14             0.00    3.92             0.24    7.21
     1  FRAGM   ................      0.01    0.37             0.01    5.88             0.02    0.51
     1  INPUTA  ................      0.00    0.00             0.00    0.00             0.00    0.01
     1  ATDEN   ................      0.00    0.10             0.00    0.00             0.00    0.11
     1  MAINSY  ................      0.01    0.20             0.00    0.98             0.01    0.21
     1  SYMFIT  ................      0.00    0.03             0.00    0.98             0.00    0.05
     1  CORORT  ................      0.00    0.00             0.00    0.00             0.00    0.01
     1  SYMORB  ................      0.00    0.07             0.00    0.00             0.00    0.07
     1  CLSMAT  ................      0.01    0.33             0.00    0.98             0.01    0.33
     1  ORTHON  ................      0.00    0.10             0.00    1.96             0.01    0.16
     1  GENPT   ................      0.07    2.24             0.00    0.98             0.07    2.06
     1  PTBAS   ................      0.01    0.50             0.00    0.00             0.01    0.43
    11  FOCKY   ................      0.06   22.53             0.00    7.84             0.06   20.49
    11  FOCKTR  ................      0.00    0.07             0.00    0.00             0.00    0.30
    11  SDIIS   ................      0.00    0.87             0.00    1.96             0.00    0.81
     1  COREPS  ................      0.05    1.74             0.00    0.98             0.05    1.60
     1  TOTEN   ................      0.15    5.11             0.00    0.98             0.15    4.67
     1  POPAN   ................      0.00    0.10             0.00    0.00             0.00    0.07
     1  DEBYE   ................      0.00    0.10             0.00    0.00             0.00    0.09
     1  INPUTE  ................      0.00    0.00             0.00    0.00             0.00    0.01
     1  SYMORE  ................      0.00    0.03             0.00    0.00             0.00    0.02
     1  METS    ................      0.00    0.03             0.00    0.00             0.00    0.02
     1  CETS    ................      0.00    0.17             0.00    0.98             0.01    0.20
     1  POPUL   ................      1.48   49.53             0.05   50.00             1.53   46.40
     1  EXIT PROCEDURE .........      0.02    0.64             0.00    1.96             0.02    0.64


 Currently Open Files (EXIT00)
 ====================

 Unit    Access Format  Status   Type       Ident (file)
 -------------------------------------------------------
   3      SEQ    FORM   TRANSP  NORMAL      LOGFILE
                                          ( logfile )


 Buffered I/O statistics
 =======================
 Memory available:                     67108864
 Number of records fitting in memory:     16131
 Input :   1.6% of                        38985  *4k bytes
 Output:  11.9% of                         3077  *4k bytes
 Records from serial files evicted:           0
                    others evicted:           0
 Hash table lookups:     109324 with          0 conflicts (  0.00%)

 ***************************************************************************************************
 (LOGFILE)
 <May09-2019> <17:23:41>  ADF 2017  RunTime: May09-2019 17:23:41  Nodes: 1  Procs: 12
 <May09-2019> <17:23:41>  *** (NO TITLE) ***
 <May09-2019> <17:23:41>  RunType   : SINGLE POINT
 <May09-2019> <17:23:41>  Net Charge: -1 (Nuclei minus Electrons)
 <May09-2019> <17:23:41>  Symmetry  : NOSYM
 <May09-2019> <17:23:41>  >>>> FRAGM
  Coordinates
    Atom         X           Y           Z   (Angstrom)
    1.F        -3.569077    0.026568    0.140371
    2.H        -2.626797    0.379303    0.730098
    3.F        -1.684622    0.731998    1.319760
 <May09-2019> <17:23:41>  >>>> CORORT
 <May09-2019> <17:23:41>  >>>> CLSMAT
 <May09-2019> <17:23:41>  >>>> ORTHON
 <May09-2019> <17:23:41>  >>>> GENPT
 <May09-2019> <17:23:42>  Block Length= 128
 <May09-2019> <17:23:42>  >>>> PTBAS
 <May09-2019> <17:23:42>  >>>> CYCLE
 <May09-2019> <17:23:42>              |Error|         MaxErr       Wt(A-DIIS)
 <May09-2019> <17:23:42>      1      0.87066511      0.64659801
 <May09-2019> <17:23:42>      2      0.37199114      0.10946235    100.0
 <May09-2019> <17:23:42>      3      0.14703626      0.04641103    100.0
 <May09-2019> <17:23:42>      4      0.34649309      0.10291940    100.0
 <May09-2019> <17:23:42>      5      0.05377666      0.01693339     16.1
 <May09-2019> <17:23:42>      6      0.01651141      0.00498359      4.0
 <May09-2019> <17:23:42>      7      0.00224341      0.00059476      0.0
 <May09-2019> <17:23:42>      8      0.00018741      0.00004107      0.0
 <May09-2019> <17:23:42>      9      0.00002076      0.00000568      0.0
 <May09-2019> <17:23:42>     10      0.00000290      0.00000097      0.0
 <May09-2019> <17:23:42>  SCF converged
 <May09-2019> <17:23:42>     11      0.00000022      0.00000008      0.0
 <May09-2019> <17:23:42>  >>>> TOTEN
 <May09-2019> <17:23:42>  >>>> POPAN
 <May09-2019> <17:23:42>  >>>> DEBYE
 <May09-2019> <17:23:42>  >>>> AMETS
 <May09-2019> <17:23:44>   Bond Energy          -0.11788682 a.u.
 <May09-2019> <17:23:44>   Bond Energy          -3.20786370 eV
 <May09-2019> <17:23:44>   Bond Energy         -73.98       kcal/mol
 <May09-2019> <17:23:44>  >>>> POPUL
 <May09-2019> <17:23:44>  NORMAL TERMINATION
 <May09-2019> <17:23:44>  END
