
Create H   file=TZ2P-H
XC
  GGA blyp
  DISPERSION Grimme3 BJDAMP
End
End Input

 *******************************************************************************
 *                                                                             *
 *  -------------------------------------                                      *
 *   Amsterdam Density Functional  (ADF)         development version           *
 *  -------------------------------------                                      *
 *                                               r61132 2017-09-08             *
 *                                                                             *
 *                                                                             *
 *                              =================                              *
 *                              |               |                              *
 *                              |     A D F     |                              *
 *                              |               |                              *
 *                              =================                              *
 *                                                                             *
 *                                                                             *
 *   Online information and documentation:  https://www.scm.com/support/       *
 *   E-mail:  support@scm.com   info@scm.com                                   *
 *                                                                             *
 *   Scientific publications using ADF results must be properly referenced     *
 *   See the User Manuals (or the web site) for recommended citations          *
 *   The terms and conditions of the End User License Agreement apply to       *
 *   the use of ADF, https://www.scm.com/license-terms/                        *
 *                                                                             *
 **********************  x86_64_linux_intel / intelmpi  ************************
 
 Licensed to: VU/FEW (+ SARA) / ALGEMEEN / Amsterdam / THE NETHERLANDS
 SCM User ID: u7668
  
 ADF development version  RunTime: Apr18-2019 14:07:31  Nodes: 1  Procs: 1

 Temporary files are created in /local/datastore0/tcst25/186721/kid_0.PYiFVk

 Hydrogen (TZ2P)



 ===========================
 A T T A C H E D   F I L E S
 ===========================
  
 CREATE - Data File:    TZ2P-H
                        Hydrogen (TZ2P)



 ===============================
 M O D E L   P A R A M E T E R S
 ===============================
  
 DENSITY FUNCTIONAL POTENTIAL (scf)
    LDA:                               Exchange only                           == Not Default ==
    Gradient Corrections:              Becke88 LYP                             == Not Default ==

 SPIN  (restricted / unrestr.)
    Molecule:                          Restricted                               

 OTHER ASPECTS
    Relativistic Corrections:          ---                                      

    Nuclear Charge Density Model:      Point Charge Nuclei                      
    Core Treatment:                    Frozen Orbital(s)                        

    Hyperfine or Zeeman Interaction:   ---                                      

 Settings for Grimme 3 dispersion correction

      damping                        BJ
      s6                          1.000
      a1                          0.430
      s8                          2.700
      a2                          4.236

 Other (technical) parameters

      alpha                      14.000
      version                         4
 



 =====================================
 S Y M M E T R Y ,   E L E C T R O N S
 =====================================
  
 Symmetry: ATOM

 Irreducible Representations, including subspecies
 -------------------------------------------------
 S
 P:x  P:y  P:z
 D:z2  D:x2-y2  D:xy  D:xz  D:yz
 F:z3  F:z  F:xyz  F:z2x  F:z2y  F:x  F:y


 Configuration of Valence Electrons
 ==================================

          Occupation Numbers
          -------------------------------------------------
 S        1
 P        0
 D        0
 F        0
          -------------------------------------------------

 Total:   1

 Net Charge: 0 (Nuclei minus Electrons)

 Preset values for MO occupations will be applied through SCF cycle no. 1000000
 Thereafter, the program will assign electrons to MOs that are spatially
 similar to the occupied MOs in a "reference" cycle ("KeepOrbitals").
 The reference cycle is always the PREVIOUS cycle: it will evolve with
 the SCF procedure.



 ================================
 (Slater-type)  F U N C T I O N S  ***  (Basis and Fit)  ***
 ================================
  

 Atom Type    1  (H)
 ==============

 Valence Basis Sets:   5
 -----------------------
   1 S    0.690000
   1 S    0.920000
   1 S    1.580000
   2 P    1.250000
   3 D    2.500000


 BAS: List of all Elementary Cartesian Basis Functions
 =====================================================

 The numbering in the list below (to the right of the function characteristics) is referred
 to in print-outs of MO eigenvectors and Mulliken populations in the BAS representation
 (as contrasted to the SFO representation).

 Notes:
 1. The functions are characterized by a polynomial prefactor (powers of x,y,z and r) and
    an exponential decay factor alpha.
 2. Since the basis sets are specific for an atom TYPE, the individual functions occur on
    all atoms of that type.
 3. The word 'Core' in the left margin signals that it is a Core Function (CF) : not a
    degree of freedom in the valence set, but only used to ensure orthogonalization of
    the other valence basis functions on the frozen Core Orbitals.


 (power of) X  Y  Z  R     Alpha  on Atom
            ==========     =====     ==========

 H                                    1
                                  ---------------------------------------------------------------------------
            0  0  0  0     0.690      1
            0  0  0  0     0.920      2
            0  0  0  0     1.580      3
            1  0  0  0     1.250      4
            0  1  0  0     1.250      5
            0  0  1  0     1.250      6
            2  0  0  0     2.500      7
            1  1  0  0     2.500      8
            1  0  1  0     2.500      9
            0  2  0  0     2.500     10
            0  1  1  0     2.500     11
            0  0  2  0     2.500     12

 Total number of charge fitting functions (nprimf)        50
 Total number of Cartesian basis functions (naos)         12
 Total number of Cartesian core functions  (ncos)          0



 BAS: List of all Elementary Cartesian Basis Functions
 =====================================================

 The numbering in the list below (to the right of the function characteristics) is referred
 to in print-outs of MO eigenvectors and Mulliken populations in the BAS representation
 (as contrasted to the SFO representation).

 Notes:
 1. The functions are characterized by a polynomial prefactor (powers of x,y,z and r) and
    an exponential decay factor alpha.
 2. Since the basis sets are specific for an atom TYPE, the individual functions occur on
    all atoms of that type.
 3. The word 'Core' in the left margin signals that it is a Core Function (CF) : not a
    degree of freedom in the valence set, but only used to ensure orthogonalization of
    the other valence basis functions on the frozen Core Orbitals.


 (power of) X  Y  Z  R     Alpha  on Atom
            ==========     =====     ==========

 H                                    1
                                  ---------------------------------------------------------------------------
            0  0  0  0     0.690      1
            0  0  0  0     0.920      2
            0  0  0  0     1.580      3
            1  0  0  0     1.250      4
            0  1  0  0     1.250      5
            0  0  1  0     1.250      6
            2  0  0  0     2.500      7
            1  1  0  0     2.500      8
            1  0  1  0     2.500      9
            0  2  0  0     2.500     10
            0  1  1  0     2.500     11
            0  0  2  0     2.500     12
1
 ***************************************************************************************************



                                              ***********************
                                              *  T E C H N I C A L  *
                                              ***********************
  



 =============================================================
 P A R A L L E L I Z A T I O N  and  V E C T O R I Z A T I O N
 =============================================================
  
 Nr of parallel processes:                                1
 Maximum vector length in NumInt loops:                 128

 IO buffersize (Mb):                                     64.000000



 =====================
 S C F   U P D A T E S
 =====================
  
 Max. nr. of cycles:                               300
 Convergence criterion:                              0.0000000100
   secondary criterion:                              0.0000000100

 Mix parameter (when DIIS does not apply):           0.2000000000
 Special mix parameter for the first cycle:          1.0000000000
 Mixed ADIIS+DIIS will be used
    Max number of expansion vectors:                10
    Pure ADIIS when Max([F,P]) is above              0.1000000000
    Pure DIIS when Max([F,P]) is below               0.0010000000
 Automatic ElectronSmearing (in case of problematic SCF convergence) disabled



 =================
 P R E C I S I O N  ***  (General: NumInt, NeglectFunctionTails, ...)  ***
 =================
  

 NumInt:           Target precision:                12.0000000000
 -------           Initial precision:               10.0000000000
                   Min. precision (optimization):   10.0000000000

 Neglect Functions:          Basis functions:        0.1000000000E-13
 ------------------          Fit functions:          0.1000000000E-13



 ===========================
 L I N E A R   S C A L I N G
 ===========================
  

 Cut-off radii density fit:                        0.1000000000E-97
 Overlap cut-off criterion AO matrix elements:     0.1000000000E-97
 Cut-offs for Coulomb potential and fitted density:0.1000000000E-97
 Cut-off criterion for Coulomb multipole terms:    0.1000000000E-97
 Progressive Convergence parameter:                 0.000000000    
1
 ***************************************************************************************************



                                            ***************************
                                            *  C O M P U T A T I O N  *
                                            ***************************
  

 Number of elements of the density matrix on this node (used, total):        78        78



 ===========================================
 Numerical Integration : Fuzzy Cells (Becke)
 ===========================================
  
 Becke grid quality: VERYGOOD       
  
 Lebedev angular grid order:             min:  13 max:  41
 Nr. of radial points:                   min:  64 max:  64

 Total nr. of points:         64
 Nr. of blocks:                1
 Block length:                64
 Nr. of dummy points:          0


 Test of Precision of the Numerical Integration Grid
 ===================================================

 Integral of the Total Core Density:                   0.00000000000000



 ========================
 Density Fitting (zlmFit)
 ========================
  
 ZlmFit Fit Quality: VERYGOOD       
  
 Max L-expansion:                        min:   0 max:   0
 Nr. of radial interpolation points:     min: 130 max: 130



 =====
 S C F  ***  ScaSCF  ***
 =====
  

 CYCLE    1
 SCF Error: norm([F,P])=      0.000000000000, max([F,P])=      0.000000000000
 orbitals (Q,E):
 ---------------
 S :1...3            ( 1.00    -0.5000)  ( 0.00    -0.0900)  ( 0.00     1.2939)
 P :1...1            ( 0.00     0.1562)
 D :1...1            ( 0.00     2.2917)

 CYCLE    2
 SCF Error: norm([F,P])=      0.031002856008, max([F,P])=      0.026444239384
 orbitals (Q,E):
 ---------------
 S :1...2            ( 1.00    -0.2236)  ( 0.00     0.0977)
 P :1...1            ( 0.00     0.4190)
 D :1...1            ( 0.00     2.5863)

 CYCLE    3
  SDIIS (wt  0.000):  0.2055  0.7945
 A-DIIS (wt  1.000):  0.0000  1.0000
  DIIS coefficients:  0.0000  1.0000
 SCF Error: norm([F,P])=      0.009580013340, max([F,P])=      0.009328518993
 orbitals (Q,E):
 ---------------
 S :1...2            ( 1.00    -0.2440)  ( 0.00     0.0860)
 P :1...1            ( 0.00     0.4030)
 D :1...1            ( 0.00     2.5655)

 CYCLE    4
  SDIIS (wt  0.987):  0.1949  0.8051
 A-DIIS (wt  0.013):  0.0000  1.0000
  DIIS coefficients:  0.1923  0.8077
 SCF Error: norm([F,P])=      0.002320932075, max([F,P])=      0.002286403159
 orbitals (Q,E):
 ---------------
 S :1...2            ( 1.00    -0.2400)  ( 0.00     0.0880)
 P :1...1            ( 0.00     0.4062)
 D :1...1            ( 0.00     2.5697)

 CYCLE    5
  SDIIS (wt  1.000):  0.0132  0.9868
  DIIS coefficients:  0.0132  0.9868
 SCF Error: norm([F,P])=      0.000031553206, max([F,P])=      0.000029840661
 orbitals (Q,E):
 ---------------
 S :1...2            ( 1.00    -0.2400)  ( 0.00     0.0880)
 P :1...1            ( 0.00     0.4062)
 D :1...1            ( 0.00     2.5697)

 CYCLE    6
  SDIIS (wt  1.000): -0.0314  1.0314
  DIIS coefficients: -0.0314  1.0314
 SCF Error: norm([F,P])=      0.000000959925, max([F,P])=      0.000000913629
 orbitals (Q,E):
 ---------------
 S :1...2            ( 1.00    -0.2400)  ( 0.00     0.0880)
 P :1...1            ( 0.00     0.4062)
 D :1...1            ( 0.00     2.5697)

 CYCLE    7
  SDIIS (wt  1.000):  0.0045  0.9955
  DIIS coefficients:  0.0045  0.9955
 SCF Error: norm([F,P])=      0.000000004387, max([F,P])=      0.000000004212
 orbitals (Q,E):
 ---------------
 S :1...2            ( 1.00    -0.2400)  ( 0.00     0.0880)
 P :1...1            ( 0.00     0.4062)
 D :1...1            ( 0.00     2.5697)

 SCF CONVERGED

 CYCLE    8
1
 ***************************************************************************************************



                                                *******************
                                                *  R E S U L T S  *
                                                *******************
  
 *** Setting up for NEW gradients in Focky
 *** Using FIT density in Focky

 Orbital Energies, per Irrep and Spin:
 ======================================
                        Occup              E (au)              E (eV)       Diff (eV) with prev. cycle
                        -----      --------------------        ------       --------------------------
 S
               1        1.000     -0.24003723730291E+00        -6.532              -1.36E-09
               2        0.000      0.87974178151410E-01         2.394
               3        0.000      0.15021841144445E+01        40.877
 P
               1        0.000      0.40615190499536E+00        11.052
 D
               1        0.000      0.25696970808913E+01        69.925


 Partially Occupied:
               1 S                -0.24003723730291E+00
  
 LUMO :        2 S                 0.87974178151410E-01
  


 Orbital Energies, all Irreps
 ========================================

 Irrep        no.  (spin)   Occup              E (au)                E (eV)
 ---------------------------------------------------------------------------
 S             1             1.00       -0.24003723730291E+00        -6.5317
 S             2             0.00        0.87974178151410E-01         2.3939
 P             1             0.00        0.40615190499536E+00        11.0520
 S             3             0.00        0.15021841144445E+01        40.8765
 D             1             0.00        0.25696970808913E+01        69.9250


 All Electron Calculation, thus no Orbital Energies of the Core Orbitals are calculated



 =======================================
 M U L L I K E N   P O P U L A T I O N S
 =======================================
  
 The survey below gives for each atom:
 a) the total charge (Z minus electrons)
 b) the net spin polarization (nr of electrons spin-A minus spin-B)
 c) for each spin the atomic electron valence density (integrated) per L-value.

 Atom              Charge    Spin density          S         P         D         F
 ----              ------    ------------       ------    ------    ------    ------
 1 H              -0.0000                       1.0000    0.0000    0.0000    0.0000

 Populations of individual BAS functions
 ----------------------------------------
 1 H            0.2458  0.6250  0.1292  0.0000  0.0000  0.0000  0.0000  0.0000  0.0000  0.0000
                0.0000  0.0000

 Gross Charges per Atom (Z minus electrons)
 ==========================================
            -0.0000
 Net Total: -0.00000000



 =======================================================================
 Electrostatic potential at the Nuclei due to electrons and other nuclei
 =======================================================================
  
         Atom                  Potential
         ----                  ---------
     1)   H                   0.94873442
 
 
 ========================
 No memory problems found
 ========================
 
 Maximum number of active allocate calls:         363
 
 *******************************************************************************

                             A D F   E X I T
 NORMAL TERMINATION



 =================
 Timing Statistics
 =================
  
 Total Used :                     CPU=        0.30      System=        0.03     Elapsed=        0.33

 Calls  Section                     ( Mean, Percentage )
 ---------------------------------------------------------------------------------------------------
     3  ><      ................      0.00    0.34             0.00    0.00             0.00    0.25
     1  INIT    ................      0.01    2.35             0.02   65.38             0.03    8.17
     1  GEOMET  ................      0.00    1.68             0.00   11.54             0.01    2.59
     1  INPUTA  ................      0.00    0.67             0.00    0.00             0.00    0.45
     1  MAINSY  ................      0.00    1.34             0.00    3.84             0.01    1.73
     1  SYMFIT  ................      0.00    0.00             0.00    3.85             0.00    0.24
     1  CORORT  ................      0.00    0.00             0.00    0.00             0.00    0.08
     1  SYMORB  ................      0.00    0.34             0.00    0.00             0.00    0.16
     1  CLSMAT  ................      0.00    1.34             0.00    0.00             0.00    1.21
     1  ORTHON  ................      0.00    0.34             0.00    0.00             0.00    0.38
     1  GENPT   ................      0.01    3.02             0.00    3.85             0.01    2.98
     1  PTBAS   ................      0.00    0.34             0.00    7.69             0.00    1.03
     8  FOCKY   ................      0.03   69.80             0.00    3.85             0.03   64.07
     8  FOCKTR  ................      0.00    1.68             0.00    0.00             0.00    1.62
     8  SDIIS   ................      0.00    4.36             0.00    0.00             0.00    3.59
     1  COREPS  ................      0.01    5.03             0.00    0.00             0.02    4.83
     1  POPAN   ................      0.00    1.34             0.00    0.00             0.00    1.15
     1  DEBYE   ................      0.00    0.34             0.00    0.00             0.00    0.15
     1  EXIT PROCEDURE .........      0.02    5.70             0.00    0.00             0.02    5.33


 Currently Open Files (EXIT00)
 ====================

 Unit    Access Format  Status   Type       Ident (file)
 -------------------------------------------------------
   3      SEQ    FORM   TRANSP  NORMAL      LOGFILE
                                          ( logfile )


 Buffered I/O statistics
 =======================
 Memory available:                     67108864
 Number of records fitting in memory:     16131
 Input :   0.2% of                        17484  *4k bytes
 Output:  15.2% of                         1046  *4k bytes
 Records from serial files evicted:           0
                    others evicted:           0
 Hash table lookups:      44693 with          0 conflicts (  0.00%)

 ***************************************************************************************************
 (LOGFILE)
 <Apr18-2019> <14:07:31>  ADF development version  RunTime: Apr18-2019 14:07:31  Nodes: 1  Procs: 1
 <Apr18-2019> <14:07:31>  Hydrogen (TZ2P)
 <Apr18-2019> <14:07:31>  RunType   : CREATE
 <Apr18-2019> <14:07:31>  Net Charge: 0 (Nuclei minus Electrons)
 <Apr18-2019> <14:07:31>  Symmetry  : ATOM
  Coordinates
    Atom         X           Y           Z   (Angstrom)
    1.H         0.000000    0.000000    0.000000
 <Apr18-2019> <14:07:31>  >>>> CORORT
 <Apr18-2019> <14:07:31>  >>>> CLSMAT
 <Apr18-2019> <14:07:31>  >>>> ORTHON
 <Apr18-2019> <14:07:31>  >>>> GENPT
 <Apr18-2019> <14:07:31>  Block Length=  64
 <Apr18-2019> <14:07:31>  >>>> PTBAS
 <Apr18-2019> <14:07:31>  >>>> CYCLE
 <Apr18-2019> <14:07:31>              |Error|         MaxErr       Wt(A-DIIS)
 <Apr18-2019> <14:07:31>      1      0.00000000      0.00000000
 <Apr18-2019> <14:07:31>      2      0.03100286      0.02644424
 <Apr18-2019> <14:07:31>      3      0.00958001      0.00932852    100.0
 <Apr18-2019> <14:07:31>      4      0.00232093      0.00228640      1.3
 <Apr18-2019> <14:07:31>      5      0.00003155      0.00002984      0.0
 <Apr18-2019> <14:07:31>      6      0.00000096      0.00000091      0.0
 <Apr18-2019> <14:07:31>      7      0.00000000      0.00000000      0.0
 <Apr18-2019> <14:07:31>  SCF converged
 <Apr18-2019> <14:07:31>      8      0.00000000      0.00000000      0.0
 <Apr18-2019> <14:07:31>  >>>> POPAN
 <Apr18-2019> <14:07:31>  >>>> DEBYE
 <Apr18-2019> <14:07:31>  NORMAL TERMINATION
 <Apr18-2019> <14:07:31>  END

Create F   file=TZ2P-F
XC
  GGA blyp
  DISPERSION Grimme3 BJDAMP
End
End Input

 *******************************************************************************
 *                                                                             *
 *  -------------------------------------                                      *
 *   Amsterdam Density Functional  (ADF)         development version           *
 *  -------------------------------------                                      *
 *                                               r61132 2017-09-08             *
 *                                                                             *
 *                                                                             *
 *                              =================                              *
 *                              |               |                              *
 *                              |     A D F     |                              *
 *                              |               |                              *
 *                              =================                              *
 *                                                                             *
 *                                                                             *
 *   Online information and documentation:  https://www.scm.com/support/       *
 *   E-mail:  support@scm.com   info@scm.com                                   *
 *                                                                             *
 *   Scientific publications using ADF results must be properly referenced     *
 *   See the User Manuals (or the web site) for recommended citations          *
 *   The terms and conditions of the End User License Agreement apply to       *
 *   the use of ADF, https://www.scm.com/license-terms/                        *
 *                                                                             *
 **********************  x86_64_linux_intel / intelmpi  ************************
 
 Licensed to: VU/FEW (+ SARA) / ALGEMEEN / Amsterdam / THE NETHERLANDS
 SCM User ID: u7668
  
 ADF development version  RunTime: Apr18-2019 14:07:32  Nodes: 1  Procs: 1

 Temporary files are created in /local/datastore0/tcst25/186721/kid_0.to29cN

 Fluorine (TZ2P)



 ===========================
 A T T A C H E D   F I L E S
 ===========================
  
 CREATE - Data File:    TZ2P-F
                        Fluorine (TZ2P)



 ===============================
 M O D E L   P A R A M E T E R S
 ===============================
  
 DENSITY FUNCTIONAL POTENTIAL (scf)
    LDA:                               Exchange only                           == Not Default ==
    Gradient Corrections:              Becke88 LYP                             == Not Default ==

 SPIN  (restricted / unrestr.)
    Molecule:                          Restricted                               

 OTHER ASPECTS
    Relativistic Corrections:          ---                                      

    Nuclear Charge Density Model:      Point Charge Nuclei                      
    Core Treatment:                    Frozen Orbital(s)                        

    Hyperfine or Zeeman Interaction:   ---                                      

 Settings for Grimme 3 dispersion correction

      damping                        BJ
      s6                          1.000
      a1                          0.430
      s8                          2.700
      a2                          4.236

 Other (technical) parameters

      alpha                      14.000
      version                         4
 



 =====================================
 S Y M M E T R Y ,   E L E C T R O N S
 =====================================
  
 Symmetry: ATOM

 Irreducible Representations, including subspecies
 -------------------------------------------------
 S
 P:x  P:y  P:z
 D:z2  D:x2-y2  D:xy  D:xz  D:yz
 F:z3  F:z  F:xyz  F:z2x  F:z2y  F:x  F:y


 Configuration of Valence Electrons
 ==================================

          Occupation Numbers
          -------------------------------------------------
 S        2*2
 P        5
 D        0
 F        0
          -------------------------------------------------

 Total:   9

 Net Charge: 0 (Nuclei minus Electrons)

 Preset values for MO occupations will be applied through SCF cycle no. 1000000
 Thereafter, the program will assign electrons to MOs that are spatially
 similar to the occupied MOs in a "reference" cycle ("KeepOrbitals").
 The reference cycle is always the PREVIOUS cycle: it will evolve with
 the SCF procedure.



 ================================
 (Slater-type)  F U N C T I O N S  ***  (Basis and Fit)  ***
 ================================
  

 Atom Type    1  (F)
 ==============

 Valence Basis Sets:  10
 -----------------------
   1 S   10.880000
   1 S    7.700000
   2 S    3.240000
   2 S    1.940000
   2 S    0.740000
   2 P    4.540000
   2 P    2.300000
   2 P    1.240000
   3 D    2.000000
   4 F    3.000000


 BAS: List of all Elementary Cartesian Basis Functions
 =====================================================

 The numbering in the list below (to the right of the function characteristics) is referred
 to in print-outs of MO eigenvectors and Mulliken populations in the BAS representation
 (as contrasted to the SFO representation).

 Notes:
 1. The functions are characterized by a polynomial prefactor (powers of x,y,z and r) and
    an exponential decay factor alpha.
 2. Since the basis sets are specific for an atom TYPE, the individual functions occur on
    all atoms of that type.
 3. The word 'Core' in the left margin signals that it is a Core Function (CF) : not a
    degree of freedom in the valence set, but only used to ensure orthogonalization of
    the other valence basis functions on the frozen Core Orbitals.


 (power of) X  Y  Z  R     Alpha  on Atom
            ==========     =====     ==========

 F                                    1
                                  ---------------------------------------------------------------------------
            0  0  0  0    10.880      1
            0  0  0  0     7.700      2
            0  0  0  1     3.240      3
            0  0  0  1     1.940      4
            0  0  0  1     0.740      5
            1  0  0  0     4.540      6
            0  1  0  0     4.540      7
            0  0  1  0     4.540      8
            1  0  0  0     2.300      9
            0  1  0  0     2.300     10
            0  0  1  0     2.300     11
            1  0  0  0     1.240     12
            0  1  0  0     1.240     13
            0  0  1  0     1.240     14
            2  0  0  0     2.000     15
            1  1  0  0     2.000     16
            1  0  1  0     2.000     17
            0  2  0  0     2.000     18
            0  1  1  0     2.000     19
            0  0  2  0     2.000     20
            3  0  0  0     3.000     21
            2  1  0  0     3.000     22
            2  0  1  0     3.000     23
            1  2  0  0     3.000     24
            1  1  1  0     3.000     25
            1  0  2  0     3.000     26
            0  3  0  0     3.000     27
            0  2  1  0     3.000     28
            0  1  2  0     3.000     29
            0  0  3  0     3.000     30

 Total number of charge fitting functions (nprimf)        85
 Total number of Cartesian basis functions (naos)         30
 Total number of Cartesian core functions  (ncos)          0



 BAS: List of all Elementary Cartesian Basis Functions
 =====================================================

 The numbering in the list below (to the right of the function characteristics) is referred
 to in print-outs of MO eigenvectors and Mulliken populations in the BAS representation
 (as contrasted to the SFO representation).

 Notes:
 1. The functions are characterized by a polynomial prefactor (powers of x,y,z and r) and
    an exponential decay factor alpha.
 2. Since the basis sets are specific for an atom TYPE, the individual functions occur on
    all atoms of that type.
 3. The word 'Core' in the left margin signals that it is a Core Function (CF) : not a
    degree of freedom in the valence set, but only used to ensure orthogonalization of
    the other valence basis functions on the frozen Core Orbitals.


 (power of) X  Y  Z  R     Alpha  on Atom
            ==========     =====     ==========

 F                                    1
                                  ---------------------------------------------------------------------------
            0  0  0  0    10.880      1
            0  0  0  0     7.700      2
            0  0  0  1     3.240      3
            0  0  0  1     1.940      4
            0  0  0  1     0.740      5
            1  0  0  0     4.540      6
            0  1  0  0     4.540      7
            0  0  1  0     4.540      8
            1  0  0  0     2.300      9
            0  1  0  0     2.300     10
            0  0  1  0     2.300     11
            1  0  0  0     1.240     12
            0  1  0  0     1.240     13
            0  0  1  0     1.240     14
            2  0  0  0     2.000     15
            1  1  0  0     2.000     16
            1  0  1  0     2.000     17
            0  2  0  0     2.000     18
            0  1  1  0     2.000     19
            0  0  2  0     2.000     20
            3  0  0  0     3.000     21
            2  1  0  0     3.000     22
            2  0  1  0     3.000     23
            1  2  0  0     3.000     24
            1  1  1  0     3.000     25
            1  0  2  0     3.000     26
            0  3  0  0     3.000     27
            0  2  1  0     3.000     28
            0  1  2  0     3.000     29
            0  0  3  0     3.000     30
1
 ***************************************************************************************************



                                              ***********************
                                              *  T E C H N I C A L  *
                                              ***********************
  



 =============================================================
 P A R A L L E L I Z A T I O N  and  V E C T O R I Z A T I O N
 =============================================================
  
 Nr of parallel processes:                                1
 Maximum vector length in NumInt loops:                 128

 IO buffersize (Mb):                                     64.000000



 =====================
 S C F   U P D A T E S
 =====================
  
 Max. nr. of cycles:                               300
 Convergence criterion:                              0.0000000100
   secondary criterion:                              0.0000000100

 Mix parameter (when DIIS does not apply):           0.2000000000
 Special mix parameter for the first cycle:          1.0000000000
 Mixed ADIIS+DIIS will be used
    Max number of expansion vectors:                10
    Pure ADIIS when Max([F,P]) is above              0.1000000000
    Pure DIIS when Max([F,P]) is below               0.0010000000
 Automatic ElectronSmearing (in case of problematic SCF convergence) disabled



 =================
 P R E C I S I O N  ***  (General: NumInt, NeglectFunctionTails, ...)  ***
 =================
  

 NumInt:           Target precision:                12.0000000000
 -------           Initial precision:               10.0000000000
                   Min. precision (optimization):   10.0000000000

 Neglect Functions:          Basis functions:        0.1000000000E-13
 ------------------          Fit functions:          0.1000000000E-13



 ===========================
 L I N E A R   S C A L I N G
 ===========================
  

 Cut-off radii density fit:                        0.1000000000E-97
 Overlap cut-off criterion AO matrix elements:     0.1000000000E-97
 Cut-offs for Coulomb potential and fitted density:0.1000000000E-97
 Cut-off criterion for Coulomb multipole terms:    0.1000000000E-97
 Progressive Convergence parameter:                 0.000000000    
1
 ***************************************************************************************************



                                            ***************************
                                            *  C O M P U T A T I O N  *
                                            ***************************
  

 Number of elements of the density matrix on this node (used, total):       465       465



 ===========================================
 Numerical Integration : Fuzzy Cells (Becke)
 ===========================================
  
 Becke grid quality: VERYGOOD       
  
 Lebedev angular grid order:             min:  13 max:  41
 Nr. of radial points:                   min:  76 max:  76

 Total nr. of points:         76
 Nr. of blocks:                1
 Block length:                76
 Nr. of dummy points:          0


 Test of Precision of the Numerical Integration Grid
 ===================================================

 Integral of the Total Core Density:                   0.00000000000000



 ========================
 Density Fitting (zlmFit)
 ========================
  
 ZlmFit Fit Quality: VERYGOOD       
  
 Max L-expansion:                        min:   0 max:   0
 Nr. of radial interpolation points:     min: 170 max: 170



 =====
 S C F  ***  ScaSCF  ***
 =====
  

 CYCLE    1
 SCF Error: norm([F,P])=      0.000000000000, max([F,P])=      0.000000000000
 orbitals (Q,E):
 ---------------
 S :1...5            ( 2.00   -40.4878)  ( 2.00   -10.0106)  ( 0.00    -4.4145)  ( 0.00    -2.1243)
                     ( 0.00    34.3132)
 P :1...3            ( 5.00   -10.1248)  ( 0.00    -4.4262)  ( 0.00    -2.4124)
 D :1...1            ( 0.00    -4.0000)
 F :1...1            ( 0.00    -2.2500)

 CYCLE    2
  SDIIS (wt  0.000):  1.0000 -0.0000
 A-DIIS (wt  1.000):  0.0000  1.0000
  DIIS coefficients:  0.0000  1.0000
 SCF Error: norm([F,P])=     11.373794780581, max([F,P])=      4.777759414031
 orbitals (Q,E):
 ---------------
 S :1...3            ( 2.00   -18.8794)  ( 2.00    -0.0304)  ( 0.00     0.3093)
 P :1...2            ( 5.00     0.3553)  ( 0.00     1.5643)
 D :1...1            ( 0.00     1.6494)
 F :1...1            ( 0.00     4.0453)

 CYCLE    3
  SDIIS (wt  0.000):  0.2302  0.7698
 A-DIIS (wt  1.000):  0.4427  0.5573
  DIIS coefficients:  0.4427  0.5573
 SCF Error: norm([F,P])=      5.107371177545, max([F,P])=      3.125425661947
 orbitals (Q,E):
 ---------------
 S :1...3            ( 2.00   -24.7932)  ( 2.00    -1.7827)  ( 0.00    -0.0636)
 P :1...2            ( 5.00    -1.0793)  ( 0.00     0.2021)
 D :1...1            ( 0.00     0.6865)
 F :1...1            ( 0.00     2.8888)

 CYCLE    4
  SDIIS (wt  0.000): -0.0128  0.1085  0.9043
 A-DIIS (wt  1.000):  0.0000  0.0000  1.0000
  DIIS coefficients:  0.0000  0.0000  1.0000
 SCF Error: norm([F,P])=      0.965884247460, max([F,P])=      0.451655557762
 orbitals (Q,E):
 ---------------
 S :1...3            ( 2.00   -23.6749)  ( 2.00    -0.7847)  ( 0.00     0.0644)
 P :1...2            ( 5.00    -0.1299)  ( 0.00     0.5762)
 D :1...1            ( 0.00     1.2513)
 F :1...1            ( 0.00     3.5825)

 CYCLE    5
  SDIIS (wt  0.000):  0.0122 -0.0391  0.5749  0.4520
 A-DIIS (wt  1.000):  0.0000  0.0000  0.6712  0.3288
  DIIS coefficients:  0.0000  0.0000  0.6712  0.3288
 SCF Error: norm([F,P])=      1.674963411166, max([F,P])=      0.825318021724
 orbitals (Q,E):
 ---------------
 S :1...3            ( 2.00   -24.3044)  ( 2.00    -1.0529)  ( 0.00     0.0313)
 P :1...2            ( 5.00    -0.3714)  ( 0.00     0.4442)
 D :1...1            ( 0.00     1.1317)
 F :1...1            ( 0.00     3.4351)

 CYCLE    6
  SDIIS (wt  0.024):  0.0029  0.0040  0.0564 -0.0876  1.0243
 A-DIIS (wt  0.976):  0.0000  0.0000  0.0000  0.0000  1.0000
  DIIS coefficients:  0.0001  0.0001  0.0013 -0.0021  1.0006
 SCF Error: norm([F,P])=      0.199607562059, max([F,P])=      0.097634841195
 orbitals (Q,E):
 ---------------
 S :1...3            ( 2.00   -24.5137)  ( 2.00    -1.1478)  ( 0.00     0.0173)
 P :1...2            ( 5.00    -0.4644)  ( 0.00     0.4071)
 D :1...1            ( 0.00     1.0935)
 F :1...1            ( 0.00     3.3875)

 CYCLE    7
  SDIIS (wt  0.000): -0.0005  0.0010  0.0222 -0.0066  0.6116  0.3724
 A-DIIS (wt  1.000):  0.0000  0.0000  0.0000  0.0000  0.6122  0.3878
  DIIS coefficients:  0.0000  0.0000  0.0000  0.0000  0.6122  0.3878
 SCF Error: norm([F,P])=      0.266507541610, max([F,P])=      0.126514736478
 orbitals (Q,E):
 ---------------
 S :1...3            ( 2.00   -24.3946)  ( 2.00    -1.0985)  ( 0.00     0.0225)
 P :1...2            ( 5.00    -0.4159)  ( 0.00     0.4255)
 D :1...1            ( 0.00     1.1136)
 F :1...1            ( 0.00     3.4123)

 CYCLE    8
  SDIIS (wt  0.859):  0.0000 -0.0000 -0.0010  0.0023  0.0294 -0.0834  1.0527
 A-DIIS (wt  0.141):  0.0000  0.0000  0.0000  0.0000  0.0000  0.0000  1.0000
  DIIS coefficients:  0.0000 -0.0000 -0.0009  0.0020  0.0252 -0.0716  1.0453
 SCF Error: norm([F,P])=      0.030968782312, max([F,P])=      0.014981503364
 orbitals (Q,E):
 ---------------
 S :1...3            ( 2.00   -24.3770)  ( 2.00    -1.0904)  ( 0.00     0.0233)
 P :1...2            ( 5.00    -0.4080)  ( 0.00     0.4287)
 D :1...1            ( 0.00     1.1172)
 F :1...1            ( 0.00     3.4167)

 CYCLE    9
  SDIIS (wt  0.981): -0.0000  0.0000 -0.0001 -0.0004  0.0017  0.0154  0.0457  0.9377
 A-DIIS (wt  0.019):  0.0000  0.0000  0.0000  0.0000  0.0000  0.0000  0.0000  1.0000
  DIIS coefficients: -0.0000  0.0000 -0.0001 -0.0004  0.0017  0.0151  0.0448  0.9389
 SCF Error: norm([F,P])=      0.006059807167, max([F,P])=      0.002904332574
 orbitals (Q,E):
 ---------------
 S :1...3            ( 2.00   -24.3801)  ( 2.00    -1.0917)  ( 0.00     0.0232)
 P :1...2            ( 5.00    -0.4093)  ( 0.00     0.4282)
 D :1...1            ( 0.00     1.1167)
 F :1...1            ( 0.00     3.4160)

 CYCLE   10
  SDIIS (wt  1.000): -0.0000  0.0000  0.0000 -0.0000 -0.0005 -0.0009  1.0014
  DIIS coefficients: -0.0000  0.0000  0.0000 -0.0000 -0.0005 -0.0009  1.0014
 SCF Error: norm([F,P])=      0.000165576581, max([F,P])=      0.000079185113
 orbitals (Q,E):
 ---------------
 S :1...3            ( 2.00   -24.3800)  ( 2.00    -1.0917)  ( 0.00     0.0232)
 P :1...2            ( 5.00    -0.4092)  ( 0.00     0.4282)
 D :1...1            ( 0.00     1.1167)
 F :1...1            ( 0.00     3.4160)

 CYCLE   11
  SDIIS (wt  1.000): -0.0000  0.0000 -0.0000 -0.0003 -0.0117  1.0121
  DIIS coefficients: -0.0000  0.0000 -0.0000 -0.0003 -0.0117  1.0121
 SCF Error: norm([F,P])=      0.000000045102, max([F,P])=      0.000000021900
 orbitals (Q,E):
 ---------------
 S :1...3            ( 2.00   -24.3800)  ( 2.00    -1.0917)  ( 0.00     0.0232)
 P :1...2            ( 5.00    -0.4092)  ( 0.00     0.4282)
 D :1...1            ( 0.00     1.1167)
 F :1...1            ( 0.00     3.4160)

 CYCLE   12
  SDIIS (wt  1.000): -0.0000  0.0075  0.9925
  DIIS coefficients: -0.0000  0.0075  0.9925
 SCF Error: norm([F,P])=      0.000000000761, max([F,P])=      0.000000000372
 orbitals (Q,E):
 ---------------
 S :1...3            ( 2.00   -24.3800)  ( 2.00    -1.0917)  ( 0.00     0.0232)
 P :1...2            ( 5.00    -0.4092)  ( 0.00     0.4282)
 D :1...1            ( 0.00     1.1167)
 F :1...1            ( 0.00     3.4160)

 SCF CONVERGED

 CYCLE   13
1
 ***************************************************************************************************



                                                *******************
                                                *  R E S U L T S  *
                                                *******************
  
 *** Setting up for NEW gradients in Focky
 *** Using FIT density in Focky

 Orbital Energies, per Irrep and Spin:
 ======================================
                        Occup              E (au)              E (eV)       Diff (eV) with prev. cycle
                        -----      --------------------        ------       --------------------------
 S
               1        2.000     -0.24380013662793E+02      -663.414              -5.70E-10
               2        2.000     -0.10916696572490E+01       -29.706              -4.11E-10
               3        0.000      0.23171521938657E-01         0.631
               4        0.000      0.15801599788495E+01        42.998
               5        0.000      0.48367571090263E+02      1316.149
 P
               1        5.000     -0.40924594303694E+00       -11.136              -3.94E-10
               2        0.000      0.42818717158446E+00        11.652
               3        0.000      0.45634501130520E+01       124.178
 D
               1        0.000      0.11166683619357E+01        30.386
 F
               1        0.000      0.34160293329535E+01        92.955


 Partially Occupied:
               1 P                -0.40924594303694E+00
  
 HOMO :        2 S                -0.10916696572490E+01
 LUMO :        3 S                 0.23171521938657E-01
  


 Orbital Energies, all Irreps
 ========================================

 Irrep        no.  (spin)   Occup              E (au)                E (eV)
 ---------------------------------------------------------------------------
 S             1             2.00       -0.24380013662793E+02      -663.4139
 S             2             2.00       -0.10916696572490E+01       -29.7058
 P             1             5.00       -0.40924594303694E+00       -11.1361
 S             3             0.00        0.23171521938657E-01         0.6305
 P             2             0.00        0.42818717158446E+00        11.6516
 D             1             0.00        0.11166683619357E+01        30.3861
 S             4             0.00        0.15801599788495E+01        42.9983
 F             1             0.00        0.34160293329535E+01        92.9549
 P             3             0.00        0.45634501130520E+01       124.1778
 S             5             0.00        0.48367571090263E+02      1316.1486


 All Electron Calculation, thus no Orbital Energies of the Core Orbitals are calculated



 =======================================
 M U L L I K E N   P O P U L A T I O N S
 =======================================
  
 The survey below gives for each atom:
 a) the total charge (Z minus electrons)
 b) the net spin polarization (nr of electrons spin-A minus spin-B)
 c) for each spin the atomic electron valence density (integrated) per L-value.

 Atom              Charge    Spin density          S         P         D         F
 ----              ------    ------------       ------    ------    ------    ------
 1 F              -0.0000                       4.0000    5.0000    0.0000    0.0000

 Populations of individual BAS functions
 ----------------------------------------
 1 F            0.5735  1.4020  1.1462  0.8789 -0.0006  0.3652  0.3652  0.3652  0.9146  0.9146
                0.9146  0.3869  0.3869  0.3869  0.0000  0.0000  0.0000  0.0000  0.0000  0.0000
                0.0000  0.0000  0.0000  0.0000  0.0000  0.0000  0.0000  0.0000  0.0000  0.0000

 Gross Charges per Atom (Z minus electrons)
 ==========================================
            -0.0000
 Net Total: -0.00000000



 =======================================================================
 Electrostatic potential at the Nuclei due to electrons and other nuclei
 =======================================================================
  
         Atom                  Potential
         ----                  ---------
     1)   F                  26.51041126
 
 
 ========================
 No memory problems found
 ========================
 
 Maximum number of active allocate calls:         447
 
 *******************************************************************************

                             A D F   E X I T
 NORMAL TERMINATION



 =================
 Timing Statistics
 =================
  
 Total Used :                     CPU=        0.50      System=        0.03     Elapsed=        0.53

 Calls  Section                     ( Mean, Percentage )
 ---------------------------------------------------------------------------------------------------
     3  ><      ................      0.00    0.20             0.00    0.00             0.00    0.15
     1  INIT    ................      0.01    1.41             0.02   51.51             0.03    4.85
     1  GEOMET  ................      0.00    0.80             0.00   12.12             0.01    1.58
     1  INPUTA  ................      0.00    0.40             0.00    0.00             0.00    0.29
     1  MAINSY  ................      0.00    0.80             0.00    6.06             0.01    1.12
     1  SYMFIT  ................      0.00    0.00             0.00    0.00             0.00    0.15
     1  CORORT  ................      0.00    0.20             0.00    0.00             0.00    0.05
     1  SYMORB  ................      0.00    0.00             0.00    0.00             0.00    0.13
     1  CLSMAT  ................      0.00    1.00             0.00    0.00             0.01    0.98
     1  ORTHON  ................      0.00    0.40             0.00    0.00             0.00    0.30
     1  GENPT   ................      0.01    3.01             0.00    0.00             0.01    2.78
     1  PTBAS   ................      0.00    0.60             0.00    0.00             0.00    0.65
    13  FOCKY   ................      0.03   76.10             0.00   18.18             0.03   72.28
    13  FOCKTR  ................      0.00    2.21             0.00    0.00             0.00    2.06
    13  SDIIS   ................      0.00    4.02             0.00    3.03             0.00    3.95
     1  COREPS  ................      0.02    4.22             0.00    3.03             0.02    4.13
     1  POPAN   ................      0.01    1.20             0.00    0.00             0.01    0.98
     1  DEBYE   ................      0.00    0.00             0.00    0.00             0.00    0.10
     1  EXIT PROCEDURE .........      0.02    3.41             0.00    6.06             0.02    3.47


 Currently Open Files (EXIT00)
 ====================

 Unit    Access Format  Status   Type       Ident (file)
 -------------------------------------------------------
   3      SEQ    FORM   TRANSP  NORMAL      LOGFILE
                                          ( logfile )


 Buffered I/O statistics
 =======================
 Memory available:                     67108864
 Number of records fitting in memory:     16131
 Input :   0.1% of                        27818  *4k bytes
 Output:  13.5% of                         1383  *4k bytes
 Records from serial files evicted:           0
                    others evicted:           0
 Hash table lookups:      71870 with          0 conflicts (  0.00%)

 ***************************************************************************************************
 (LOGFILE)
 <Apr18-2019> <14:07:31>  ADF development version  RunTime: Apr18-2019 14:07:31  Nodes: 1  Procs: 1
 <Apr18-2019> <14:07:31>  Hydrogen (TZ2P)
 <Apr18-2019> <14:07:31>  RunType   : CREATE
 <Apr18-2019> <14:07:31>  Net Charge: 0 (Nuclei minus Electrons)
 <Apr18-2019> <14:07:31>  Symmetry  : ATOM
  Coordinates
    Atom         X           Y           Z   (Angstrom)
    1.H         0.000000    0.000000    0.000000
 <Apr18-2019> <14:07:31>  >>>> CORORT
 <Apr18-2019> <14:07:31>  >>>> CLSMAT
 <Apr18-2019> <14:07:31>  >>>> ORTHON
 <Apr18-2019> <14:07:31>  >>>> GENPT
 <Apr18-2019> <14:07:31>  Block Length=  64
 <Apr18-2019> <14:07:31>  >>>> PTBAS
 <Apr18-2019> <14:07:31>  >>>> CYCLE
 <Apr18-2019> <14:07:31>              |Error|         MaxErr       Wt(A-DIIS)
 <Apr18-2019> <14:07:31>      1      0.00000000      0.00000000
 <Apr18-2019> <14:07:31>      2      0.03100286      0.02644424
 <Apr18-2019> <14:07:31>      3      0.00958001      0.00932852    100.0
 <Apr18-2019> <14:07:31>      4      0.00232093      0.00228640      1.3
 <Apr18-2019> <14:07:31>      5      0.00003155      0.00002984      0.0
 <Apr18-2019> <14:07:31>      6      0.00000096      0.00000091      0.0
 <Apr18-2019> <14:07:31>      7      0.00000000      0.00000000      0.0
 <Apr18-2019> <14:07:31>  SCF converged
 <Apr18-2019> <14:07:31>      8      0.00000000      0.00000000      0.0
 <Apr18-2019> <14:07:31>  >>>> POPAN
 <Apr18-2019> <14:07:31>  >>>> DEBYE
 <Apr18-2019> <14:07:31>  NORMAL TERMINATION
 <Apr18-2019> <14:07:31>  END
 <Apr18-2019> <14:07:32>  ADF development version  RunTime: Apr18-2019 14:07:32  Nodes: 1  Procs: 1
 <Apr18-2019> <14:07:32>  Fluorine (TZ2P)
 <Apr18-2019> <14:07:32>  RunType   : CREATE
 <Apr18-2019> <14:07:32>  Net Charge: 0 (Nuclei minus Electrons)
 <Apr18-2019> <14:07:32>  Symmetry  : ATOM
  Coordinates
    Atom         X           Y           Z   (Angstrom)
    1.F         0.000000    0.000000    0.000000
 <Apr18-2019> <14:07:32>  >>>> CORORT
 <Apr18-2019> <14:07:32>  >>>> CLSMAT
 <Apr18-2019> <14:07:32>  >>>> ORTHON
 <Apr18-2019> <14:07:32>  >>>> GENPT
 <Apr18-2019> <14:07:32>  Block Length=  76
 <Apr18-2019> <14:07:32>  >>>> PTBAS
 <Apr18-2019> <14:07:32>  >>>> CYCLE
 <Apr18-2019> <14:07:32>              |Error|         MaxErr       Wt(A-DIIS)
 <Apr18-2019> <14:07:32>      1      0.00000000      0.00000000
 <Apr18-2019> <14:07:32>      2     11.37379478      4.77775941    100.0
 <Apr18-2019> <14:07:32>      3      5.10737118      3.12542566    100.0
 <Apr18-2019> <14:07:32>      4      0.96588425      0.45165556    100.0
 <Apr18-2019> <14:07:32>      5      1.67496341      0.82531802    100.0
 <Apr18-2019> <14:07:32>      6      0.19960756      0.09763484     97.6
 <Apr18-2019> <14:07:32>      7      0.26650754      0.12651474    100.0
 <Apr18-2019> <14:07:32>      8      0.03096878      0.01498150     14.1
 <Apr18-2019> <14:07:32>      9      0.00605981      0.00290433      1.9
 <Apr18-2019> <14:07:32>     10      0.00016558      0.00007919      0.0
 <Apr18-2019> <14:07:32>     11      0.00000005      0.00000002      0.0
 <Apr18-2019> <14:07:32>     12      0.00000000      0.00000000      0.0
 <Apr18-2019> <14:07:32>  SCF converged
 <Apr18-2019> <14:07:32>     13      0.00000000      0.00000000      0.0
 <Apr18-2019> <14:07:32>  >>>> POPAN
 <Apr18-2019> <14:07:32>  >>>> DEBYE
 <Apr18-2019> <14:07:32>  NORMAL TERMINATION
 <Apr18-2019> <14:07:32>  END


 Parallel Execution: Process Information
 ==============================================================================
 Rank   Node Name                              NodeID   MyNodeRank  NodeMaster
    0   BAZIS-cn076                               0          0          0
    1   BAZIS-cn076                               0          1         -1
    2   BAZIS-cn076                               0          2         -1
    3   BAZIS-cn076                               0          3         -1
    4   BAZIS-cn076                               0          4         -1
    5   BAZIS-cn076                               0          5         -1
    6   BAZIS-cn076                               0          6         -1
    7   BAZIS-cn076                               0          7         -1
    8   BAZIS-cn076                               0          8         -1
    9   BAZIS-cn076                               0          9         -1
   10   BAZIS-cn076                               0         10         -1
   11   BAZIS-cn076                               0         11         -1
 ==============================================================================


May use up to 30736MB of RAM as shared memory on node 0


XC
  GGA blyp
  DISPERSION Grimme3 BJDAMP
END

ANALYTICALFREQ
END

SCF
  iterations 250
END

Geometry
  Iterations 300
  Optim Cartesian
  Convergence E=1e-4 grad=1e-4
End

SYMMETRY nosym
CHARGE -1

ZLMFIT
  Quality normal
END

BECKEGRID
  Quality good
End

ATOMS
F      -3.92255482       0.30683647      -0.21836993
H      -2.84513185       0.18627380       0.62794929
F      -1.11280880       0.64475808       1.78064946
END

Fragments
H t21.H
F t21.F
End
end input

 *******************************************************************************
 *                                                                             *
 *  -------------------------------------                                      *
 *   Amsterdam Density Functional  (ADF)         development version           *
 *  -------------------------------------                                      *
 *                                               r61132 2017-09-08             *
 *                                                                             *
 *                                                                             *
 *                              =================                              *
 *                              |               |                              *
 *                              |     A D F     |                              *
 *                              |               |                              *
 *                              =================                              *
 *                                                                             *
 *                                                                             *
 *   Online information and documentation:  https://www.scm.com/support/       *
 *   E-mail:  support@scm.com   info@scm.com                                   *
 *                                                                             *
 *   Scientific publications using ADF results must be properly referenced     *
 *   See the User Manuals (or the web site) for recommended citations          *
 *   The terms and conditions of the End User License Agreement apply to       *
 *   the use of ADF, https://www.scm.com/license-terms/                        *
 *                                                                             *
 **********************  x86_64_linux_intel / intelmpi  ************************
 
 Licensed to: VU/FEW (+ SARA) / ALGEMEEN / Amsterdam / THE NETHERLANDS
 SCM User ID: u7668
  
 ADF development version  RunTime: Apr18-2019 14:07:32  Nodes: 1  Procs: 12

 Temporary files are created in /local/datastore0/tcst25/186721/kid_0.47xO0V


Communication costs MPI_COMM_WORLD:      2.513 usec per message,   0.0133 usec per 8-byte item
Communication costs for intra-node:      2.518 usec per message,   0.0134 usec per 8-byte item

 *** (NO TITLE) ***



 ===========================
 A T T A C H E D   F I L E S
 ===========================
  



 ===============================
 M O D E L   P A R A M E T E R S
 ===============================
  
 DENSITY FUNCTIONAL POTENTIAL (scf)
    LDA:                               Exchange only                           == Not Default ==
    Gradient Corrections:              Becke88 LYP                             == Not Default ==

 SPIN  (restricted / unrestr.)
    Molecule:                          Restricted                               
    Fragments:                         Restricted                               

 OTHER ASPECTS
    Relativistic Corrections:          ---                                      

    Nuclear Charge Density Model:      Point Charge Nuclei                      
    Core Treatment:                    Frozen Orbital(s)                        

    Hyperfine or Zeeman Interaction:   ---                                      

 Settings for Grimme 3 dispersion correction

      damping                        BJ
      s6                          1.000
      a1                          0.430
      s8                          2.700
      a2                          4.236

 Other (technical) parameters

      alpha                      14.000
      version                         4
 


 Fragment File(s)
 ----------------
 F:
         file : t21.F
         jobid: ADF development version  RunTime: Apr18-2019 14:07:32  Nodes: 1  Procs: 1
         title: Fluorine (TZ2P)
 H:
         file : t21.H
         jobid: ADF development version  RunTime: Apr18-2019 14:07:31  Nodes: 1  Procs: 1
         title: Hydrogen (TZ2P)



                                   *********************************************
                                   *  R U N   T Y P E : GEOMETRY OPTIMIZATION  *
                                   *********************************************
  



 ===============
 G E O M E T R Y  ***  Planar Molecule  ***
 ===============
  

 ATOMS
 =====                            X Y Z                    CHARGE
                                (Angstrom)             Nucl     +Core       At.Mass
                       --------------------------    ----------------       -------
    1  F              -3.9226    0.3068   -0.2184      9.00      9.00       18.9984
    2  H              -2.8451    0.1863    0.6279      1.00      1.00        1.0078
    3  F              -1.1128    0.6448    1.7806      9.00      9.00       18.9984


 FRAGMENTS
 =========                                     Atoms in this Fragment     Cart. coord.s (Angstrom)
                                               -------------------------------------------------------
    1  F                                                 1  F           -3.9226    0.3068   -0.2184
    2  F                                                 3  F           -1.1128    0.6448    1.7806
    3  H                                                 2  H           -2.8451    0.1863    0.6279


 Interatomic Distance Matrix (Angstrom)
 --------------------------------------

   1)     0.000
   2)     1.375   0.000
   3)     3.465   2.131   0.000

 Min. Distance =    1.3754
 Max. Distance =    3.4648



 =====================================
 S Y M M E T R Y ,   E L E C T R O N S
 =====================================
  
 Symmetry: NOSYM

 Irreducible Representations, including subspecies
 -------------------------------------------------
 A


 Configuration of Valence Electrons
 ==================================
 ( determined in the SCF procedure )

 Total:   20

 Net Charge: -1 (Nuclei minus Electrons)

 Aufbau principle for MO occupations will be applied through SCF cycle no.     125
 Thereafter, the program will assign electrons to MOs that are spatially
 similar to the occupied MOs in a "reference" cycle ("KeepOrbitals").
 The reference cycle is always the PREVIOUS cycle: it will evolve with
 the SCF procedure.
1
 ***************************************************************************************************



                                      ****************************************
                                      *  B U I L D : (Fragments, Functions)  *
                                      ****************************************
  



 =======
 S F O s  ***  (Symmetrized Fragment Orbitals)  ***
 =======
  
 SFOs are linear combinations of (valence) Fragment Orbitals (FOs), such that the SFOs transform as the
 irreducible representations of the (molecular) symmetry group. Each SFO is therefore characterized by
 an irrep of the molecule and by a few (or only one) generating FOs.
 The SFOs constitute a symmetry-adapted basis for the Fock matrix. The MO eigenvector coefficients in
 this basis provide a direct interpretation of the MOs in terms of Frontier Orbital Theory.

 The SFOs are combined with auxiliary Core Functions (CFs) to ensure orthogonalization on the (frozen)
 Core Orbitals (COs). The Core-orthogonalized SFOs (CSFOs) constitute the true Fock basis.

 The FOs, and hence also the (C)SFOs are combinations of the elementary basis functions (BAS). The basis
 functions that participate in the description of the SFOs depend on the irrep. The indices of the
 involved functions are printed below for each irrep.
 (The complete list of primitive basis functions is printed in another section)

 Total nr. of (C)SFOs (summation over all irreps) :    63

 NOTE: a (C)SFO that is defined as a combination of more than one FO is usually NOT normalized.



                                       === A ===
 Nr. of SFOs :   63
 Cartesian basis functions that participate in this irrep (total number =    72) :
      1     2     3     4     5     6     9    12     7    10
     13     8    11    14    15    16    17    18    19    20
     21    22    23    24    25    26    27    28    29    30
     31    32    33    34    35    36    39    42    37    40
     43    38    41    44    45    46    47    48    49    50
     51    52    53    54    55    56    57    58    59    60
     61    62    63    64    65    66    67    68    69    70
     71    72

    SFO  (index         Fragment          Generating    Expansion in Fragment Orbitals
  indx  incl.CFs)   Occup   Orb.Energy   FragmentType  Coeff.   Orbital     on Fragment
 --------------------------------------------------------------------------------------
     1       1      2.000     -24.380 au  F             1.00      1 S               1
                        (    -663.414 eV)
     2       2      2.000      -1.092 au  F             1.00      2 S               1
                        (     -29.706 eV)
     3       3       --         0.023 au  F             1.00      3 S               1
                        (       0.631 eV)
     4       4       --         1.580 au  F             1.00      4 S               1
                        (      42.998 eV)
     5       5       --        48.368 au  F             1.00      5 S               1
                        (    1316.149 eV)
     6       6      1.667      -0.409 au  F             1.00      1 P:x             1
                        (     -11.136 eV)
     7       7       --         0.428 au  F             1.00      2 P:x             1
                        (      11.652 eV)
     8       8       --         4.563 au  F             1.00      3 P:x             1
                        (     124.178 eV)
     9       9      1.667      -0.409 au  F             1.00      1 P:y             1
                        (     -11.136 eV)
    10      10       --         0.428 au  F             1.00      2 P:y             1
                        (      11.652 eV)
    11      11       --         4.563 au  F             1.00      3 P:y             1
                        (     124.178 eV)
    12      12      1.667      -0.409 au  F             1.00      1 P:z             1
                        (     -11.136 eV)
    13      13       --         0.428 au  F             1.00      2 P:z             1
                        (      11.652 eV)
    14      14       --         4.563 au  F             1.00      3 P:z             1
                        (     124.178 eV)
    15      15       --         1.117 au  F             1.00      1 D:z2            1
                        (      30.386 eV)
    16      16       --         1.117 au  F             1.00      1 D:x2-y2         1
                        (      30.386 eV)
    17      17       --         1.117 au  F             1.00      1 D:xy            1
                        (      30.386 eV)
    18      18       --         1.117 au  F             1.00      1 D:xz            1
                        (      30.386 eV)
    19      19       --         1.117 au  F             1.00      1 D:yz            1
                        (      30.386 eV)
    20      20       --         3.416 au  F             1.00      1 F:z3            1
                        (      92.955 eV)
    21      21       --         3.416 au  F             1.00      1 F:z             1
                        (      92.955 eV)
    22      22       --         3.416 au  F             1.00      1 F:xyz           1
                        (      92.955 eV)
    23      23       --         3.416 au  F             1.00      1 F:z2x           1
                        (      92.955 eV)
    24      24       --         3.416 au  F             1.00      1 F:z2y           1
                        (      92.955 eV)
    25      25       --         3.416 au  F             1.00      1 F:x             1
                        (      92.955 eV)
    26      26       --         3.416 au  F             1.00      1 F:y             1
                        (      92.955 eV)
    27      27      2.000     -24.380 au  F             1.00      1 S               2
                        (    -663.414 eV)
    28      28      2.000      -1.092 au  F             1.00      2 S               2
                        (     -29.706 eV)
    29      29       --         0.023 au  F             1.00      3 S               2
                        (       0.631 eV)
    30      30       --         1.580 au  F             1.00      4 S               2
                        (      42.998 eV)
    31      31       --        48.368 au  F             1.00      5 S               2
                        (    1316.149 eV)
    32      32      1.667      -0.409 au  F             1.00      1 P:x             2
                        (     -11.136 eV)
    33      33       --         0.428 au  F             1.00      2 P:x             2
                        (      11.652 eV)
    34      34       --         4.563 au  F             1.00      3 P:x             2
                        (     124.178 eV)
    35      35      1.667      -0.409 au  F             1.00      1 P:y             2
                        (     -11.136 eV)
    36      36       --         0.428 au  F             1.00      2 P:y             2
                        (      11.652 eV)
    37      37       --         4.563 au  F             1.00      3 P:y             2
                        (     124.178 eV)
    38      38      1.667      -0.409 au  F             1.00      1 P:z             2
                        (     -11.136 eV)
    39      39       --         0.428 au  F             1.00      2 P:z             2
                        (      11.652 eV)
    40      40       --         4.563 au  F             1.00      3 P:z             2
                        (     124.178 eV)
    41      41       --         1.117 au  F             1.00      1 D:z2            2
                        (      30.386 eV)
    42      42       --         1.117 au  F             1.00      1 D:x2-y2         2
                        (      30.386 eV)
    43      43       --         1.117 au  F             1.00      1 D:xy            2
                        (      30.386 eV)
    44      44       --         1.117 au  F             1.00      1 D:xz            2
                        (      30.386 eV)
    45      45       --         1.117 au  F             1.00      1 D:yz            2
                        (      30.386 eV)
    46      46       --         3.416 au  F             1.00      1 F:z3            2
                        (      92.955 eV)
    47      47       --         3.416 au  F             1.00      1 F:z             2
                        (      92.955 eV)
    48      48       --         3.416 au  F             1.00      1 F:xyz           2
                        (      92.955 eV)
    49      49       --         3.416 au  F             1.00      1 F:z2x           2
                        (      92.955 eV)
    50      50       --         3.416 au  F             1.00      1 F:z2y           2
                        (      92.955 eV)
    51      51       --         3.416 au  F             1.00      1 F:x             2
                        (      92.955 eV)
    52      52       --         3.416 au  F             1.00      1 F:y             2
                        (      92.955 eV)
    53      53      1.000      -0.240 au  H             1.00      1 S               3
                        (      -6.532 eV)
    54      54       --         0.088 au  H             1.00      2 S               3
                        (       2.394 eV)
    55      55       --         1.502 au  H             1.00      3 S               3
                        (      40.877 eV)
    56      56       --         0.406 au  H             1.00      1 P:x             3
                        (      11.052 eV)
    57      57       --         0.406 au  H             1.00      1 P:y             3
                        (      11.052 eV)
    58      58       --         0.406 au  H             1.00      1 P:z             3
                        (      11.052 eV)
    59      59       --         2.570 au  H             1.00      1 D:z2            3
                        (      69.925 eV)
    60      60       --         2.570 au  H             1.00      1 D:x2-y2         3
                        (      69.925 eV)
    61      61       --         2.570 au  H             1.00      1 D:xy            3
                        (      69.925 eV)
    62      62       --         2.570 au  H             1.00      1 D:xz            3
                        (      69.925 eV)
    63      63       --         2.570 au  H             1.00      1 D:yz            3
                        (      69.925 eV)



 ================================
 (Slater-type)  F U N C T I O N S  ***  (Basis and Fit)  ***
 ================================
  

 Atom Type    1  (F)
 ==============

 Valence Basis Sets:  10
 -----------------------
   1 S   10.880000
   1 S    7.700000
   2 S    3.240000
   2 S    1.940000
   2 S    0.740000
   2 P    4.540000
   2 P    2.300000
   2 P    1.240000
   3 D    2.000000
   4 F    3.000000

 Atom Type    2  (H)
 ==============

 Valence Basis Sets:   5
 -----------------------
   1 S    0.690000
   1 S    0.920000
   1 S    1.580000
   2 P    1.250000
   3 D    2.500000


 BAS: List of all Elementary Cartesian Basis Functions
 =====================================================

 The numbering in the list below (to the right of the function characteristics) is referred
 to in print-outs of MO eigenvectors and Mulliken populations in the BAS representation
 (as contrasted to the SFO representation).

 Notes:
 1. The functions are characterized by a polynomial prefactor (powers of x,y,z and r) and
    an exponential decay factor alpha.
 2. Since the basis sets are specific for an atom TYPE, the individual functions occur on
    all atoms of that type.
 3. The word 'Core' in the left margin signals that it is a Core Function (CF) : not a
    degree of freedom in the valence set, but only used to ensure orthogonalization of
    the other valence basis functions on the frozen Core Orbitals.


 (power of) X  Y  Z  R     Alpha  on Atom
            ==========     =====     ==========

 F                                    1    2
                                  ---------------------------------------------------------------------------
            0  0  0  0    10.880      1   31
            0  0  0  0     7.700      2   32
            0  0  0  1     3.240      3   33
            0  0  0  1     1.940      4   34
            0  0  0  1     0.740      5   35
            1  0  0  0     4.540      6   36
            0  1  0  0     4.540      7   37
            0  0  1  0     4.540      8   38
            1  0  0  0     2.300      9   39
            0  1  0  0     2.300     10   40
            0  0  1  0     2.300     11   41
            1  0  0  0     1.240     12   42
            0  1  0  0     1.240     13   43
            0  0  1  0     1.240     14   44
            2  0  0  0     2.000     15   45
            1  1  0  0     2.000     16   46
            1  0  1  0     2.000     17   47
            0  2  0  0     2.000     18   48
            0  1  1  0     2.000     19   49
            0  0  2  0     2.000     20   50
            3  0  0  0     3.000     21   51
            2  1  0  0     3.000     22   52
            2  0  1  0     3.000     23   53
            1  2  0  0     3.000     24   54
            1  1  1  0     3.000     25   55
            1  0  2  0     3.000     26   56
            0  3  0  0     3.000     27   57
            0  2  1  0     3.000     28   58
            0  1  2  0     3.000     29   59
            0  0  3  0     3.000     30   60

 H                                    3
                                  ---------------------------------------------------------------------------
            0  0  0  0     0.690     61
            0  0  0  0     0.920     62
            0  0  0  0     1.580     63
            1  0  0  0     1.250     64
            0  1  0  0     1.250     65
            0  0  1  0     1.250     66
            2  0  0  0     2.500     67
            1  1  0  0     2.500     68
            1  0  1  0     2.500     69
            0  2  0  0     2.500     70
            0  1  1  0     2.500     71
            0  0  2  0     2.500     72

 Total number of charge fitting functions (nprimf)       220
 Total number of Cartesian basis functions (naos)         72
 Total number of Cartesian core functions  (ncos)          0



 Coordinates (Cartesian)
 =======================

     Atom                    bohr                                 angstrom                 Geometric Variables
                   X           Y           Z              X           Y           Z       (0:frozen, *:LT par.)
 --------------------------------------------------------------------------------------------------------------
     1 F      -7.412554    0.579837   -0.412659      -3.922555    0.306836   -0.218370      1       2       3
     2 H      -5.376520    0.352006    1.186652      -2.845132    0.186274    0.627949      4       5       6
     3 F      -2.102904    1.218416    3.364940      -1.112809    0.644758    1.780649      7       8       9
 --------------------------------------------------------------------------------------------------------------
1
 ***************************************************************************************************



                                              ***********************
                                              *  T E C H N I C A L  *
                                              ***********************
  



 =============================================================
 P A R A L L E L I Z A T I O N  and  V E C T O R I Z A T I O N
 =============================================================
  
 Nr of parallel processes:                               12
 Maximum vector length in NumInt loops:                 128

 IO buffersize (Mb):                                     64.000000



 ===============================
 G E O M E T R Y   U P D A T E S
 ===============================
  
 Optimization coordinates:                       Cartesian
 Optimization code branch:                       NEW
 Hessian update method:                          BFGS (Broyden-Fletcher-Goldfarb-Shanno)

 Iterative Geometry Improvements:
    Max. nr. of iterations:                        300
    Convergence criteria:
         Change in energy (hartree):                 0.0001000000
         Gradients (au/Angstrom):                    0.0001000000
         Cart/bondlength changes (Angstrom):         0.0100000000
    Max. step to take:
         Trust Radius:                               0.2000000000

 GDIIS (Geometry Direct Inversion in Iteration Space):
    First geometry cycle:                            0
    Max. number expansion vectors:                   5



 =====================
 S C F   U P D A T E S
 =====================
  
 Max. nr. of cycles:                               250
 Convergence criterion:                              0.0000010000
   secondary criterion:                              0.0010000000

 Mix parameter (when DIIS does not apply):           0.2000000000
 Mixed ADIIS+DIIS will be used
    Max number of expansion vectors:                10
    Pure ADIIS when Max([F,P]) is above              0.1000000000
    Pure DIIS when Max([F,P]) is below               0.0010000000



 =================
 P R E C I S I O N  ***  (General: NumInt, NeglectFunctionTails, ...)  ***
 =================
  

 NumInt:           Target precision:                 6.0000000000
 -------           Initial precision:                6.0000000000
                   Min. precision (optimization):    6.0000000000

 Neglect Functions:          Basis functions:        0.1000000000E-07
 ------------------          Fit functions:          0.1000000000E-07



 ===========================
 L I N E A R   S C A L I N G
 ===========================
  

 Cut-off radii density fit:                        0.1000000000E-09
 Overlap cut-off criterion AO matrix elements:     0.1000000000E-07
 Cut-offs for Coulomb potential and fitted density:0.1000000000E-09
 Cut-off criterion for Coulomb multipole terms:    0.1000000000E-09
 Progressive Convergence parameter:                 0.000000000    
1
 ***************************************************************************************************



                                            ***************************
                                            *  C O M P U T A T I O N  *
                                            ***************************
  

 Number of elements of the density matrix on this node (used, total):       465      2628



 ===========================================
 Numerical Integration : Fuzzy Cells (Becke)
 ===========================================
  
 Becke grid quality: GOOD           
  
 Lebedev angular grid order:             min:  11 max:  31
 Nr. of radial points:                   min:  54 max:  65

 Total nr. of points:      39940
 Nr. of blocks:              313
 Block length:               128
 Nr. of dummy points:        124


 Test of Precision of the Numerical Integration Grid
 ===================================================

 Integral of the Total Core Density:                   0.00000000000000



 ========================
 Density Fitting (zlmFit)
 ========================
  
 ZlmFit Fit Quality: NORMAL         
  
[...]
 <Apr18-2019> <14:08:02>      4      0.01286938      0.00351797      2.5
 <Apr18-2019> <14:08:02>      5      0.00031498      0.00009207      0.0
 <Apr18-2019> <14:08:02>      6      0.00004418      0.00001022      0.0
 <Apr18-2019> <14:08:02>      7      0.00000831      0.00000272      0.0
 <Apr18-2019> <14:08:02>      8      0.00000526      0.00000140      0.0
 <Apr18-2019> <14:08:02>      9      0.00000027      0.00000008      0.0
 <Apr18-2019> <14:08:02>  SCF converged
 <Apr18-2019> <14:08:02>     10      0.00000002      0.00000001      0.0
 <Apr18-2019> <14:08:03>  >>>> TOTEN
 <Apr18-2019> <14:08:03>  >>>> POPAN
 <Apr18-2019> <14:08:03>  >>>> DEBYE
 <Apr18-2019> <14:08:03>  >>>> ENGRAD
 <Apr18-2019> <14:08:03>  current energy                               -0.50991655 Hartree
 <Apr18-2019> <14:08:03>  energy change                       0.00019075     0.00010000    F
 <Apr18-2019> <14:08:03>  constrained gradient max            0.00686449     0.00010000    F
 <Apr18-2019> <14:08:03>  constrained gradient rms            0.00419301     0.00006667    F
 <Apr18-2019> <14:08:03>  gradient max                        0.00686449
 <Apr18-2019> <14:08:03>  gradient rms                        0.00419301
 <Apr18-2019> <14:08:03>  cart. step max                      0.01166362     0.01000000    F
 <Apr18-2019> <14:08:03>  cart. step rms                      0.00749629     0.00666667    F
  Coordinates in Geometry Cycle 32
    Atom         X           Y           Z   (Angstrom)
    1.F        -3.575586    0.055852    0.136420
    2.H        -2.623108    0.388863    0.718523
    3.F        -1.681802    0.693153    1.335286
 <Apr18-2019> <14:08:03>  >>>> CORORT
 <Apr18-2019> <14:08:03>  >>>> CLSMAT
 <Apr18-2019> <14:08:03>  >>>> ORTHON
 <Apr18-2019> <14:08:03>  >>>> GENPT
 <Apr18-2019> <14:08:03>  Block Length= 128
 <Apr18-2019> <14:08:03>  >>>> PTBAS
 <Apr18-2019> <14:08:03>  >>>> CYCLE
 <Apr18-2019> <14:08:03>              |Error|         MaxErr       Wt(A-DIIS)
 <Apr18-2019> <14:08:03>      1      0.02041963      0.00654365
 <Apr18-2019> <14:08:03>      2      0.00807659      0.00226932    100.0
 <Apr18-2019> <14:08:03>      3      0.00291020      0.00075685    100.0
 <Apr18-2019> <14:08:03>      4      0.00655415      0.00182869    100.0
 <Apr18-2019> <14:08:03>      5      0.00078214      0.00021770      0.0
 <Apr18-2019> <14:08:03>      6      0.00008868      0.00002440      0.0
 <Apr18-2019> <14:08:03>      7      0.00001080      0.00000300      0.0
 <Apr18-2019> <14:08:03>      8      0.00000160      0.00000051      0.0
 <Apr18-2019> <14:08:03>  SCF converged
 <Apr18-2019> <14:08:03>      9      0.00000035      0.00000012      0.0
 <Apr18-2019> <14:08:04>  >>>> TOTEN
 <Apr18-2019> <14:08:04>  >>>> POPAN
 <Apr18-2019> <14:08:04>  >>>> DEBYE
 <Apr18-2019> <14:08:04>  >>>> ENGRAD
 <Apr18-2019> <14:08:04>  current energy                               -0.51011778 Hartree
 <Apr18-2019> <14:08:04>  energy change                      -0.00020123     0.00010000    F
 <Apr18-2019> <14:08:04>  constrained gradient max            0.00352831     0.00010000    F
 <Apr18-2019> <14:08:04>  constrained gradient rms            0.00196272     0.00006667    F
 <Apr18-2019> <14:08:04>  gradient max                        0.00352831
 <Apr18-2019> <14:08:04>  gradient rms                        0.00196272
 <Apr18-2019> <14:08:04>  cart. step max                      0.02156219     0.01000000    F
 <Apr18-2019> <14:08:04>  cart. step rms                      0.00997643     0.00666667    F
  Coordinates in Geometry Cycle 33
    Atom         X           Y           Z   (Angstrom)
    1.F        -3.571679    0.065493    0.134040
    2.H        -2.627740    0.367301    0.728374
    3.F        -1.681076    0.705075    1.327815
 <Apr18-2019> <14:08:04>  >>>> CORORT
 <Apr18-2019> <14:08:04>  >>>> CLSMAT
 <Apr18-2019> <14:08:04>  >>>> ORTHON
 <Apr18-2019> <14:08:04>  >>>> GENPT
 <Apr18-2019> <14:08:04>  Block Length= 128
 <Apr18-2019> <14:08:04>  >>>> PTBAS
 <Apr18-2019> <14:08:04>  >>>> CYCLE
 <Apr18-2019> <14:08:04>              |Error|         MaxErr       Wt(A-DIIS)
 <Apr18-2019> <14:08:04>      1      0.02451153      0.00636709
 <Apr18-2019> <14:08:04>      2      0.00793184      0.00231484    100.0
 <Apr18-2019> <14:08:04>      3      0.00304310      0.00077726    100.0
 <Apr18-2019> <14:08:04>      4      0.00633085      0.00186870    100.0
 <Apr18-2019> <14:08:04>      5      0.00050139      0.00012652      0.0
 <Apr18-2019> <14:08:04>      6      0.00010373      0.00003130      0.0
 <Apr18-2019> <14:08:04>      7      0.00001173      0.00000292      0.0
 <Apr18-2019> <14:08:04>      8      0.00000144      0.00000045      0.0
 <Apr18-2019> <14:08:04>  SCF converged
 <Apr18-2019> <14:08:04>      9      0.00000031      0.00000011      0.0
 <Apr18-2019> <14:08:04>  >>>> TOTEN
 <Apr18-2019> <14:08:05>  >>>> POPAN
 <Apr18-2019> <14:08:05>  >>>> DEBYE
 <Apr18-2019> <14:08:05>  >>>> ENGRAD
 <Apr18-2019> <14:08:05>  current energy                               -0.51012944 Hartree
 <Apr18-2019> <14:08:05>  energy change                      -0.00001166     0.00010000    T
 <Apr18-2019> <14:08:05>  constrained gradient max            0.00379674     0.00010000    F
 <Apr18-2019> <14:08:05>  constrained gradient rms            0.00214135     0.00006667    F
 <Apr18-2019> <14:08:05>  gradient max                        0.00379674
 <Apr18-2019> <14:08:05>  gradient rms                        0.00214135
 <Apr18-2019> <14:08:05>  cart. step max                      0.02569073     0.01000000    F
 <Apr18-2019> <14:08:05>  cart. step rms                      0.01382185     0.00666667    F
  Coordinates in Geometry Cycle 34
    Atom         X           Y           Z   (Angstrom)
    1.F        -3.566275    0.042117    0.129847
    2.H        -2.643765    0.392992    0.736891
    3.F        -1.670455    0.702759    1.323491
 <Apr18-2019> <14:08:05>  >>>> CORORT
 <Apr18-2019> <14:08:05>  >>>> CLSMAT
 <Apr18-2019> <14:08:05>  >>>> ORTHON
 <Apr18-2019> <14:08:05>  >>>> GENPT
 <Apr18-2019> <14:08:05>  Block Length= 128
 <Apr18-2019> <14:08:05>  >>>> PTBAS
 <Apr18-2019> <14:08:05>  >>>> CYCLE
 <Apr18-2019> <14:08:05>              |Error|         MaxErr       Wt(A-DIIS)
 <Apr18-2019> <14:08:05>      1      0.02979326      0.01088547
 <Apr18-2019> <14:08:05>      2      0.00455967      0.00097658    100.0
 <Apr18-2019> <14:08:05>      3      0.00542583      0.00129600    100.0
 <Apr18-2019> <14:08:05>      4      0.00338636      0.00090600      0.0
 <Apr18-2019> <14:08:05>      5      0.00024265      0.00005004      0.0
 <Apr18-2019> <14:08:05>      6      0.00006644      0.00002060      0.0
 <Apr18-2019> <14:08:05>      7      0.00001366      0.00000429      0.0
 <Apr18-2019> <14:08:05>      8      0.00000100      0.00000031      0.0
 <Apr18-2019> <14:08:05>  SCF converged
 <Apr18-2019> <14:08:05>      9      0.00000011      0.00000002      0.0
 <Apr18-2019> <14:08:05>  >>>> TOTEN
 <Apr18-2019> <14:08:05>  >>>> POPAN
 <Apr18-2019> <14:08:05>  >>>> DEBYE
 <Apr18-2019> <14:08:05>  >>>> ENGRAD
 <Apr18-2019> <14:08:06>  current energy                               -0.51004606 Hartree
 <Apr18-2019> <14:08:06>  energy change                       0.00008338     0.00010000    T
 <Apr18-2019> <14:08:06>  constrained gradient max            0.00569542     0.00010000    F
 <Apr18-2019> <14:08:06>  constrained gradient rms            0.00302538     0.00006667    F
 <Apr18-2019> <14:08:06>  gradient max                        0.00569542
 <Apr18-2019> <14:08:06>  gradient rms                        0.00302538
 <Apr18-2019> <14:08:06>  cart. step max                      0.01256122     0.01000000    F
 <Apr18-2019> <14:08:06>  cart. step rms                      0.00711803     0.00666667    F
  Coordinates in Geometry Cycle 35
    Atom         X           Y           Z   (Angstrom)
    1.F        -3.570682    0.048477    0.135078
    2.H        -2.631204    0.384310    0.729273
    3.F        -1.678610    0.705081    1.325877
 <Apr18-2019> <14:08:06>  >>>> CORORT
 <Apr18-2019> <14:08:06>  >>>> CLSMAT
 <Apr18-2019> <14:08:06>  >>>> ORTHON
 <Apr18-2019> <14:08:06>  >>>> GENPT
 <Apr18-2019> <14:08:06>  Block Length= 128
 <Apr18-2019> <14:08:06>  >>>> PTBAS
 <Apr18-2019> <14:08:06>  >>>> CYCLE
 <Apr18-2019> <14:08:06>              |Error|         MaxErr       Wt(A-DIIS)
 <Apr18-2019> <14:08:06>      1      0.01888350      0.00686149
 <Apr18-2019> <14:08:06>      2      0.00661666      0.00188525    100.0
 <Apr18-2019> <14:08:06>      3      0.00254026      0.00062212    100.0
 <Apr18-2019> <14:08:06>      4      0.00526983      0.00154306    100.0
 <Apr18-2019> <14:08:06>      5      0.00047337      0.00012376      0.0
 <Apr18-2019> <14:08:06>      6      0.00011486      0.00002981      0.0
 <Apr18-2019> <14:08:06>      7      0.00001044      0.00000257      0.0
 <Apr18-2019> <14:08:06>      8      0.00000108      0.00000037      0.0
 <Apr18-2019> <14:08:06>  SCF converged
 <Apr18-2019> <14:08:06>      9      0.00000019      0.00000007      0.0
 <Apr18-2019> <14:08:06>  >>>> TOTEN
 <Apr18-2019> <14:08:06>  >>>> POPAN
 <Apr18-2019> <14:08:06>  >>>> DEBYE
 <Apr18-2019> <14:08:06>  >>>> ENGRAD
 <Apr18-2019> <14:08:06>  current energy                               -0.51016159 Hartree
 <Apr18-2019> <14:08:06>  energy change                      -0.00011553     0.00010000    F
 <Apr18-2019> <14:08:06>  constrained gradient max            0.00160529     0.00010000    F
 <Apr18-2019> <14:08:06>  constrained gradient rms            0.00100641     0.00006667    F
 <Apr18-2019> <14:08:06>  gradient max                        0.00160529
 <Apr18-2019> <14:08:06>  gradient rms                        0.00100641
 <Apr18-2019> <14:08:06>  cart. step max                      0.02865779     0.01000000    F
 <Apr18-2019> <14:08:06>  cart. step rms                      0.01428782     0.00666667    F
  Coordinates in Geometry Cycle 36
    Atom         X           Y           Z   (Angstrom)
    1.F        -3.565622    0.050488    0.134655
    2.H        -2.633607    0.355652    0.740957
    3.F        -1.681266    0.731728    1.314617
 <Apr18-2019> <14:08:06>  >>>> CORORT
 <Apr18-2019> <14:08:06>  >>>> CLSMAT
 <Apr18-2019> <14:08:06>  >>>> ORTHON
 <Apr18-2019> <14:08:06>  >>>> GENPT
 <Apr18-2019> <14:08:06>  Block Length= 128
 <Apr18-2019> <14:08:07>  >>>> PTBAS
 <Apr18-2019> <14:08:07>  >>>> CYCLE
 <Apr18-2019> <14:08:07>              |Error|         MaxErr       Wt(A-DIIS)
 <Apr18-2019> <14:08:07>      1      0.03025905      0.01085066
 <Apr18-2019> <14:08:07>      2      0.00831166      0.00250205    100.0
 <Apr18-2019> <14:08:07>      3      0.00335987      0.00086249    100.0
 <Apr18-2019> <14:08:07>      4      0.00651431      0.00198700    100.0
 <Apr18-2019> <14:08:07>      5      0.00040059      0.00008694      0.0
 <Apr18-2019> <14:08:07>      6      0.00010207      0.00003180      0.0
 <Apr18-2019> <14:08:07>      7      0.00000904      0.00000220      0.0
 <Apr18-2019> <14:08:07>      8      0.00000095      0.00000027      0.0
 <Apr18-2019> <14:08:07>  SCF converged
 <Apr18-2019> <14:08:07>      9      0.00000018      0.00000005      0.0
 <Apr18-2019> <14:08:07>  >>>> TOTEN
 <Apr18-2019> <14:08:07>  >>>> POPAN
 <Apr18-2019> <14:08:07>  >>>> DEBYE
 <Apr18-2019> <14:08:07>  >>>> ENGRAD
 <Apr18-2019> <14:08:07>  current energy                               -0.50999587 Hartree
 <Apr18-2019> <14:08:07>  energy change                       0.00016573     0.00010000    F
 <Apr18-2019> <14:08:07>  constrained gradient max            0.00742424     0.00010000    F
 <Apr18-2019> <14:08:07>  constrained gradient rms            0.00371073     0.00006667    F
 <Apr18-2019> <14:08:07>  gradient max                        0.00742424
 <Apr18-2019> <14:08:07>  gradient rms                        0.00371073
 <Apr18-2019> <14:08:07>  cart. step max                      0.01222337     0.01000000    F
 <Apr18-2019> <14:08:07>  cart. step rms                      0.00611041     0.00666667    T
  Coordinates in Geometry Cycle 37
    Atom         X           Y           Z   (Angstrom)
    1.F        -3.567296    0.039552    0.137001
    2.H        -2.630271    0.367876    0.735288
    3.F        -1.682928    0.730440    1.317940
 <Apr18-2019> <14:08:07>  >>>> CORORT
 <Apr18-2019> <14:08:07>  >>>> CLSMAT
 <Apr18-2019> <14:08:07>  >>>> ORTHON
 <Apr18-2019> <14:08:07>  >>>> GENPT
 <Apr18-2019> <14:08:07>  Block Length= 128
 <Apr18-2019> <14:08:07>  >>>> PTBAS
 <Apr18-2019> <14:08:07>  >>>> CYCLE
 <Apr18-2019> <14:08:08>              |Error|         MaxErr       Wt(A-DIIS)
 <Apr18-2019> <14:08:08>      1      0.01549523      0.00417378
 <Apr18-2019> <14:08:08>      2      0.00570110      0.00145663    100.0
 <Apr18-2019> <14:08:08>      3      0.01383923      0.00359019    100.0
 <Apr18-2019> <14:08:08>      4      0.00333695      0.00086411      0.0
 <Apr18-2019> <14:08:08>      5      0.00008208      0.00002227      0.0
 <Apr18-2019> <14:08:08>      6      0.00003707      0.00001185      0.0
 <Apr18-2019> <14:08:08>      7      0.00001256      0.00000431      0.0
 <Apr18-2019> <14:08:08>      8      0.00000073      0.00000019      0.0
 <Apr18-2019> <14:08:08>  SCF converged
 <Apr18-2019> <14:08:08>      9      0.00000008      0.00000002      0.0
 <Apr18-2019> <14:08:08>  >>>> TOTEN
 <Apr18-2019> <14:08:08>  >>>> POPAN
 <Apr18-2019> <14:08:08>  >>>> DEBYE
 <Apr18-2019> <14:08:08>  >>>> ENGRAD
 <Apr18-2019> <14:08:08>  current energy                               -0.51013150 Hartree
 <Apr18-2019> <14:08:08>  energy change                      -0.00013564     0.00010000    F
 <Apr18-2019> <14:08:08>  constrained gradient max            0.00360607     0.00010000    F
 <Apr18-2019> <14:08:08>  constrained gradient rms            0.00183132     0.00006667    F
 <Apr18-2019> <14:08:08>  gradient max                        0.00360607
 <Apr18-2019> <14:08:08>  gradient rms                        0.00183132
 <Apr18-2019> <14:08:08>  cart. step max                      0.01366305     0.01000000    F
 <Apr18-2019> <14:08:08>  cart. step rms                      0.00654962     0.00666667    T
  Coordinates in Geometry Cycle 38
    Atom         X           Y           Z   (Angstrom)
    1.F        -3.569213    0.025889    0.140744
    2.H        -2.626767    0.379314    0.730117
    3.F        -1.684515    0.732665    1.319367
 <Apr18-2019> <14:08:08>  >>>> CORORT
 <Apr18-2019> <14:08:08>  >>>> CLSMAT
 <Apr18-2019> <14:08:08>  >>>> ORTHON
 <Apr18-2019> <14:08:08>  >>>> GENPT
 <Apr18-2019> <14:08:08>  Block Length= 128
 <Apr18-2019> <14:08:08>  >>>> PTBAS
 <Apr18-2019> <14:08:08>  >>>> CYCLE
 <Apr18-2019> <14:08:08>              |Error|         MaxErr       Wt(A-DIIS)
 <Apr18-2019> <14:08:08>      1      0.01606509      0.00476142
 <Apr18-2019> <14:08:09>      2      0.00619567      0.00159389    100.0
 <Apr18-2019> <14:08:09>      3      0.01505155      0.00394968    100.0
 <Apr18-2019> <14:08:09>      4      0.00363982      0.00095837      0.0
 <Apr18-2019> <14:08:09>      5      0.00013460      0.00003848      0.0
 <Apr18-2019> <14:08:09>      6      0.00007579      0.00002196      0.0
 <Apr18-2019> <14:08:09>      7      0.00001048      0.00000364      0.0
 <Apr18-2019> <14:08:09>      8      0.00000078      0.00000020      0.0
 <Apr18-2019> <14:08:09>  SCF converged
 <Apr18-2019> <14:08:09>      9      0.00000008      0.00000003      0.0
 <Apr18-2019> <14:08:09>  >>>> TOTEN
 <Apr18-2019> <14:08:09>  >>>> POPAN
 <Apr18-2019> <14:08:09>  >>>> DEBYE
 <Apr18-2019> <14:08:09>  >>>> ENGRAD
 <Apr18-2019> <14:08:09>  current energy                               -0.51017272 Hartree
 <Apr18-2019> <14:08:09>  energy change                      -0.00004121     0.00010000    T
 <Apr18-2019> <14:08:09>  constrained gradient max            0.00011376     0.00010000    F
 <Apr18-2019> <14:08:09>  constrained gradient rms            0.00006011     0.00006667    T
 <Apr18-2019> <14:08:09>  gradient max                        0.00011376
 <Apr18-2019> <14:08:09>  gradient rms                        0.00006011
 <Apr18-2019> <14:08:09>  cart. step max                      0.00067845     0.01000000    T
 <Apr18-2019> <14:08:09>  cart. step rms                      0.00036488     0.00666667    T
  Coordinates in Geometry Cycle 39
    Atom         X           Y           Z   (Angstrom)
    1.F        -3.569077    0.026568    0.140371
    2.H        -2.626797    0.379303    0.730098
    3.F        -1.684622    0.731998    1.319760
 <Apr18-2019> <14:08:09>  >>>> CORORT
 <Apr18-2019> <14:08:09>  >>>> CLSMAT
 <Apr18-2019> <14:08:09>  >>>> ORTHON
 <Apr18-2019> <14:08:09>  >>>> GENPT
 <Apr18-2019> <14:08:09>  Block Length= 128
 <Apr18-2019> <14:08:09>  >>>> PTBAS
 <Apr18-2019> <14:08:09>  >>>> CYCLE
 <Apr18-2019> <14:08:09>              |Error|         MaxErr       Wt(A-DIIS)
 <Apr18-2019> <14:08:09>      1      0.00057386      0.00015659
 <Apr18-2019> <14:08:09>      2      0.00009121      0.00002243    100.0
 <Apr18-2019> <14:08:10>      3      0.00004845      0.00000861    100.0
 <Apr18-2019> <14:08:10>      4      0.00006027      0.00001851      0.0
 <Apr18-2019> <14:08:10>      5      0.00000672      0.00000233      0.0
 <Apr18-2019> <14:08:10>      6      0.00000344      0.00000108      0.0
 <Apr18-2019> <14:08:10>      7      0.00000017      0.00000004      0.0
 <Apr18-2019> <14:08:10>  SCF converged
 <Apr18-2019> <14:08:10>      8      0.00000002      0.00000000      0.0
 <Apr18-2019> <14:08:10>  >>>> TOTEN
 <Apr18-2019> <14:08:10>  >>>> POPAN
 <Apr18-2019> <14:08:10>  >>>> DEBYE
 <Apr18-2019> <14:08:10>  >>>> ENGRAD
 <Apr18-2019> <14:08:10>  current energy                               -0.51017279 Hartree
 <Apr18-2019> <14:08:10>  energy change                      -0.00000008     0.00010000    T
 <Apr18-2019> <14:08:10>  constrained gradient max            0.00002897     0.00010000    T
 <Apr18-2019> <14:08:10>  constrained gradient rms            0.00001463     0.00006667    T
 <Apr18-2019> <14:08:10>  gradient max                        0.00002897
 <Apr18-2019> <14:08:10>  gradient rms                        0.00001463
 <Apr18-2019> <14:08:10>  cart. step max                      0.00028398     0.01000000    T
 <Apr18-2019> <14:08:10>  cart. step rms                      0.00015243     0.00666667    T
 <Apr18-2019> <14:08:10>  GEOMETRY CONVERGED
 <Apr18-2019> <14:08:10>  Calculating Energy Terms for Final Geometry
  Coordinates in Geometry Cycle 39
    Atom         X           Y           Z   (Angstrom)
    1.F        -3.569077    0.026568    0.140371
    2.H        -2.626797    0.379303    0.730098
    3.F        -1.684622    0.731998    1.319760
 <Apr18-2019> <14:08:10>  >>>> CORORT
 <Apr18-2019> <14:08:10>  >>>> CLSMAT
 <Apr18-2019> <14:08:10>  >>>> ORTHON
 <Apr18-2019> <14:08:10>  >>>> GENPT
 <Apr18-2019> <14:08:10>  Block Length= 128
 <Apr18-2019> <14:08:10>  >>>> PTBAS
 <Apr18-2019> <14:08:10>  >>>> CYCLE
 <Apr18-2019> <14:08:10>              |Error|         MaxErr       Wt(A-DIIS)
 <Apr18-2019> <14:08:10>      1      0.00000000      0.00000000
 <Apr18-2019> <14:08:10>      2      0.00000001      0.00000000    100.0
 <Apr18-2019> <14:08:10>  SCF converged
 <Apr18-2019> <14:08:10>      3      0.00000000      0.00000000    100.0
 <Apr18-2019> <14:08:10>  >>>> TOTEN
 <Apr18-2019> <14:08:11>  >>>> POPAN
 <Apr18-2019> <14:08:11>  >>>> DEBYE
 <Apr18-2019> <14:08:11>  >>>> AMETS
 <Apr18-2019> <14:08:11>  >>>> POPUL
 <Apr18-2019> <14:08:11>   Bond Energy          -0.51017279 a.u.
 <Apr18-2019> <14:08:11>   Bond Energy         -13.88250807 eV
 <Apr18-2019> <14:08:11>   Bond Energy        -320.14       kcal/mol
 <Apr18-2019> <14:08:11>  >>>> ENHESS
 <Apr18-2019> <14:08:11>  === NUCLEUS:     1
 <Apr18-2019> <14:08:12>  === NUCLEUS:     2
 <Apr18-2019> <14:08:13>  === NUCLEUS:     3
 <Apr18-2019> <14:08:15>  >>>> CALC_HESS_PMAT
 <Apr18-2019> <14:08:15>  >>>> CALC_HESS_WMAT
 <Apr18-2019> <14:08:15>  NORMAL TERMINATION
 <Apr18-2019> <14:08:15>  END
