
Create F   file=TZ2P-F
XC
  GGA blyp
  DISPERSION Grimme3 BJDAMP
End
End Input

 *******************************************************************************
 *                                                                             *
 *  -------------------------------------                                      *
 *   Amsterdam Density Functional  (ADF)         development version           *
 *  -------------------------------------                                      *
 *                                               r61132 2017-09-08             *
 *                                                                             *
 *                                                                             *
 *                              =================                              *
 *                              |               |                              *
 *                              |     A D F     |                              *
 *                              |               |                              *
 *                              =================                              *
 *                                                                             *
 *                                                                             *
 *   Online information and documentation:  https://www.scm.com/support/       *
 *   E-mail:  support@scm.com   info@scm.com                                   *
 *                                                                             *
 *   Scientific publications using ADF results must be properly referenced     *
 *   See the User Manuals (or the web site) for recommended citations          *
 *   The terms and conditions of the End User License Agreement apply to       *
 *   the use of ADF, https://www.scm.com/license-terms/                        *
 *                                                                             *
 **********************  x86_64_linux_intel / intelmpi  ************************
 
 Licensed to: VU/FEW (+ SARA) / ALGEMEEN / Amsterdam / THE NETHERLANDS
 SCM User ID: u7668
  
 ADF development version  RunTime: Apr18-2019 21:31:48  Nodes: 1  Procs: 1

 Temporary files are created in /local/datastore0/tcst25/186805/kid_0.q8NsWq

 Fluorine (TZ2P)



 ===========================
 A T T A C H E D   F I L E S
 ===========================
  
 CREATE - Data File:    TZ2P-F
                        Fluorine (TZ2P)



 ===============================
 M O D E L   P A R A M E T E R S
 ===============================
  
 DENSITY FUNCTIONAL POTENTIAL (scf)
    LDA:                               Exchange only                           == Not Default ==
    Gradient Corrections:              Becke88 LYP                             == Not Default ==

 SPIN  (restricted / unrestr.)
    Molecule:                          Restricted                               

 OTHER ASPECTS
    Relativistic Corrections:          ---                                      

    Nuclear Charge Density Model:      Point Charge Nuclei                      
    Core Treatment:                    Frozen Orbital(s)                        

    Hyperfine or Zeeman Interaction:   ---                                      

 Settings for Grimme 3 dispersion correction

      damping                        BJ
      s6                          1.000
      a1                          0.430
      s8                          2.700
      a2                          4.236

 Other (technical) parameters

      alpha                      14.000
      version                         4
 



 =====================================
 S Y M M E T R Y ,   E L E C T R O N S
 =====================================
  
 Symmetry: ATOM

 Irreducible Representations, including subspecies
 -------------------------------------------------
 S
 P:x  P:y  P:z
 D:z2  D:x2-y2  D:xy  D:xz  D:yz
 F:z3  F:z  F:xyz  F:z2x  F:z2y  F:x  F:y


 Configuration of Valence Electrons
 ==================================

          Occupation Numbers
          -------------------------------------------------
 S        2*2
 P        5
 D        0
 F        0
          -------------------------------------------------

 Total:   9

 Net Charge: 0 (Nuclei minus Electrons)

 Preset values for MO occupations will be applied through SCF cycle no. 1000000
 Thereafter, the program will assign electrons to MOs that are spatially
 similar to the occupied MOs in a "reference" cycle ("KeepOrbitals").
 The reference cycle is always the PREVIOUS cycle: it will evolve with
 the SCF procedure.



 ================================
 (Slater-type)  F U N C T I O N S  ***  (Basis and Fit)  ***
 ================================
  

 Atom Type    1  (F)
 ==============

 Valence Basis Sets:  10
 -----------------------
   1 S   10.880000
   1 S    7.700000
   2 S    3.240000
   2 S    1.940000
   2 S    0.740000
   2 P    4.540000
   2 P    2.300000
   2 P    1.240000
   3 D    2.000000
   4 F    3.000000


 BAS: List of all Elementary Cartesian Basis Functions
 =====================================================

 The numbering in the list below (to the right of the function characteristics) is referred
 to in print-outs of MO eigenvectors and Mulliken populations in the BAS representation
 (as contrasted to the SFO representation).

 Notes:
 1. The functions are characterized by a polynomial prefactor (powers of x,y,z and r) and
    an exponential decay factor alpha.
 2. Since the basis sets are specific for an atom TYPE, the individual functions occur on
    all atoms of that type.
 3. The word 'Core' in the left margin signals that it is a Core Function (CF) : not a
    degree of freedom in the valence set, but only used to ensure orthogonalization of
    the other valence basis functions on the frozen Core Orbitals.


 (power of) X  Y  Z  R     Alpha  on Atom
            ==========     =====     ==========

 F                                    1
                                  ---------------------------------------------------------------------------
            0  0  0  0    10.880      1
            0  0  0  0     7.700      2
            0  0  0  1     3.240      3
            0  0  0  1     1.940      4
            0  0  0  1     0.740      5
            1  0  0  0     4.540      6
            0  1  0  0     4.540      7
            0  0  1  0     4.540      8
            1  0  0  0     2.300      9
            0  1  0  0     2.300     10
            0  0  1  0     2.300     11
            1  0  0  0     1.240     12
            0  1  0  0     1.240     13
            0  0  1  0     1.240     14
            2  0  0  0     2.000     15
            1  1  0  0     2.000     16
            1  0  1  0     2.000     17
            0  2  0  0     2.000     18
            0  1  1  0     2.000     19
            0  0  2  0     2.000     20
            3  0  0  0     3.000     21
            2  1  0  0     3.000     22
            2  0  1  0     3.000     23
            1  2  0  0     3.000     24
            1  1  1  0     3.000     25
            1  0  2  0     3.000     26
            0  3  0  0     3.000     27
            0  2  1  0     3.000     28
            0  1  2  0     3.000     29
            0  0  3  0     3.000     30

 Total number of charge fitting functions (nprimf)        85
 Total number of Cartesian basis functions (naos)         30
 Total number of Cartesian core functions  (ncos)          0



 BAS: List of all Elementary Cartesian Basis Functions
 =====================================================

 The numbering in the list below (to the right of the function characteristics) is referred
 to in print-outs of MO eigenvectors and Mulliken populations in the BAS representation
 (as contrasted to the SFO representation).

 Notes:
 1. The functions are characterized by a polynomial prefactor (powers of x,y,z and r) and
    an exponential decay factor alpha.
 2. Since the basis sets are specific for an atom TYPE, the individual functions occur on
    all atoms of that type.
 3. The word 'Core' in the left margin signals that it is a Core Function (CF) : not a
    degree of freedom in the valence set, but only used to ensure orthogonalization of
    the other valence basis functions on the frozen Core Orbitals.


 (power of) X  Y  Z  R     Alpha  on Atom
            ==========     =====     ==========

 F                                    1
                                  ---------------------------------------------------------------------------
            0  0  0  0    10.880      1
            0  0  0  0     7.700      2
            0  0  0  1     3.240      3
            0  0  0  1     1.940      4
            0  0  0  1     0.740      5
            1  0  0  0     4.540      6
            0  1  0  0     4.540      7
            0  0  1  0     4.540      8
            1  0  0  0     2.300      9
            0  1  0  0     2.300     10
            0  0  1  0     2.300     11
            1  0  0  0     1.240     12
            0  1  0  0     1.240     13
            0  0  1  0     1.240     14
            2  0  0  0     2.000     15
            1  1  0  0     2.000     16
            1  0  1  0     2.000     17
            0  2  0  0     2.000     18
            0  1  1  0     2.000     19
            0  0  2  0     2.000     20
            3  0  0  0     3.000     21
            2  1  0  0     3.000     22
            2  0  1  0     3.000     23
            1  2  0  0     3.000     24
            1  1  1  0     3.000     25
            1  0  2  0     3.000     26
            0  3  0  0     3.000     27
            0  2  1  0     3.000     28
            0  1  2  0     3.000     29
            0  0  3  0     3.000     30
1
 ***************************************************************************************************



                                              ***********************
                                              *  T E C H N I C A L  *
                                              ***********************
  



 =============================================================
 P A R A L L E L I Z A T I O N  and  V E C T O R I Z A T I O N
 =============================================================
  
 Nr of parallel processes:                                1
 Maximum vector length in NumInt loops:                 128

 IO buffersize (Mb):                                     64.000000



 =====================
 S C F   U P D A T E S
 =====================
  
 Max. nr. of cycles:                               300
 Convergence criterion:                              0.0000000100
   secondary criterion:                              0.0000000100

 Mix parameter (when DIIS does not apply):           0.2000000000
 Special mix parameter for the first cycle:          1.0000000000
 Mixed ADIIS+DIIS will be used
    Max number of expansion vectors:                10
    Pure ADIIS when Max([F,P]) is above              0.1000000000
    Pure DIIS when Max([F,P]) is below               0.0010000000
 Automatic ElectronSmearing (in case of problematic SCF convergence) disabled



 =================
 P R E C I S I O N  ***  (General: NumInt, NeglectFunctionTails, ...)  ***
 =================
  

 NumInt:           Target precision:                12.0000000000
 -------           Initial precision:               10.0000000000
                   Min. precision (optimization):   10.0000000000

 Neglect Functions:          Basis functions:        0.1000000000E-13
 ------------------          Fit functions:          0.1000000000E-13



 ===========================
 L I N E A R   S C A L I N G
 ===========================
  

 Cut-off radii density fit:                        0.1000000000E-97
 Overlap cut-off criterion AO matrix elements:     0.1000000000E-97
 Cut-offs for Coulomb potential and fitted density:0.1000000000E-97
 Cut-off criterion for Coulomb multipole terms:    0.1000000000E-97
 Progressive Convergence parameter:                 0.000000000    
1
 ***************************************************************************************************



                                            ***************************
                                            *  C O M P U T A T I O N  *
                                            ***************************
  

 Number of elements of the density matrix on this node (used, total):       465       465



 ===========================================
 Numerical Integration : Fuzzy Cells (Becke)
 ===========================================
  
 Becke grid quality: VERYGOOD       
  
 Lebedev angular grid order:             min:  13 max:  41
 Nr. of radial points:                   min:  76 max:  76

 Total nr. of points:         76
 Nr. of blocks:                1
 Block length:                76
 Nr. of dummy points:          0


 Test of Precision of the Numerical Integration Grid
 ===================================================

 Integral of the Total Core Density:                   0.00000000000000



 ========================
 Density Fitting (zlmFit)
 ========================
  
 ZlmFit Fit Quality: VERYGOOD       
  
 Max L-expansion:                        min:   0 max:   0
 Nr. of radial interpolation points:     min: 170 max: 170



 =====
 S C F  ***  ScaSCF  ***
 =====
  

 CYCLE    1
 SCF Error: norm([F,P])=      0.000000000000, max([F,P])=      0.000000000000
 orbitals (Q,E):
 ---------------
 S :1...5            ( 2.00   -40.4878)  ( 2.00   -10.0106)  ( 0.00    -4.4145)  ( 0.00    -2.1243)
                     ( 0.00    34.3132)
 P :1...3            ( 5.00   -10.1248)  ( 0.00    -4.4262)  ( 0.00    -2.4124)
 D :1...1            ( 0.00    -4.0000)
 F :1...1            ( 0.00    -2.2500)

 CYCLE    2
  SDIIS (wt  0.000):  1.0000 -0.0000
 A-DIIS (wt  1.000):  0.0000  1.0000
  DIIS coefficients:  0.0000  1.0000
 SCF Error: norm([F,P])=     11.373794780581, max([F,P])=      4.777759414031
 orbitals (Q,E):
 ---------------
 S :1...3            ( 2.00   -18.8794)  ( 2.00    -0.0304)  ( 0.00     0.3093)
 P :1...2            ( 5.00     0.3553)  ( 0.00     1.5643)
 D :1...1            ( 0.00     1.6494)
 F :1...1            ( 0.00     4.0453)

 CYCLE    3
  SDIIS (wt  0.000):  0.2302  0.7698
 A-DIIS (wt  1.000):  0.4427  0.5573
  DIIS coefficients:  0.4427  0.5573
 SCF Error: norm([F,P])=      5.107371177545, max([F,P])=      3.125425661947
 orbitals (Q,E):
 ---------------
 S :1...3            ( 2.00   -24.7932)  ( 2.00    -1.7827)  ( 0.00    -0.0636)
 P :1...2            ( 5.00    -1.0793)  ( 0.00     0.2021)
 D :1...1            ( 0.00     0.6865)
 F :1...1            ( 0.00     2.8888)

 CYCLE    4
  SDIIS (wt  0.000): -0.0128  0.1085  0.9043
 A-DIIS (wt  1.000):  0.0000  0.0000  1.0000
  DIIS coefficients:  0.0000  0.0000  1.0000
 SCF Error: norm([F,P])=      0.965884247460, max([F,P])=      0.451655557762
 orbitals (Q,E):
 ---------------
 S :1...3            ( 2.00   -23.6749)  ( 2.00    -0.7847)  ( 0.00     0.0644)
 P :1...2            ( 5.00    -0.1299)  ( 0.00     0.5762)
 D :1...1            ( 0.00     1.2513)
 F :1...1            ( 0.00     3.5825)

 CYCLE    5
  SDIIS (wt  0.000):  0.0122 -0.0391  0.5749  0.4520
 A-DIIS (wt  1.000):  0.0000  0.0000  0.6712  0.3288
  DIIS coefficients:  0.0000  0.0000  0.6712  0.3288
 SCF Error: norm([F,P])=      1.674963411166, max([F,P])=      0.825318021724
 orbitals (Q,E):
 ---------------
 S :1...3            ( 2.00   -24.3044)  ( 2.00    -1.0529)  ( 0.00     0.0313)
 P :1...2            ( 5.00    -0.3714)  ( 0.00     0.4442)
 D :1...1            ( 0.00     1.1317)
 F :1...1            ( 0.00     3.4351)

 CYCLE    6
  SDIIS (wt  0.024):  0.0029  0.0040  0.0564 -0.0876  1.0243
 A-DIIS (wt  0.976):  0.0000  0.0000  0.0000  0.0000  1.0000
  DIIS coefficients:  0.0001  0.0001  0.0013 -0.0021  1.0006
 SCF Error: norm([F,P])=      0.199607562059, max([F,P])=      0.097634841195
 orbitals (Q,E):
 ---------------
 S :1...3            ( 2.00   -24.5137)  ( 2.00    -1.1478)  ( 0.00     0.0173)
 P :1...2            ( 5.00    -0.4644)  ( 0.00     0.4071)
 D :1...1            ( 0.00     1.0935)
 F :1...1            ( 0.00     3.3875)

 CYCLE    7
  SDIIS (wt  0.000): -0.0005  0.0010  0.0222 -0.0066  0.6116  0.3724
 A-DIIS (wt  1.000):  0.0000  0.0000  0.0000  0.0000  0.6122  0.3878
  DIIS coefficients:  0.0000  0.0000  0.0000  0.0000  0.6122  0.3878
 SCF Error: norm([F,P])=      0.266507541610, max([F,P])=      0.126514736478
 orbitals (Q,E):
 ---------------
 S :1...3            ( 2.00   -24.3946)  ( 2.00    -1.0985)  ( 0.00     0.0225)
 P :1...2            ( 5.00    -0.4159)  ( 0.00     0.4255)
 D :1...1            ( 0.00     1.1136)
 F :1...1            ( 0.00     3.4123)

 CYCLE    8
  SDIIS (wt  0.859):  0.0000 -0.0000 -0.0010  0.0023  0.0294 -0.0834  1.0527
 A-DIIS (wt  0.141):  0.0000  0.0000  0.0000  0.0000  0.0000  0.0000  1.0000
  DIIS coefficients:  0.0000 -0.0000 -0.0009  0.0020  0.0252 -0.0716  1.0453
 SCF Error: norm([F,P])=      0.030968782312, max([F,P])=      0.014981503364
 orbitals (Q,E):
 ---------------
 S :1...3            ( 2.00   -24.3770)  ( 2.00    -1.0904)  ( 0.00     0.0233)
 P :1...2            ( 5.00    -0.4080)  ( 0.00     0.4287)
 D :1...1            ( 0.00     1.1172)
 F :1...1            ( 0.00     3.4167)

 CYCLE    9
  SDIIS (wt  0.981): -0.0000  0.0000 -0.0001 -0.0004  0.0017  0.0154  0.0457  0.9377
 A-DIIS (wt  0.019):  0.0000  0.0000  0.0000  0.0000  0.0000  0.0000  0.0000  1.0000
  DIIS coefficients: -0.0000  0.0000 -0.0001 -0.0004  0.0017  0.0151  0.0448  0.9389
 SCF Error: norm([F,P])=      0.006059807167, max([F,P])=      0.002904332574
 orbitals (Q,E):
 ---------------
 S :1...3            ( 2.00   -24.3801)  ( 2.00    -1.0917)  ( 0.00     0.0232)
 P :1...2            ( 5.00    -0.4093)  ( 0.00     0.4282)
 D :1...1            ( 0.00     1.1167)
 F :1...1            ( 0.00     3.4160)

 CYCLE   10
  SDIIS (wt  1.000): -0.0000  0.0000  0.0000 -0.0000 -0.0005 -0.0009  1.0014
  DIIS coefficients: -0.0000  0.0000  0.0000 -0.0000 -0.0005 -0.0009  1.0014
 SCF Error: norm([F,P])=      0.000165576581, max([F,P])=      0.000079185113
 orbitals (Q,E):
 ---------------
 S :1...3            ( 2.00   -24.3800)  ( 2.00    -1.0917)  ( 0.00     0.0232)
 P :1...2            ( 5.00    -0.4092)  ( 0.00     0.4282)
 D :1...1            ( 0.00     1.1167)
 F :1...1            ( 0.00     3.4160)

 CYCLE   11
  SDIIS (wt  1.000): -0.0000  0.0000 -0.0000 -0.0003 -0.0117  1.0121
  DIIS coefficients: -0.0000  0.0000 -0.0000 -0.0003 -0.0117  1.0121
 SCF Error: norm([F,P])=      0.000000045102, max([F,P])=      0.000000021900
 orbitals (Q,E):
 ---------------
 S :1...3            ( 2.00   -24.3800)  ( 2.00    -1.0917)  ( 0.00     0.0232)
 P :1...2            ( 5.00    -0.4092)  ( 0.00     0.4282)
 D :1...1            ( 0.00     1.1167)
 F :1...1            ( 0.00     3.4160)

 CYCLE   12
  SDIIS (wt  1.000): -0.0000  0.0075  0.9925
  DIIS coefficients: -0.0000  0.0075  0.9925
 SCF Error: norm([F,P])=      0.000000000761, max([F,P])=      0.000000000372
 orbitals (Q,E):
 ---------------
 S :1...3            ( 2.00   -24.3800)  ( 2.00    -1.0917)  ( 0.00     0.0232)
 P :1...2            ( 5.00    -0.4092)  ( 0.00     0.4282)
 D :1...1            ( 0.00     1.1167)
 F :1...1            ( 0.00     3.4160)

 SCF CONVERGED

 CYCLE   13
1
 ***************************************************************************************************



                                                *******************
                                                *  R E S U L T S  *
                                                *******************
  
 *** Setting up for NEW gradients in Focky
 *** Using FIT density in Focky

 Orbital Energies, per Irrep and Spin:
 ======================================
                        Occup              E (au)              E (eV)       Diff (eV) with prev. cycle
                        -----      --------------------        ------       --------------------------
 S
               1        2.000     -0.24380013662793E+02      -663.414              -5.70E-10
               2        2.000     -0.10916696572490E+01       -29.706              -4.11E-10
               3        0.000      0.23171521938657E-01         0.631
               4        0.000      0.15801599788495E+01        42.998
               5        0.000      0.48367571090263E+02      1316.149
 P
               1        5.000     -0.40924594303694E+00       -11.136              -3.94E-10
               2        0.000      0.42818717158446E+00        11.652
               3        0.000      0.45634501130520E+01       124.178
 D
               1        0.000      0.11166683619357E+01        30.386
 F
               1        0.000      0.34160293329535E+01        92.955


 Partially Occupied:
               1 P                -0.40924594303694E+00
  
 HOMO :        2 S                -0.10916696572490E+01
 LUMO :        3 S                 0.23171521938657E-01
  


 Orbital Energies, all Irreps
 ========================================

 Irrep        no.  (spin)   Occup              E (au)                E (eV)
 ---------------------------------------------------------------------------
 S             1             2.00       -0.24380013662793E+02      -663.4139
 S             2             2.00       -0.10916696572490E+01       -29.7058
 P             1             5.00       -0.40924594303694E+00       -11.1361
 S             3             0.00        0.23171521938657E-01         0.6305
 P             2             0.00        0.42818717158446E+00        11.6516
 D             1             0.00        0.11166683619357E+01        30.3861
 S             4             0.00        0.15801599788495E+01        42.9983
 F             1             0.00        0.34160293329535E+01        92.9549
 P             3             0.00        0.45634501130520E+01       124.1778
 S             5             0.00        0.48367571090263E+02      1316.1486


 All Electron Calculation, thus no Orbital Energies of the Core Orbitals are calculated



 =======================================
 M U L L I K E N   P O P U L A T I O N S
 =======================================
  
 The survey below gives for each atom:
 a) the total charge (Z minus electrons)
 b) the net spin polarization (nr of electrons spin-A minus spin-B)
 c) for each spin the atomic electron valence density (integrated) per L-value.

 Atom              Charge    Spin density          S         P         D         F
 ----              ------    ------------       ------    ------    ------    ------
 1 F              -0.0000                       4.0000    5.0000    0.0000    0.0000

 Populations of individual BAS functions
 ----------------------------------------
 1 F            0.5735  1.4020  1.1462  0.8789 -0.0006  0.3652  0.3652  0.3652  0.9146  0.9146
                0.9146  0.3869  0.3869  0.3869  0.0000  0.0000  0.0000  0.0000  0.0000  0.0000
                0.0000  0.0000  0.0000  0.0000  0.0000  0.0000  0.0000  0.0000  0.0000  0.0000

 Gross Charges per Atom (Z minus electrons)
 ==========================================
            -0.0000
 Net Total: -0.00000000



 =======================================================================
 Electrostatic potential at the Nuclei due to electrons and other nuclei
 =======================================================================
  
         Atom                  Potential
         ----                  ---------
     1)   F                  26.51041126
 
 
 ========================
 No memory problems found
 ========================
 
 Maximum number of active allocate calls:         447
 
 *******************************************************************************

                             A D F   E X I T
 NORMAL TERMINATION



 =================
 Timing Statistics
 =================
  
 Total Used :                     CPU=        0.51      System=        0.02     Elapsed=        0.53

 Calls  Section                     ( Mean, Percentage )
 ---------------------------------------------------------------------------------------------------
     3  ><      ................      0.00    0.20             0.00    0.00             0.00    0.15
     1  INIT    ................      0.01    1.58             0.01   65.22             0.02    4.68
     1  GEOMET  ................      0.01    1.38             0.00    8.70             0.01    1.59
     1  INPUTA  ................      0.00    0.20             0.00    0.00             0.00    0.29
     1  MAINSY  ................      0.00    0.79             0.00    8.69             0.01    1.12
     1  SYMFIT  ................      0.00    0.00             0.00    4.35             0.00    0.15
     1  CORORT  ................      0.00    0.00             0.00    0.00             0.00    0.05
     1  SYMORB  ................      0.00    0.20             0.00    0.00             0.00    0.13
     1  CLSMAT  ................      0.00    0.99             0.00    0.00             0.01    0.98
     1  ORTHON  ................      0.00    0.20             0.00    0.00             0.00    0.28
     1  GENPT   ................      0.01    2.96             0.00    0.00             0.01    2.78
     1  PTBAS   ................      0.00    0.79             0.00    0.00             0.00    0.65
    13  FOCKY   ................      0.03   75.74             0.00    4.35             0.03   72.43
    13  FOCKTR  ................      0.00    1.97             0.00    0.00             0.00    2.03
    13  SDIIS   ................      0.00    4.14             0.00    4.35             0.00    4.00
     1  COREPS  ................      0.02    4.14             0.00    4.35             0.02    4.15
     1  POPAN   ................      0.00    0.99             0.00    0.00             0.01    0.98
     1  DEBYE   ................      0.00    0.20             0.00    0.00             0.00    0.11
     1  EXIT PROCEDURE .........      0.02    3.55             0.00    0.00             0.02    3.47


 Currently Open Files (EXIT00)
 ====================

 Unit    Access Format  Status   Type       Ident (file)
 -------------------------------------------------------
   3      SEQ    FORM   TRANSP  NORMAL      LOGFILE
                                          ( logfile )


 Buffered I/O statistics
 =======================
 Memory available:                     67108864
 Number of records fitting in memory:     16131
 Input :   0.1% of                        27818  *4k bytes
 Output:  13.5% of                         1383  *4k bytes
 Records from serial files evicted:           0
                    others evicted:           0
 Hash table lookups:      71870 with          0 conflicts (  0.00%)

 ***************************************************************************************************
 (LOGFILE)
 <Apr18-2019> <21:31:48>  ADF development version  RunTime: Apr18-2019 21:31:48  Nodes: 1  Procs: 1
 <Apr18-2019> <21:31:48>  Fluorine (TZ2P)
 <Apr18-2019> <21:31:49>  RunType   : CREATE
 <Apr18-2019> <21:31:49>  Net Charge: 0 (Nuclei minus Electrons)
 <Apr18-2019> <21:31:49>  Symmetry  : ATOM
  Coordinates
    Atom         X           Y           Z   (Angstrom)
    1.F         0.000000    0.000000    0.000000
 <Apr18-2019> <21:31:49>  >>>> CORORT
 <Apr18-2019> <21:31:49>  >>>> CLSMAT
 <Apr18-2019> <21:31:49>  >>>> ORTHON
 <Apr18-2019> <21:31:49>  >>>> GENPT
 <Apr18-2019> <21:31:49>  Block Length=  76
 <Apr18-2019> <21:31:49>  >>>> PTBAS
 <Apr18-2019> <21:31:49>  >>>> CYCLE
 <Apr18-2019> <21:31:49>              |Error|         MaxErr       Wt(A-DIIS)
 <Apr18-2019> <21:31:49>      1      0.00000000      0.00000000
 <Apr18-2019> <21:31:49>      2     11.37379478      4.77775941    100.0
 <Apr18-2019> <21:31:49>      3      5.10737118      3.12542566    100.0
 <Apr18-2019> <21:31:49>      4      0.96588425      0.45165556    100.0
 <Apr18-2019> <21:31:49>      5      1.67496341      0.82531802    100.0
 <Apr18-2019> <21:31:49>      6      0.19960756      0.09763484     97.6
 <Apr18-2019> <21:31:49>      7      0.26650754      0.12651474    100.0
 <Apr18-2019> <21:31:49>      8      0.03096878      0.01498150     14.1
 <Apr18-2019> <21:31:49>      9      0.00605981      0.00290433      1.9
 <Apr18-2019> <21:31:49>     10      0.00016558      0.00007919      0.0
 <Apr18-2019> <21:31:49>     11      0.00000005      0.00000002      0.0
 <Apr18-2019> <21:31:49>     12      0.00000000      0.00000000      0.0
 <Apr18-2019> <21:31:49>  SCF converged
 <Apr18-2019> <21:31:49>     13      0.00000000      0.00000000      0.0
 <Apr18-2019> <21:31:49>  >>>> POPAN
 <Apr18-2019> <21:31:49>  >>>> DEBYE
 <Apr18-2019> <21:31:49>  NORMAL TERMINATION
 <Apr18-2019> <21:31:49>  END


 Parallel Execution: Process Information
 ==============================================================================
 Rank   Node Name                              NodeID   MyNodeRank  NodeMaster
    0   BAZIS-cn076                               0          0          0
    1   BAZIS-cn076                               0          1         -1
    2   BAZIS-cn076                               0          2         -1
    3   BAZIS-cn076                               0          3         -1
    4   BAZIS-cn076                               0          4         -1
    5   BAZIS-cn076                               0          5         -1
    6   BAZIS-cn076                               0          6         -1
    7   BAZIS-cn076                               0          7         -1
    8   BAZIS-cn076                               0          8         -1
    9   BAZIS-cn076                               0          9         -1
   10   BAZIS-cn076                               0         10         -1
   11   BAZIS-cn076                               0         11         -1
 ==============================================================================


May use up to 30736MB of RAM as shared memory on node 0


XC
  GGA blyp
  DISPERSION Grimme3 BJDAMP
END

ANALYTICALFREQ
END

SCF
  iterations 250
END

SYMMETRY nosym
CHARGE -1

ZLMFIT
  Quality normal
END

BECKEGRID
  Quality good
End

ATOMS
    3.F        -1.684622    0.731998    1.319760
END

Fragments
F t21.F
End
end input

 *******************************************************************************
 *                                                                             *
 *  -------------------------------------                                      *
 *   Amsterdam Density Functional  (ADF)         development version           *
 *  -------------------------------------                                      *
 *                                               r61132 2017-09-08             *
 *                                                                             *
 *                                                                             *
 *                              =================                              *
 *                              |               |                              *
 *                              |     A D F     |                              *
 *                              |               |                              *
 *                              =================                              *
 *                                                                             *
 *                                                                             *
 *   Online information and documentation:  https://www.scm.com/support/       *
 *   E-mail:  support@scm.com   info@scm.com                                   *
 *                                                                             *
 *   Scientific publications using ADF results must be properly referenced     *
 *   See the User Manuals (or the web site) for recommended citations          *
 *   The terms and conditions of the End User License Agreement apply to       *
 *   the use of ADF, https://www.scm.com/license-terms/                        *
 *                                                                             *
 **********************  x86_64_linux_intel / intelmpi  ************************
 
 Licensed to: VU/FEW (+ SARA) / ALGEMEEN / Amsterdam / THE NETHERLANDS
 SCM User ID: u7668
  
 ADF development version  RunTime: Apr18-2019 21:31:49  Nodes: 1  Procs: 12

 Temporary files are created in /local/datastore0/tcst25/186805/kid_0.Hnc0ni


Communication costs MPI_COMM_WORLD:      2.727 usec per message,   0.0132 usec per 8-byte item
Communication costs for intra-node:      2.724 usec per message,   0.0132 usec per 8-byte item

 *** (NO TITLE) ***



 ===========================
 A T T A C H E D   F I L E S
 ===========================
  



 ===============================
 M O D E L   P A R A M E T E R S
 ===============================
  
 DENSITY FUNCTIONAL POTENTIAL (scf)
    LDA:                               Exchange only                           == Not Default ==
    Gradient Corrections:              Becke88 LYP                             == Not Default ==

 SPIN  (restricted / unrestr.)
    Molecule:                          Restricted                               
    Fragments:                         Restricted                               

 OTHER ASPECTS
    Relativistic Corrections:          ---                                      

    Nuclear Charge Density Model:      Point Charge Nuclei                      
    Core Treatment:                    Frozen Orbital(s)                        

    Hyperfine or Zeeman Interaction:   ---                                      

 Settings for Grimme 3 dispersion correction

      damping                        BJ
      s6                          1.000
      a1                          0.430
      s8                          2.700
      a2                          4.236

 Other (technical) parameters

      alpha                      14.000
      version                         4
 


 Fragment File(s)
 ----------------
 F:
         file : t21.F
         jobid: ADF development version  RunTime: Apr18-2019 21:31:48  Nodes: 1  Procs: 1
         title: Fluorine (TZ2P)

 *******************************************************************************

 ADF EXIT called
 wrong nr. of rigids

 *******************************************************************************
 *******************************************************************************

                             A D F   E X I T
 
 ============
 Timer stack:
 ------------
  1555615909.60  ADF                                                             
  1555615910.19  Geomet                                                          
 ============

 wrong nr. of rigids


 Current Execution Stack has  4 elements
 Last to be Executed : ADF

 Stack of Active SubPrograms:
 ----------------------------
 RIGIDS                        
 FREQIN                        
 GEOMET                        
 ADF                           



 =================
 Timing Statistics
 =================
  
 Total Used :                     CPU=        0.52      System=        0.03     Elapsed=        0.55

 Calls  Section                     ( Mean, Percentage )
 ---------------------------------------------------------------------------------------------------
     2  ><      ................      0.00    0.00             0.00    0.00             0.00    0.00
     1  INIT    ................      0.50   96.72             0.02   76.67             0.52   95.54
     1  EXIT PROCEDURE .........      0.02    3.28             0.01   23.33             0.02    4.45


 Currently Open Files (EXIT00)
 ====================

 Unit    Access Format  Status   Type       Ident (file)
 -------------------------------------------------------
   3      SEQ    FORM   TRANSP  NORMAL      LOGFILE
                                          ( logfile )


 Buffered I/O statistics
 =======================
 Memory available:                     67108864
 Number of records fitting in memory:     16131
 Input :  11.3% of                         2114  *4k bytes
 Output:  34.5% of                          145  *4k bytes
 Records from serial files evicted:           0
                    others evicted:           0
 Hash table lookups:       5529 with          0 conflicts (  0.00%)

 ***************************************************************************************************
 (LOGFILE)
 <Apr18-2019> <21:31:48>  ADF development version  RunTime: Apr18-2019 21:31:48  Nodes: 1  Procs: 1
 <Apr18-2019> <21:31:48>  Fluorine (TZ2P)
 <Apr18-2019> <21:31:49>  RunType   : CREATE
 <Apr18-2019> <21:31:49>  Net Charge: 0 (Nuclei minus Electrons)
 <Apr18-2019> <21:31:49>  Symmetry  : ATOM
  Coordinates
    Atom         X           Y           Z   (Angstrom)
    1.F         0.000000    0.000000    0.000000
 <Apr18-2019> <21:31:49>  >>>> CORORT
 <Apr18-2019> <21:31:49>  >>>> CLSMAT
 <Apr18-2019> <21:31:49>  >>>> ORTHON
 <Apr18-2019> <21:31:49>  >>>> GENPT
 <Apr18-2019> <21:31:49>  Block Length=  76
 <Apr18-2019> <21:31:49>  >>>> PTBAS
 <Apr18-2019> <21:31:49>  >>>> CYCLE
 <Apr18-2019> <21:31:49>              |Error|         MaxErr       Wt(A-DIIS)
 <Apr18-2019> <21:31:49>      1      0.00000000      0.00000000
 <Apr18-2019> <21:31:49>      2     11.37379478      4.77775941    100.0
 <Apr18-2019> <21:31:49>      3      5.10737118      3.12542566    100.0
 <Apr18-2019> <21:31:49>      4      0.96588425      0.45165556    100.0
 <Apr18-2019> <21:31:49>      5      1.67496341      0.82531802    100.0
 <Apr18-2019> <21:31:49>      6      0.19960756      0.09763484     97.6
 <Apr18-2019> <21:31:49>      7      0.26650754      0.12651474    100.0
 <Apr18-2019> <21:31:49>      8      0.03096878      0.01498150     14.1
 <Apr18-2019> <21:31:49>      9      0.00605981      0.00290433      1.9
 <Apr18-2019> <21:31:49>     10      0.00016558      0.00007919      0.0
 <Apr18-2019> <21:31:49>     11      0.00000005      0.00000002      0.0
 <Apr18-2019> <21:31:49>     12      0.00000000      0.00000000      0.0
 <Apr18-2019> <21:31:49>  SCF converged
 <Apr18-2019> <21:31:49>     13      0.00000000      0.00000000      0.0
 <Apr18-2019> <21:31:49>  >>>> POPAN
 <Apr18-2019> <21:31:49>  >>>> DEBYE
 <Apr18-2019> <21:31:49>  NORMAL TERMINATION
 <Apr18-2019> <21:31:49>  END
 <Apr18-2019> <21:31:49>  ADF development version  RunTime: Apr18-2019 21:31:49  Nodes: 1  Procs: 12
 <Apr18-2019> <21:31:50>  *** (NO TITLE) ***
 <Apr18-2019> <21:31:50>  RunType   : SINGLE POINT
 <Apr18-2019> <21:31:50>  ERROR DETECTED: wrong nr. of rigids
 <Apr18-2019> <21:31:50>  END
