WARNING: ZORA/TZ2P basis will be used for In instead of the requested TZ2P basis
WARNING: ZORA/TZ2P basis will be used for In instead of the requested TZ2P basis

Create O   file=TZ2P-O
XC
  GGA blyp
End
End Input

 *******************************************************************************
 *                                                                             *
 *  -------------------------------------                                      *
 *   Amsterdam Density Functional  (ADF)         2017                          *
 *  -------------------------------------                                      *
 *                                               r58813 2017-04-12             *
 *                                                                             *
 *                                                                             *
 *                              =================                              *
 *                              |               |                              *
 *                              |     A D F     |                              *
 *                              |               |                              *
 *                              =================                              *
 *                                                                             *
 *                                                                             *
 *   Online information and documentation:  https://www.scm.com/support/       *
 *   E-mail:  support@scm.com   info@scm.com                                   *
 *                                                                             *
 *   Scientific publications using ADF results must be properly referenced     *
 *   See the User Manuals (or the web site) for recommended citations          *
 *   The terms and conditions of the End User License Agreement apply to       *
 *   the use of ADF, https://www.scm.com/license-terms/                        *
 *                                                                             *
 **********************  x86_64_linux_intel / intelmpi  ************************
 
 Licensed to: VU/FEW (+ SARA) / ALGEMEEN / Amsterdam / THE NETHERLANDS
 SCM User ID: u7668
  
 ADF 2017  RunTime: May18-2019 16:01:48  Nodes: 1  Procs: 1

 Temporary files are created in /local/datastore0/tcst25/190691/kid_0.tpL2tE

 Oxygen (TZ2P)



 ===========================
 A T T A C H E D   F I L E S
 ===========================
  
 CREATE - Data File:    TZ2P-O
                        Oxygen (TZ2P)



 ===============================
 M O D E L   P A R A M E T E R S
 ===============================
  
 DENSITY FUNCTIONAL POTENTIAL (scf)
    LDA:                               Exchange only                           == Not Default ==
    Gradient Corrections:              Becke88 LYP                             == Not Default ==

 SPIN  (restricted / unrestr.)
    Molecule:                          Restricted                               

 OTHER ASPECTS
    Relativistic Corrections:          ---                                      

    Nuclear Charge Density Model:      Point Charge Nuclei                      
    Core Treatment:                    Frozen Orbital(s)                        

    Hyperfine or Zeeman Interaction:   ---                                      



 =====================================
 S Y M M E T R Y ,   E L E C T R O N S
 =====================================
  
 Symmetry: ATOM

 Irreducible Representations, including subspecies
 -------------------------------------------------
 S
 P:x  P:y  P:z
 D:z2  D:x2-y2  D:xy  D:xz  D:yz
 F:z3  F:z  F:xyz  F:z2x  F:z2y  F:x  F:y


 Configuration of Valence Electrons
 ==================================

          Occupation Numbers
          -------------------------------------------------
 S        2*2
 P        4
 D        0
 F        0
          -------------------------------------------------

 Total:   8

 Net Charge: 0 (Nuclei minus Electrons)

 Preset values for MO occupations will be applied through SCF cycle no. 1000000
 Thereafter, the program will assign electrons to MOs that are spatially
 similar to the occupied MOs in a "reference" cycle ("KeepOrbitals").
 The reference cycle is always the PREVIOUS cycle: it will evolve with
 the SCF procedure.



 ================================
 (Slater-type)  F U N C T I O N S  ***  (Basis and Fit)  ***
 ================================
  

 Atom Type    1  (O)
 ==============

 Valence Basis Sets:  10
 -----------------------
   1 S    9.800000
   1 S    6.800000
   2 S    7.580000
   2 S    2.880000
   2 S    1.720000
   2 P    4.080000
   2 P    2.080000
   2 P    1.120000
   3 D    2.000000
   4 F    3.000000


 BAS: List of all Elementary Cartesian Basis Functions
 =====================================================

 The numbering in the list below (to the right of the function characteristics) is referred
 to in print-outs of MO eigenvectors and Mulliken populations in the BAS representation
 (as contrasted to the SFO representation).

 Notes:
 1. The functions are characterized by a polynomial prefactor (powers of x,y,z and r) and
    an exponential decay factor alpha.
 2. Since the basis sets are specific for an atom TYPE, the individual functions occur on
    all atoms of that type.
 3. The word 'Core' in the left margin signals that it is a Core Function (CF) : not a
    degree of freedom in the valence set, but only used to ensure orthogonalization of
    the other valence basis functions on the frozen Core Orbitals.


 (power of) X  Y  Z  R     Alpha  on Atom
            ==========     =====     ==========

 O                                    1
                                  ---------------------------------------------------------------------------
            0  0  0  0     9.800      1
            0  0  0  0     6.800      2
            0  0  0  1     7.580      3
            0  0  0  1     2.880      4
            0  0  0  1     1.720      5
            1  0  0  0     4.080      6
            0  1  0  0     4.080      7
            0  0  1  0     4.080      8
            1  0  0  0     2.080      9
            0  1  0  0     2.080     10
            0  0  1  0     2.080     11
            1  0  0  0     1.120     12
            0  1  0  0     1.120     13
            0  0  1  0     1.120     14
            2  0  0  0     2.000     15
            1  1  0  0     2.000     16
            1  0  1  0     2.000     17
            0  2  0  0     2.000     18
            0  1  1  0     2.000     19
            0  0  2  0     2.000     20
            3  0  0  0     3.000     21
            2  1  0  0     3.000     22
            2  0  1  0     3.000     23
            1  2  0  0     3.000     24
            1  1  1  0     3.000     25
            1  0  2  0     3.000     26
            0  3  0  0     3.000     27
            0  2  1  0     3.000     28
            0  1  2  0     3.000     29
            0  0  3  0     3.000     30

 Total number of charge fitting functions (nprimf)        84
 Total number of Cartesian basis functions (naos)         30
 Total number of Cartesian core functions  (ncos)          0



 BAS: List of all Elementary Cartesian Basis Functions
 =====================================================

 The numbering in the list below (to the right of the function characteristics) is referred
 to in print-outs of MO eigenvectors and Mulliken populations in the BAS representation
 (as contrasted to the SFO representation).

 Notes:
 1. The functions are characterized by a polynomial prefactor (powers of x,y,z and r) and
    an exponential decay factor alpha.
 2. Since the basis sets are specific for an atom TYPE, the individual functions occur on
    all atoms of that type.
 3. The word 'Core' in the left margin signals that it is a Core Function (CF) : not a
    degree of freedom in the valence set, but only used to ensure orthogonalization of
    the other valence basis functions on the frozen Core Orbitals.


 (power of) X  Y  Z  R     Alpha  on Atom
            ==========     =====     ==========

 O                                    1
                                  ---------------------------------------------------------------------------
            0  0  0  0     9.800      1
            0  0  0  0     6.800      2
            0  0  0  1     7.580      3
            0  0  0  1     2.880      4
            0  0  0  1     1.720      5
            1  0  0  0     4.080      6
            0  1  0  0     4.080      7
            0  0  1  0     4.080      8
            1  0  0  0     2.080      9
            0  1  0  0     2.080     10
            0  0  1  0     2.080     11
            1  0  0  0     1.120     12
            0  1  0  0     1.120     13
            0  0  1  0     1.120     14
            2  0  0  0     2.000     15
            1  1  0  0     2.000     16
            1  0  1  0     2.000     17
            0  2  0  0     2.000     18
            0  1  1  0     2.000     19
            0  0  2  0     2.000     20
            3  0  0  0     3.000     21
            2  1  0  0     3.000     22
            2  0  1  0     3.000     23
            1  2  0  0     3.000     24
            1  1  1  0     3.000     25
            1  0  2  0     3.000     26
            0  3  0  0     3.000     27
            0  2  1  0     3.000     28
            0  1  2  0     3.000     29
            0  0  3  0     3.000     30
1
 ***************************************************************************************************



                                              ***********************
                                              *  T E C H N I C A L  *
                                              ***********************
  



 =============================================================
 P A R A L L E L I Z A T I O N  and  V E C T O R I Z A T I O N
 =============================================================
  
 Nr of parallel processes:                                1
 Maximum vector length in NumInt loops:                 128

 IO buffersize (Mb):                                     64.000000



 =====================
 S C F   U P D A T E S
 =====================
  
 Max. nr. of cycles:                               300
 Convergence criterion:                              0.0000000100
   secondary criterion:                              0.0000000100

 Mix parameter (when DIIS does not apply):           0.2000000000
 Special mix parameter for the first cycle:          1.0000000000
 Mixed ADIIS+DIIS will be used
    Max number of expansion vectors:                10
    Pure ADIIS when Max([F,P]) is above              0.1000000000
    Pure DIIS when Max([F,P]) is below               0.0010000000
 Automatic ElectronSmearing (in case of problematic SCF convergence) disabled



 =================
 P R E C I S I O N  ***  (General: NumInt, NeglectFunctionTails, ...)  ***
 =================
  

 NumInt:           Target precision:                12.0000000000
 -------           Initial precision:               10.0000000000
                   Min. precision (optimization):   10.0000000000

 Neglect Functions:          Basis functions:        0.1000000000E-13
 ------------------          Fit functions:          0.1000000000E-13



 ===========================
 L I N E A R   S C A L I N G
 ===========================
  

 Cut-off radii density fit:                        0.1000000000E-97
 Overlap cut-off criterion AO matrix elements:     0.1000000000E-97
 Cut-offs for Coulomb potential and fitted density:0.1000000000E-97
 Cut-off criterion for Coulomb multipole terms:    0.1000000000E-97
 Progressive Convergence parameter:                 0.000000000    
1
 ***************************************************************************************************



                                            ***************************
                                            *  C O M P U T A T I O N  *
                                            ***************************
  

 Number of elements of the density matrix on this node (used, total):       465       465



 ===========================================
 Numerical Integration : Fuzzy Cells (Becke)
 ===========================================
  
 Becke grid quality: VERYGOOD       
  
 Lebedev angular grid order:             min:  13 max:  41
 Nr. of radial points:                   min:  68 max:  68

 Total nr. of points:         68
 Nr. of blocks:                1
 Block length:                68
 Nr. of dummy points:          0


 Test of Precision of the Numerical Integration Grid
 ===================================================

 Integral of the Total Core Density:                   0.00000000000000



 ========================
 Density Fitting (zlmFit)
 ========================
  
 ZlmFit Fit Quality: VERYGOOD       
  
 Max L-expansion:                        min:   0 max:   0
 Nr. of radial interpolation points:     min: 180 max: 180



 =====
 S C F  ***  ScaSCF  ***
 =====
  

 CYCLE    1
 SCF Error: norm([F,P])=      0.000000000000, max([F,P])=      0.000000000000
 orbitals (Q,E):
 ---------------
 S :1...5            ( 2.00   -31.9999)  ( 2.00    -7.9363)  ( 0.00    -3.4636)  ( 0.00     4.3191)
                     ( 0.00   110.5486)
 P :1...3            ( 4.00    -7.9991)  ( 0.00    -3.4855)  ( 0.00    -1.8903)
 D :1...1            ( 0.00    -3.3333)
 F :1...1            ( 0.00    -1.5000)

 CYCLE    2
  SDIIS (wt  0.000):  1.0000 -0.0000
 A-DIIS (wt  1.000):  0.0000  1.0000
  DIIS coefficients:  0.0000  1.0000
 SCF Error: norm([F,P])=      8.765745414074, max([F,P])=      5.518031311555
 orbitals (Q,E):
 ---------------
 S :1...3            ( 2.00   -14.5579)  ( 2.00    -0.0124)  ( 0.00     1.8192)
 P :1...2            ( 4.00     0.2183)  ( 0.00     1.2385)
 D :1...1            ( 0.00     1.5388)
 F :1...1            ( 0.00     3.9464)

 CYCLE    3
  SDIIS (wt  0.000):  0.2278  0.7722
 A-DIIS (wt  1.000):  0.3148  0.6852
  DIIS coefficients:  0.3148  0.6852
 SCF Error: norm([F,P])=      3.585499450444, max([F,P])=      2.499410108106
 orbitals (Q,E):
 ---------------
 S :1...3            ( 2.00   -19.8063)  ( 2.00    -1.5198)  ( 0.00     0.3996)
 P :1...2            ( 4.00    -0.9763)  ( 0.00     0.1325)
 D :1...1            ( 0.00     0.6540)
 F :1...1            ( 0.00     2.8642)

 CYCLE    4
  SDIIS (wt  0.000): -0.0456  0.1707  0.8749
 A-DIIS (wt  1.000):  0.0000  0.0000  1.0000
  DIIS coefficients:  0.0000  0.0000  1.0000
 SCF Error: norm([F,P])=      1.147919112368, max([F,P])=      0.583019620058
 orbitals (Q,E):
 ---------------
 S :1...3            ( 2.00   -18.0523)  ( 2.00    -0.5465)  ( 0.00     1.0349)
 P :1...2            ( 4.00    -0.0477)  ( 0.00     0.5307)
 D :1...1            ( 0.00     1.2443)
 F :1...1            ( 0.00     3.5731)

 CYCLE    5
  SDIIS (wt  0.000): -0.0195 -0.0760  0.5845  0.5110
 A-DIIS (wt  1.000):  0.0000  0.0000  0.6414  0.3586
  DIIS coefficients:  0.0000  0.0000  0.6414  0.3586
 SCF Error: norm([F,P])=      1.519585468023, max([F,P])=      0.840542006159
 orbitals (Q,E):
 ---------------
 S :1...3            ( 2.00   -18.8182)  ( 2.00    -0.8502)  ( 0.00     0.8091)
 P :1...2            ( 4.00    -0.3077)  ( 0.00     0.3582)
 D :1...1            ( 0.00     1.0753)
 F :1...1            ( 0.00     3.3669)

 CYCLE    6
  SDIIS (wt  0.000):  0.0038 -0.0006  0.0668 -0.0496  0.9795
 A-DIIS (wt  1.000):  0.0000  0.0000  0.0000  0.0000  1.0000
  DIIS coefficients:  0.0000  0.0000  0.0000  0.0000  1.0000
 SCF Error: norm([F,P])=      0.178828926625, max([F,P])=      0.104242033505
 orbitals (Q,E):
 ---------------
 S :1...3            ( 2.00   -19.0541)  ( 2.00    -0.9245)  ( 0.00     0.7610)
 P :1...2            ( 4.00    -0.3806)  ( 0.00     0.3267)
 D :1...1            ( 0.00     1.0451)
 F :1...1            ( 0.00     3.3284)

 CYCLE    7
  SDIIS (wt  0.000): -0.0003  0.0004 -0.0182  0.0130  0.4190  0.5861
 A-DIIS (wt  1.000):  0.0000  0.0000  0.0000  0.0000  0.5807  0.4193
  DIIS coefficients:  0.0000  0.0000  0.0000  0.0000  0.5807  0.4193
 SCF Error: norm([F,P])=      0.200125290981, max([F,P])=      0.113649127569
 orbitals (Q,E):
 ---------------
 S :1...3            ( 2.00   -18.9379)  ( 2.00    -0.8781)  ( 0.00     0.7909)
 P :1...2            ( 4.00    -0.3354)  ( 0.00     0.3452)
 D :1...1            ( 0.00     1.0687)
 F :1...1            ( 0.00     3.3572)

 CYCLE    8
  SDIIS (wt  0.910): -0.0000  0.0002  0.0044 -0.0011 -0.0192 -0.1454  1.1612
 A-DIIS (wt  0.090):  0.0000  0.0000  0.0000  0.0000  0.0000  0.0000  1.0000
  DIIS coefficients: -0.0000  0.0002  0.0040 -0.0010 -0.0175 -0.1323  1.1466
 SCF Error: norm([F,P])=      0.016951777154, max([F,P])=      0.009947196225
 orbitals (Q,E):
 ---------------
 S :1...3            ( 2.00   -18.9255)  ( 2.00    -0.8739)  ( 0.00     0.7936)
 P :1...2            ( 4.00    -0.3314)  ( 0.00     0.3469)
 D :1...1            ( 0.00     1.0707)
 F :1...1            ( 0.00     3.3597)

 CYCLE    9
  SDIIS (wt  1.000): -0.0000  0.0000  0.0000 -0.0001  0.0003  0.0067  0.0145  0.9786
  DIIS coefficients: -0.0000  0.0000  0.0000 -0.0001  0.0003  0.0067  0.0145  0.9786
 SCF Error: norm([F,P])=      0.001748429775, max([F,P])=      0.000984374869
 orbitals (Q,E):
 ---------------
 S :1...3            ( 2.00   -18.9266)  ( 2.00    -0.8743)  ( 0.00     0.7933)
 P :1...2            ( 4.00    -0.3318)  ( 0.00     0.3467)
 D :1...1            ( 0.00     1.0705)
 F :1...1            ( 0.00     3.3595)

 CYCLE   10
  SDIIS (wt  1.000): -0.0000 -0.0000 -0.0000 -0.0000  0.0000  0.0001 -0.0011 -0.0034  1.0043
  DIIS coefficients: -0.0000 -0.0000 -0.0000 -0.0000  0.0000  0.0001 -0.0011 -0.0034  1.0043
 SCF Error: norm([F,P])=      0.000001425696, max([F,P])=      0.000000713883
 orbitals (Q,E):
 ---------------
 S :1...3            ( 2.00   -18.9266)  ( 2.00    -0.8743)  ( 0.00     0.7933)
 P :1...2            ( 4.00    -0.3318)  ( 0.00     0.3467)
 D :1...1            ( 0.00     1.0705)
 F :1...1            ( 0.00     3.3595)

 CYCLE   11
  SDIIS (wt  1.000):  0.0000 -0.0000 -0.0000 -0.0001 -0.0046  1.0047
  DIIS coefficients:  0.0000 -0.0000 -0.0000 -0.0001 -0.0046  1.0047
 SCF Error: norm([F,P])=      0.000000048706, max([F,P])=      0.000000022971
 orbitals (Q,E):
 ---------------
 S :1...3            ( 2.00   -18.9266)  ( 2.00    -0.8743)  ( 0.00     0.7933)
 P :1...2            ( 4.00    -0.3318)  ( 0.00     0.3467)
 D :1...1            ( 0.00     1.0705)
 F :1...1            ( 0.00     3.3595)

 CYCLE   12
  SDIIS (wt  1.000):  0.0000  0.0003  0.0049  0.9947
  DIIS coefficients:  0.0000  0.0003  0.0049  0.9947
 SCF Error: norm([F,P])=      0.000000002392, max([F,P])=      0.000000001168
 orbitals (Q,E):
 ---------------
 S :1...3            ( 2.00   -18.9266)  ( 2.00    -0.8743)  ( 0.00     0.7933)
 P :1...2            ( 4.00    -0.3318)  ( 0.00     0.3467)
 D :1...1            ( 0.00     1.0705)
 F :1...1            ( 0.00     3.3595)

 SCF CONVERGED

 CYCLE   13
1
 ***************************************************************************************************



                                                *******************
                                                *  R E S U L T S  *
                                                *******************
  
 *** Setting up for NEW gradients in Focky
 *** Using FIT density in Focky

 Orbital Energies, per Irrep and Spin:
 ======================================
                        Occup              E (au)              E (eV)       Diff (eV) with prev. cycle
                        -----      --------------------        ------       --------------------------
 S
               1        2.000     -0.18926622910087E+02      -515.020               5.76E-10
               2        2.000     -0.87432318445324E+00       -23.792               3.90E-10
               3        0.000      0.79334608634537E+00        21.588
               4        0.000      0.13459763470969E+02       366.259
               5        0.000      0.12310776301329E+03      3349.933
 P
               1        4.000     -0.33177161342558E+00        -9.028               3.71E-10
               2        0.000      0.34673871865826E+00         9.435
               3        0.000      0.38246989192600E+01       104.075
 D
               1        0.000      0.10704889823391E+01        29.129
 F
               1        0.000      0.33594552407685E+01        91.415


 Partially Occupied:
               1 P                -0.33177161342558E+00
  
 HOMO :        2 S                -0.87432318445324E+00
 LUMO :        2 P                 0.34673871865826E+00
  


 Orbital Energies, all Irreps
 ========================================

 Irrep        no.  (spin)   Occup              E (au)                E (eV)
 ---------------------------------------------------------------------------
 S             1             2.00       -0.18926622910087E+02      -515.0196
 S             2             2.00       -0.87432318445324E+00       -23.7915
 P             1             4.00       -0.33177161342558E+00        -9.0280
 P             2             0.00        0.34673871865826E+00         9.4352
 S             3             0.00        0.79334608634537E+00        21.5880
 D             1             0.00        0.10704889823391E+01        29.1295
 F             1             0.00        0.33594552407685E+01        91.4154
 P             3             0.00        0.38246989192600E+01       104.0754
 S             4             0.00        0.13459763470969E+02       366.2588
 S             5             0.00        0.12310776301329E+03      3349.9327


 All Electron Calculation, thus no Orbital Energies of the Core Orbitals are calculated



 =======================================
 M U L L I K E N   P O P U L A T I O N S
 =======================================
  
 The survey below gives for each atom:
 a) the total charge (Z minus electrons)
 b) the net spin polarization (nr of electrons spin-A minus spin-B)
 c) for each spin the atomic electron valence density (integrated) per L-value.

 Atom              Charge    Spin density          S         P         D         F
 ----              ------    ------------       ------    ------    ------    ------
 1 O              -0.0000                       4.0000    4.0000    0.0000    0.0000

 Populations of individual BAS functions
 ----------------------------------------
 1 O            0.6447  1.3214  0.0008  1.1425  0.8905  0.2537  0.2537  0.2537  0.7364  0.7364
                0.7364  0.3432  0.3432  0.3432  0.0000  0.0000  0.0000  0.0000  0.0000  0.0000
                0.0000  0.0000  0.0000  0.0000  0.0000  0.0000  0.0000  0.0000  0.0000  0.0000

 Gross Charges per Atom (Z minus electrons)
 ==========================================
            -0.0000
 Net Total: -0.00000000



 =======================================================================
 Electrostatic potential at the Nuclei due to electrons and other nuclei
 =======================================================================
  
         Atom                  Potential
         ----                  ---------
     1)   O                  22.23872615
 
 
 ========================
 No memory problems found
 ========================
 
 Maximum number of active allocate calls:         447
 
 *******************************************************************************

                             A D F   E X I T
 NORMAL TERMINATION



 =================
 Timing Statistics
 =================
  
 Total Used :                     CPU=        0.79      System=        0.04     Elapsed=        0.89

 Calls  Section                     ( Mean, Percentage )
 ---------------------------------------------------------------------------------------------------
     3  ><      ................      0.00    0.13             0.00    0.00             0.00    0.09
     1  INIT    ................      0.01    1.76             0.02   50.00             0.09   10.10
     1  GEOMET  ................      0.01    1.13             0.00   10.53             0.01    1.48
     1  INPUTA  ................      0.00    0.13             0.00    5.26             0.00    0.35
     1  MAINSY  ................      0.01    1.01             0.00    0.00             0.01    0.89
     1  SYMFIT  ................      0.00    0.00             0.00    2.63             0.00    0.14
     1  CORORT  ................      0.00    0.00             0.00    2.63             0.00    0.05
     1  SYMORB  ................      0.00    0.00             0.00    2.63             0.00    0.18
     1  CLSMAT  ................      0.01    1.26             0.00    0.00             0.01    1.03
     1  ORTHON  ................      0.00    0.25             0.00    0.00             0.00    0.33
     1  GENPT   ................      0.02    2.64             0.00    2.63             0.02    2.38
     1  PTBAS   ................      0.01    0.76             0.00    0.00             0.01    0.70
    13  FOCKY   ................      0.05   75.44             0.00   10.53             0.05   67.75
    13  FOCKTR  ................      0.00    2.14             0.00    2.63             0.00    2.05
    13  SDIIS   ................      0.00    4.28             0.00    2.63             0.00    3.98
     1  COREPS  ................      0.03    4.41             0.00    2.63             0.04    4.09
     1  POPAN   ................      0.01    1.13             0.00    0.00             0.01    1.03
     1  DEBYE   ................      0.00    0.00             0.00    2.63             0.00    0.10
     1  EXIT PROCEDURE .........      0.03    3.53             0.00    2.63             0.03    3.26


 Currently Open Files (EXIT00)
 ====================

 Unit    Access Format  Status   Type       Ident (file)
 -------------------------------------------------------
   3      SEQ    FORM   TRANSP  NORMAL      LOGFILE
                                          ( logfile )


 Buffered I/O statistics
 =======================
 Memory available:                     67108864
 Number of records fitting in memory:     16131
 Input :   0.1% of                        27833  *4k bytes
 Output:  13.5% of                         1390  *4k bytes
 Records from serial files evicted:           0
                    others evicted:           0
 Hash table lookups:      71898 with          0 conflicts (  0.00%)

 ***************************************************************************************************
 (LOGFILE)
 <May18-2019> <16:01:48>  ADF 2017  RunTime: May18-2019 16:01:48  Nodes: 1  Procs: 1
 <May18-2019> <16:01:48>  Oxygen (TZ2P)
 <May18-2019> <16:01:48>  RunType   : CREATE
 <May18-2019> <16:01:48>  Net Charge: 0 (Nuclei minus Electrons)
 <May18-2019> <16:01:48>  Symmetry  : ATOM
  Coordinates
    Atom         X           Y           Z   (Angstrom)
    1.O         0.000000    0.000000    0.000000
 <May18-2019> <16:01:48>  >>>> CORORT
 <May18-2019> <16:01:48>  >>>> CLSMAT
 <May18-2019> <16:01:48>  >>>> ORTHON
 <May18-2019> <16:01:48>  >>>> GENPT
 <May18-2019> <16:01:48>  Block Length=  68
 <May18-2019> <16:01:48>  >>>> PTBAS
 <May18-2019> <16:01:48>  >>>> CYCLE
 <May18-2019> <16:01:48>              |Error|         MaxErr       Wt(A-DIIS)
 <May18-2019> <16:01:48>      1      0.00000000      0.00000000
 <May18-2019> <16:01:48>      2      8.76574541      5.51803131    100.0
 <May18-2019> <16:01:48>      3      3.58549945      2.49941011    100.0
 <May18-2019> <16:01:48>      4      1.14791911      0.58301962    100.0
 <May18-2019> <16:01:48>      5      1.51958547      0.84054201    100.0
 <May18-2019> <16:01:48>      6      0.17882893      0.10424203    100.0
 <May18-2019> <16:01:48>      7      0.20012529      0.11364913    100.0
 <May18-2019> <16:01:48>      8      0.01695178      0.00994720      9.0
 <May18-2019> <16:01:48>      9      0.00174843      0.00098437      0.0
 <May18-2019> <16:01:48>     10      0.00000143      0.00000071      0.0
 <May18-2019> <16:01:48>     11      0.00000005      0.00000002      0.0
 <May18-2019> <16:01:48>     12      0.00000000      0.00000000      0.0
 <May18-2019> <16:01:48>  SCF converged
 <May18-2019> <16:01:48>     13      0.00000000      0.00000000      0.0
 <May18-2019> <16:01:48>  >>>> POPAN
 <May18-2019> <16:01:48>  >>>> DEBYE
 <May18-2019> <16:01:48>  NORMAL TERMINATION
 <May18-2019> <16:01:48>  END

Create C   file=TZ2P-C
XC
  GGA blyp
End
End Input

 *******************************************************************************
 *                                                                             *
 *  -------------------------------------                                      *
 *   Amsterdam Density Functional  (ADF)         2017                          *
 *  -------------------------------------                                      *
 *                                               r58813 2017-04-12             *
 *                                                                             *
 *                                                                             *
 *                              =================                              *
 *                              |               |                              *
 *                              |     A D F     |                              *
 *                              |               |                              *
 *                              =================                              *
 *                                                                             *
 *                                                                             *
 *   Online information and documentation:  https://www.scm.com/support/       *
 *   E-mail:  support@scm.com   info@scm.com                                   *
 *                                                                             *
 *   Scientific publications using ADF results must be properly referenced     *
 *   See the User Manuals (or the web site) for recommended citations          *
 *   The terms and conditions of the End User License Agreement apply to       *
 *   the use of ADF, https://www.scm.com/license-terms/                        *
 *                                                                             *
 **********************  x86_64_linux_intel / intelmpi  ************************
 
 Licensed to: VU/FEW (+ SARA) / ALGEMEEN / Amsterdam / THE NETHERLANDS
 SCM User ID: u7668
  
 ADF 2017  RunTime: May18-2019 16:01:48  Nodes: 1  Procs: 1

 Temporary files are created in /local/datastore0/tcst25/190691/kid_0.0uiE2H

 Carbon (TZ2P)



 ===========================
 A T T A C H E D   F I L E S
 ===========================
  
 CREATE - Data File:    TZ2P-C
                        Carbon (TZ2P)



 ===============================
 M O D E L   P A R A M E T E R S
 ===============================
  
 DENSITY FUNCTIONAL POTENTIAL (scf)
    LDA:                               Exchange only                           == Not Default ==
    Gradient Corrections:              Becke88 LYP                             == Not Default ==

 SPIN  (restricted / unrestr.)
    Molecule:                          Restricted                               

 OTHER ASPECTS
    Relativistic Corrections:          ---                                      

    Nuclear Charge Density Model:      Point Charge Nuclei                      
    Core Treatment:                    Frozen Orbital(s)                        

    Hyperfine or Zeeman Interaction:   ---                                      



 =====================================
 S Y M M E T R Y ,   E L E C T R O N S
 =====================================
  
 Symmetry: ATOM

 Irreducible Representations, including subspecies
 -------------------------------------------------
 S
 P:x  P:y  P:z
 D:z2  D:x2-y2  D:xy  D:xz  D:yz
 F:z3  F:z  F:xyz  F:z2x  F:z2y  F:x  F:y


 Configuration of Valence Electrons
 ==================================

          Occupation Numbers
          -------------------------------------------------
 S        2*2
 P        2
 D        0
 F        0
          -------------------------------------------------

 Total:   6

 Net Charge: 0 (Nuclei minus Electrons)

 Preset values for MO occupations will be applied through SCF cycle no. 1000000
 Thereafter, the program will assign electrons to MOs that are spatially
 similar to the occupied MOs in a "reference" cycle ("KeepOrbitals").
 The reference cycle is always the PREVIOUS cycle: it will evolve with
 the SCF procedure.



 ================================
 (Slater-type)  F U N C T I O N S  ***  (Basis and Fit)  ***
 ================================
  

 Atom Type    1  (C)
 ==============

 Valence Basis Sets:  10
 -----------------------
   1 S    7.680000
   1 S    5.000000
   2 S    1.280000
   2 S    2.100000
   2 S    4.600000
   2 P    0.820000
   2 P    1.480000
   2 P    2.940000
   3 D    2.200000
   4 F    3.300000


 BAS: List of all Elementary Cartesian Basis Functions
 =====================================================

 The numbering in the list below (to the right of the function characteristics) is referred
 to in print-outs of MO eigenvectors and Mulliken populations in the BAS representation
 (as contrasted to the SFO representation).

 Notes:
 1. The functions are characterized by a polynomial prefactor (powers of x,y,z and r) and
    an exponential decay factor alpha.
 2. Since the basis sets are specific for an atom TYPE, the individual functions occur on
    all atoms of that type.
 3. The word 'Core' in the left margin signals that it is a Core Function (CF) : not a
    degree of freedom in the valence set, but only used to ensure orthogonalization of
    the other valence basis functions on the frozen Core Orbitals.


 (power of) X  Y  Z  R     Alpha  on Atom
            ==========     =====     ==========

 C                                    1
                                  ---------------------------------------------------------------------------
            0  0  0  0     7.680      1
            0  0  0  0     5.000      2
            0  0  0  1     1.280      3
            0  0  0  1     2.100      4
            0  0  0  1     4.600      5
            1  0  0  0     0.820      6
            0  1  0  0     0.820      7
            0  0  1  0     0.820      8
            1  0  0  0     1.480      9
            0  1  0  0     1.480     10
            0  0  1  0     1.480     11
            1  0  0  0     2.940     12
            0  1  0  0     2.940     13
            0  0  1  0     2.940     14
            2  0  0  0     2.200     15
            1  1  0  0     2.200     16
            1  0  1  0     2.200     17
            0  2  0  0     2.200     18
            0  1  1  0     2.200     19
            0  0  2  0     2.200     20
            3  0  0  0     3.300     21
            2  1  0  0     3.300     22
            2  0  1  0     3.300     23
            1  2  0  0     3.300     24
            1  1  1  0     3.300     25
            1  0  2  0     3.300     26
            0  3  0  0     3.300     27
            0  2  1  0     3.300     28
            0  1  2  0     3.300     29
            0  0  3  0     3.300     30

 Total number of charge fitting functions (nprimf)        84
 Total number of Cartesian basis functions (naos)         30
 Total number of Cartesian core functions  (ncos)          0



 BAS: List of all Elementary Cartesian Basis Functions
 =====================================================

 The numbering in the list below (to the right of the function characteristics) is referred
 to in print-outs of MO eigenvectors and Mulliken populations in the BAS representation
 (as contrasted to the SFO representation).

 Notes:
 1. The functions are characterized by a polynomial prefactor (powers of x,y,z and r) and
    an exponential decay factor alpha.
 2. Since the basis sets are specific for an atom TYPE, the individual functions occur on
    all atoms of that type.
 3. The word 'Core' in the left margin signals that it is a Core Function (CF) : not a
    degree of freedom in the valence set, but only used to ensure orthogonalization of
    the other valence basis functions on the frozen Core Orbitals.


 (power of) X  Y  Z  R     Alpha  on Atom
            ==========     =====     ==========

 C                                    1
                                  ---------------------------------------------------------------------------
            0  0  0  0     7.680      1
            0  0  0  0     5.000      2
            0  0  0  1     1.280      3
            0  0  0  1     2.100      4
            0  0  0  1     4.600      5
            1  0  0  0     0.820      6
            0  1  0  0     0.820      7
            0  0  1  0     0.820      8
            1  0  0  0     1.480      9
            0  1  0  0     1.480     10
            0  0  1  0     1.480     11
            1  0  0  0     2.940     12
            0  1  0  0     2.940     13
            0  0  1  0     2.940     14
            2  0  0  0     2.200     15
            1  1  0  0     2.200     16
            1  0  1  0     2.200     17
            0  2  0  0     2.200     18
            0  1  1  0     2.200     19
            0  0  2  0     2.200     20
            3  0  0  0     3.300     21
            2  1  0  0     3.300     22
            2  0  1  0     3.300     23
            1  2  0  0     3.300     24
            1  1  1  0     3.300     25
            1  0  2  0     3.300     26
            0  3  0  0     3.300     27
            0  2  1  0     3.300     28
            0  1  2  0     3.300     29
            0  0  3  0     3.300     30
1
 ***************************************************************************************************



                                              ***********************
                                              *  T E C H N I C A L  *
                                              ***********************
  



 =============================================================
 P A R A L L E L I Z A T I O N  and  V E C T O R I Z A T I O N
 =============================================================
  
 Nr of parallel processes:                                1
 Maximum vector length in NumInt loops:                 128

 IO buffersize (Mb):                                     64.000000



 =====================
 S C F   U P D A T E S
 =====================
  
 Max. nr. of cycles:                               300
 Convergence criterion:                              0.0000000100
   secondary criterion:                              0.0000000100

 Mix parameter (when DIIS does not apply):           0.2000000000
 Special mix parameter for the first cycle:          1.0000000000
 Mixed ADIIS+DIIS will be used
    Max number of expansion vectors:                10
    Pure ADIIS when Max([F,P]) is above              0.1000000000
    Pure DIIS when Max([F,P]) is below               0.0010000000
 Automatic ElectronSmearing (in case of problematic SCF convergence) disabled



 =================
 P R E C I S I O N  ***  (General: NumInt, NeglectFunctionTails, ...)  ***
 =================
  

 NumInt:           Target precision:                12.0000000000
 -------           Initial precision:               10.0000000000
                   Min. precision (optimization):   10.0000000000

 Neglect Functions:          Basis functions:        0.1000000000E-13
 ------------------          Fit functions:          0.1000000000E-13



 ===========================
 L I N E A R   S C A L I N G
 ===========================
  

 Cut-off radii density fit:                        0.1000000000E-97
 Overlap cut-off criterion AO matrix elements:     0.1000000000E-97
 Cut-offs for Coulomb potential and fitted density:0.1000000000E-97
 Cut-off criterion for Coulomb multipole terms:    0.1000000000E-97
 Progressive Convergence parameter:                 0.000000000    
1
 ***************************************************************************************************



                                            ***************************
                                            *  C O M P U T A T I O N  *
                                            ***************************
  

 Number of elements of the density matrix on this node (used, total):       465       465



 ===========================================
 Numerical Integration : Fuzzy Cells (Becke)
 ===========================================
  
 Becke grid quality: VERYGOOD       
  
 Lebedev angular grid order:             min:  13 max:  41
 Nr. of radial points:                   min:  72 max:  72

 Total nr. of points:         72
 Nr. of blocks:                1
 Block length:                72
 Nr. of dummy points:          0


 Test of Precision of the Numerical Integration Grid
 ===================================================

 Integral of the Total Core Density:                   0.00000000000000



 ========================
 Density Fitting (zlmFit)
 ========================
  
 ZlmFit Fit Quality: VERYGOOD       
  
 Max L-expansion:                        min:   0 max:   0
 Nr. of radial interpolation points:     min: 160 max: 160



 =====
 S C F  ***  ScaSCF  ***
 =====
  

 CYCLE    1
 SCF Error: norm([F,P])=      0.000000000000, max([F,P])=      0.000000000000
 orbitals (Q,E):
 ---------------
 S :1...5            ( 2.00   -17.9995)  ( 2.00    -4.4761)  ( 0.00    -1.9482)  ( 0.00     0.6812)
                     ( 0.00    42.8100)
 P :1...3            ( 2.00    -4.4994)  ( 0.00    -1.9807)  ( 0.00    -1.0849)
 D :1...1            ( 0.00    -1.9800)
 F :1...1            ( 0.00     0.4950)

 CYCLE    2
  SDIIS (wt  0.000):  1.0000 -0.0000
 A-DIIS (wt  1.000):  0.0000  1.0000
  DIIS coefficients:  0.0000  1.0000
 SCF Error: norm([F,P])=      4.480319744476, max([F,P])=      3.328841325837
 orbitals (Q,E):
 ---------------
 S :1...3            ( 2.00    -7.7917)  ( 2.00    -0.0500)  ( 0.00     0.8490)
 P :1...2            ( 2.00     0.1033)  ( 0.00     0.5895)
 D :1...1            ( 0.00     1.7552)
 F :1...1            ( 0.00     4.6366)

 CYCLE    3
  SDIIS (wt  0.000):  0.2185  0.7815
 A-DIIS (wt  1.000):  0.1233  0.8767
  DIIS coefficients:  0.1233  0.8767
 SCF Error: norm([F,P])=      1.636788894664, max([F,P])=      1.315295345514
 orbitals (Q,E):
 ---------------
 S :1...3            ( 2.00   -10.9862)  ( 2.00    -0.9428)  ( 0.00     0.1231)
 P :1...2            ( 2.00    -0.6386)  ( 0.00     0.0246)
 D :1...1            ( 0.00     0.8395)
 F :1...1            ( 0.00     3.5625)

 CYCLE    4
  SDIIS (wt  0.000): -0.0629  0.2184  0.8445
 A-DIIS (wt  1.000):  0.0000  0.0872  0.9128
  DIIS coefficients:  0.0000  0.0872  0.9128
 SCF Error: norm([F,P])=      0.722267649759, max([F,P])=      0.580815510644
 orbitals (Q,E):
 ---------------
 S :1...3            ( 2.00    -9.6419)  ( 2.00    -0.3647)  ( 0.00     0.4682)
 P :1...2            ( 2.00    -0.0765)  ( 0.00     0.2450)
 D :1...1            ( 0.00     1.3742)
 F :1...1            ( 0.00     4.1720)

 CYCLE    5
  SDIIS (wt  0.000): -0.0214 -0.0561  0.3847  0.6927
 A-DIIS (wt  1.000):  0.0000  0.0000  0.2646  0.7354
  DIIS coefficients:  0.0000  0.0000  0.2646  0.7354
 SCF Error: norm([F,P])=      0.412794757847, max([F,P])=      0.328642040749
 orbitals (Q,E):
 ---------------
 S :1...3            ( 2.00   -10.1968)  ( 2.00    -0.5643)  ( 0.00     0.3336)
 P :1...2            ( 2.00    -0.2533)  ( 0.00     0.1428)
 D :1...1            ( 0.00     1.1818)
 F :1...1            ( 0.00     3.9467)

 CYCLE    6
  SDIIS (wt  0.032):  0.0025 -0.0116 -0.0698  0.2077  0.8712
 A-DIIS (wt  0.968):  0.0000  0.0000  0.0000  0.0000  1.0000
  DIIS coefficients:  0.0001 -0.0004 -0.0022  0.0066  0.9959
 SCF Error: norm([F,P])=      0.126643163176, max([F,P])=      0.096847488733
 orbitals (Q,E):
 ---------------
 S :1...3            ( 2.00    -9.9458)  ( 2.00    -0.4545)  ( 0.00     0.4037)
 P :1...2            ( 2.00    -0.1511)  ( 0.00     0.1903)
 D :1...1            ( 0.00     1.2866)
 F :1...1            ( 0.00     4.0669)

 CYCLE    7
  SDIIS (wt  0.100): -0.0001  0.0030  0.0073 -0.1526  0.2846  0.8578
 A-DIIS (wt  0.900):  0.0000  0.0000  0.0000  0.0000  0.4446  0.5554
  DIIS coefficients: -0.0000  0.0003  0.0007 -0.0152  0.4286  0.5856
 SCF Error: norm([F,P])=      0.115568228223, max([F,P])=      0.090123764632
 orbitals (Q,E):
 ---------------
 S :1...3            ( 2.00   -10.0697)  ( 2.00    -0.5032)  ( 0.00     0.3719)
 P :1...2            ( 2.00    -0.1955)  ( 0.00     0.1673)
 D :1...1            ( 0.00     1.2400)
 F :1...1            ( 0.00     4.0128)

 CYCLE    8
  SDIIS (wt  0.958): -0.0001  0.0006  0.0026 -0.0162 -0.0129  0.1023  0.9238
 A-DIIS (wt  0.042):  0.0000  0.0000  0.0000  0.0000  0.0000  0.0000  1.0000
  DIIS coefficients: -0.0001  0.0005  0.0025 -0.0155 -0.0124  0.0980  0.9270
 SCF Error: norm([F,P])=      0.006629277794, max([F,P])=      0.005140885246
 orbitals (Q,E):
 ---------------
 S :1...3            ( 2.00   -10.0626)  ( 2.00    -0.5000)  ( 0.00     0.3739)
 P :1...2            ( 2.00    -0.1926)  ( 0.00     0.1686)
 D :1...1            ( 0.00     1.2431)
 F :1...1            ( 0.00     4.0163)

 CYCLE    9
  SDIIS (wt  1.000): -0.0000 -0.0000 -0.0000 -0.0000  0.0023 -0.0004 -0.0164  1.0145
  DIIS coefficients: -0.0000 -0.0000 -0.0000 -0.0000  0.0023 -0.0004 -0.0164  1.0145
 SCF Error: norm([F,P])=      0.000215737590, max([F,P])=      0.000163422091
 orbitals (Q,E):
 ---------------
 S :1...3            ( 2.00   -10.0628)  ( 2.00    -0.5001)  ( 0.00     0.3739)
 P :1...2            ( 2.00    -0.1927)  ( 0.00     0.1686)
 D :1...1            ( 0.00     1.2430)
 F :1...1            ( 0.00     4.0162)

 CYCLE   10
  SDIIS (wt  1.000):  0.0000 -0.0000 -0.0000  0.0001  0.0000 -0.0011  0.0167  0.9843
  DIIS coefficients:  0.0000 -0.0000 -0.0000  0.0001  0.0000 -0.0011  0.0167  0.9843
 SCF Error: norm([F,P])=      0.000001946474, max([F,P])=      0.000001322854
 orbitals (Q,E):
 ---------------
 S :1...3            ( 2.00   -10.0628)  ( 2.00    -0.5001)  ( 0.00     0.3739)
 P :1...2            ( 2.00    -0.1927)  ( 0.00     0.1686)
 D :1...1            ( 0.00     1.2430)
 F :1...1            ( 0.00     4.0162)

 CYCLE   11
  SDIIS (wt  1.000):  0.0000 -0.0000 -0.0002 -0.0078  1.0079
  DIIS coefficients:  0.0000 -0.0000 -0.0002 -0.0078  1.0079
 SCF Error: norm([F,P])=      0.000000018017, max([F,P])=      0.000000015021
 orbitals (Q,E):
 ---------------
 S :1...3            ( 2.00   -10.0628)  ( 2.00    -0.5001)  ( 0.00     0.3739)
 P :1...2            ( 2.00    -0.1927)  ( 0.00     0.1686)
 D :1...1            ( 0.00     1.2430)
 F :1...1            ( 0.00     4.0162)

 CYCLE   12
  SDIIS (wt  1.000):  0.0000 -0.0001  0.0057  0.9944
  DIIS coefficients:  0.0000 -0.0001  0.0057  0.9944
 SCF Error: norm([F,P])=      0.000000000214, max([F,P])=      0.000000000163
 orbitals (Q,E):
 ---------------
 S :1...3            ( 2.00   -10.0628)  ( 2.00    -0.5001)  ( 0.00     0.3739)
 P :1...2            ( 2.00    -0.1927)  ( 0.00     0.1686)
 D :1...1            ( 0.00     1.2430)
 F :1...1            ( 0.00     4.0162)

 SCF CONVERGED

 CYCLE   13
1
 ***************************************************************************************************



                                                *******************
                                                *  R E S U L T S  *
                                                *******************
  
 *** Setting up for NEW gradients in Focky
 *** Using FIT density in Focky

 Orbital Energies, per Irrep and Spin:
 ======================================
                        Occup              E (au)              E (eV)       Diff (eV) with prev. cycle
                        -----      --------------------        ------       --------------------------
 S
               1        2.000     -0.10062819482682E+02      -273.823              -1.46E-09
               2        2.000     -0.50012405867783E+00       -13.609              -9.06E-10
               3        0.000      0.37386666571790E+00        10.173
               4        0.000      0.54114616881923E+01       147.253
               5        0.000      0.50154618712632E+02      1364.777
 P
               1        2.000     -0.19265861396330E+00        -5.243              -8.46E-10
               2        0.000      0.16859720175392E+00         4.588
               3        0.000      0.20146797119588E+01        54.822
 D
               1        0.000      0.12429821924707E+01        33.823
 F
               1        0.000      0.40162441326384E+01       109.288


 Partially Occupied:
               1 P                -0.19265861396330E+00
  
 HOMO :        2 S                -0.50012405867783E+00
 LUMO :        2 P                 0.16859720175392E+00
  


 Orbital Energies, all Irreps
 ========================================

 Irrep        no.  (spin)   Occup              E (au)                E (eV)
 ---------------------------------------------------------------------------
 S             1             2.00       -0.10062819482682E+02      -273.8233
 S             2             2.00       -0.50012405867783E+00       -13.6091
 P             1             2.00       -0.19265861396330E+00        -5.2425
 P             2             0.00        0.16859720175392E+00         4.5878
 S             3             0.00        0.37386666571790E+00        10.1734
 D             1             0.00        0.12429821924707E+01        33.8233
 P             3             0.00        0.20146797119588E+01        54.8222
 F             1             0.00        0.40162441326384E+01       109.2876
 S             4             0.00        0.54114616881923E+01       147.2534
 S             5             0.00        0.50154618712632E+02      1364.7766


 All Electron Calculation, thus no Orbital Energies of the Core Orbitals are calculated



 =======================================
 M U L L I K E N   P O P U L A T I O N S
 =======================================
  
 The survey below gives for each atom:
 a) the total charge (Z minus electrons)
 b) the net spin polarization (nr of electrons spin-A minus spin-B)
 c) for each spin the atomic electron valence density (integrated) per L-value.

 Atom              Charge    Spin density          S         P         D         F
 ----              ------    ------------       ------    ------    ------    ------
 1 C               0.0000                       4.0000    2.0000    0.0000    0.0000

 Populations of individual BAS functions
 ----------------------------------------
 1 C            0.4900  1.5029  0.9348  1.1161 -0.0439  0.1802  0.1802  0.1802  0.3776  0.3776
                0.3776  0.1089  0.1089  0.1089  0.0000  0.0000  0.0000  0.0000  0.0000  0.0000
                0.0000  0.0000  0.0000  0.0000  0.0000  0.0000  0.0000  0.0000  0.0000  0.0000

 Gross Charges per Atom (Z minus electrons)
 ==========================================
             0.0000
 Net Total:  0.00000000



 =======================================================================
 Electrostatic potential at the Nuclei due to electrons and other nuclei
 =======================================================================
  
         Atom                  Potential
         ----                  ---------
     1)   C                  14.67487189
 
 
 ========================
 No memory problems found
 ========================
 
 Maximum number of active allocate calls:         447
 
 *******************************************************************************

                             A D F   E X I T
 NORMAL TERMINATION



 =================
 Timing Statistics
 =================
  
 Total Used :                     CPU=        0.73      System=        0.04     Elapsed=        0.78

 Calls  Section                     ( Mean, Percentage )
 ---------------------------------------------------------------------------------------------------
     3  ><      ................      0.00    0.00             0.00    0.00             0.00    0.10
     1  INIT    ................      0.01    1.50             0.02   56.41             0.04    4.52
     1  GEOMET  ................      0.01    1.36             0.00   10.26             0.01    1.70
     1  INPUTA  ................      0.00    0.41             0.00    0.00             0.00    0.40
     1  MAINSY  ................      0.01    0.95             0.00    2.56             0.01    1.03
     1  SYMFIT  ................      0.00    0.27             0.00    0.00             0.00    0.16
     1  CORORT  ................      0.00    0.00             0.00    0.00             0.00    0.06
     1  SYMORB  ................      0.00    0.14             0.00    2.56             0.00    0.21
     1  CLSMAT  ................      0.01    1.09             0.00    2.56             0.01    1.18
     1  ORTHON  ................      0.00    0.41             0.00    0.00             0.00    0.38
     1  GENPT   ................      0.02    2.86             0.00    0.00             0.02    2.73
     1  PTBAS   ................      0.00    0.68             0.00    2.56             0.01    0.81
    13  FOCKY   ................      0.04   73.88             0.00   15.39             0.04   70.51
    13  FOCKTR  ................      0.00    2.31             0.00    0.00             0.00    2.34
    13  SDIIS   ................      0.00    4.63             0.00    2.56             0.00    4.57
     1  COREPS  ................      0.03    4.49             0.00    0.00             0.03    4.28
     1  POPAN   ................      0.01    1.22             0.00    0.00             0.01    1.18
     1  DEBYE   ................      0.00    0.14             0.00    0.00             0.00    0.12
     1  EXIT PROCEDURE .........      0.03    3.67             0.00    5.13             0.03    3.74


 Currently Open Files (EXIT00)
 ====================

 Unit    Access Format  Status   Type       Ident (file)
 -------------------------------------------------------
   3      SEQ    FORM   TRANSP  NORMAL      LOGFILE
                                          ( logfile )


 Buffered I/O statistics
 =======================
 Memory available:                     67108864
 Number of records fitting in memory:     16131
 Input :   0.1% of                        27790  *4k bytes
 Output:  13.6% of                         1373  *4k bytes
 Records from serial files evicted:           0
                    others evicted:           0
 Hash table lookups:      71837 with          0 conflicts (  0.00%)

 ***************************************************************************************************
 (LOGFILE)
 <May18-2019> <16:01:48>  ADF 2017  RunTime: May18-2019 16:01:48  Nodes: 1  Procs: 1
 <May18-2019> <16:01:48>  Oxygen (TZ2P)
 <May18-2019> <16:01:48>  RunType   : CREATE
 <May18-2019> <16:01:48>  Net Charge: 0 (Nuclei minus Electrons)
 <May18-2019> <16:01:48>  Symmetry  : ATOM
  Coordinates
    Atom         X           Y           Z   (Angstrom)
    1.O         0.000000    0.000000    0.000000
 <May18-2019> <16:01:48>  >>>> CORORT
 <May18-2019> <16:01:48>  >>>> CLSMAT
 <May18-2019> <16:01:48>  >>>> ORTHON
 <May18-2019> <16:01:48>  >>>> GENPT
 <May18-2019> <16:01:48>  Block Length=  68
 <May18-2019> <16:01:48>  >>>> PTBAS
 <May18-2019> <16:01:48>  >>>> CYCLE
 <May18-2019> <16:01:48>              |Error|         MaxErr       Wt(A-DIIS)
 <May18-2019> <16:01:48>      1      0.00000000      0.00000000
 <May18-2019> <16:01:48>      2      8.76574541      5.51803131    100.0
 <May18-2019> <16:01:48>      3      3.58549945      2.49941011    100.0
 <May18-2019> <16:01:48>      4      1.14791911      0.58301962    100.0
 <May18-2019> <16:01:48>      5      1.51958547      0.84054201    100.0
 <May18-2019> <16:01:48>      6      0.17882893      0.10424203    100.0
 <May18-2019> <16:01:48>      7      0.20012529      0.11364913    100.0
 <May18-2019> <16:01:48>      8      0.01695178      0.00994720      9.0
 <May18-2019> <16:01:48>      9      0.00174843      0.00098437      0.0
 <May18-2019> <16:01:48>     10      0.00000143      0.00000071      0.0
 <May18-2019> <16:01:48>     11      0.00000005      0.00000002      0.0
 <May18-2019> <16:01:48>     12      0.00000000      0.00000000      0.0
 <May18-2019> <16:01:48>  SCF converged
 <May18-2019> <16:01:48>     13      0.00000000      0.00000000      0.0
 <May18-2019> <16:01:48>  >>>> POPAN
 <May18-2019> <16:01:48>  >>>> DEBYE
 <May18-2019> <16:01:48>  NORMAL TERMINATION
 <May18-2019> <16:01:48>  END
 <May18-2019> <16:01:48>  ADF 2017  RunTime: May18-2019 16:01:48  Nodes: 1  Procs: 1
 <May18-2019> <16:01:48>  Carbon (TZ2P)
 <May18-2019> <16:01:48>  RunType   : CREATE
 <May18-2019> <16:01:48>  Net Charge: 0 (Nuclei minus Electrons)
 <May18-2019> <16:01:48>  Symmetry  : ATOM
  Coordinates
    Atom         X           Y           Z   (Angstrom)
    1.C         0.000000    0.000000    0.000000
 <May18-2019> <16:01:49>  >>>> CORORT
 <May18-2019> <16:01:49>  >>>> CLSMAT
 <May18-2019> <16:01:49>  >>>> ORTHON
 <May18-2019> <16:01:49>  >>>> GENPT
 <May18-2019> <16:01:49>  Block Length=  72
 <May18-2019> <16:01:49>  >>>> PTBAS
 <May18-2019> <16:01:49>  >>>> CYCLE
 <May18-2019> <16:01:49>              |Error|         MaxErr       Wt(A-DIIS)
 <May18-2019> <16:01:49>      1      0.00000000      0.00000000
 <May18-2019> <16:01:49>      2      4.48031974      3.32884133    100.0
 <May18-2019> <16:01:49>      3      1.63678889      1.31529535    100.0
 <May18-2019> <16:01:49>      4      0.72226765      0.58081551    100.0
 <May18-2019> <16:01:49>      5      0.41279476      0.32864204    100.0
 <May18-2019> <16:01:49>      6      0.12664316      0.09684749     96.8
 <May18-2019> <16:01:49>      7      0.11556823      0.09012376     90.0
 <May18-2019> <16:01:49>      8      0.00662928      0.00514089      4.2
 <May18-2019> <16:01:49>      9      0.00021574      0.00016342      0.0
 <May18-2019> <16:01:49>     10      0.00000195      0.00000132      0.0
 <May18-2019> <16:01:49>     11      0.00000002      0.00000002      0.0
 <May18-2019> <16:01:49>     12      0.00000000      0.00000000      0.0
 <May18-2019> <16:01:49>  SCF converged
 <May18-2019> <16:01:49>     13      0.00000000      0.00000000      0.0
 <May18-2019> <16:01:49>  >>>> POPAN
 <May18-2019> <16:01:49>  >>>> DEBYE
 <May18-2019> <16:01:49>  NORMAL TERMINATION
 <May18-2019> <16:01:49>  END

Create In   file=TZ2P-In
XC
  GGA blyp
End
End Input

 *******************************************************************************
 *                                                                             *
 *  -------------------------------------                                      *
 *   Amsterdam Density Functional  (ADF)         2017                          *
 *  -------------------------------------                                      *
 *                                               r58813 2017-04-12             *
 *                                                                             *
 *                                                                             *
 *                              =================                              *
 *                              |               |                              *
 *                              |     A D F     |                              *
 *                              |               |                              *
 *                              =================                              *
 *                                                                             *
 *                                                                             *
 *   Online information and documentation:  https://www.scm.com/support/       *
 *   E-mail:  support@scm.com   info@scm.com                                   *
 *                                                                             *
 *   Scientific publications using ADF results must be properly referenced     *
 *   See the User Manuals (or the web site) for recommended citations          *
 *   The terms and conditions of the End User License Agreement apply to       *
 *   the use of ADF, https://www.scm.com/license-terms/                        *
 *                                                                             *
 **********************  x86_64_linux_intel / intelmpi  ************************
 
 Licensed to: VU/FEW (+ SARA) / ALGEMEEN / Amsterdam / THE NETHERLANDS
 SCM User ID: u7668
  
 ADF 2017  RunTime: May18-2019 16:01:49  Nodes: 1  Procs: 1

 Temporary files are created in /local/datastore0/tcst25/190691/kid_0.kFGXiA

 Indium (TZ2P, all electron)



 ===========================
 A T T A C H E D   F I L E S
 ===========================
  
 CREATE - Data File:    TZ2P-In
                        Indium (TZ2P, all electron)



 ===============================
 M O D E L   P A R A M E T E R S
 ===============================
  
 DENSITY FUNCTIONAL POTENTIAL (scf)
    LDA:                               Exchange only                           == Not Default ==
    Gradient Corrections:              Becke88 LYP                             == Not Default ==

 SPIN  (restricted / unrestr.)
    Molecule:                          Restricted                               

 OTHER ASPECTS
    Relativistic Corrections:          ---                                      

    Nuclear Charge Density Model:      Point Charge Nuclei                      
    Core Treatment:                    Frozen Orbital(s)                        

    Hyperfine or Zeeman Interaction:   ---                                      



 =====================================
 S Y M M E T R Y ,   E L E C T R O N S
 =====================================
  
 Symmetry: ATOM

 Irreducible Representations, including subspecies
 -------------------------------------------------
 S
 P:x  P:y  P:z
 D:z2  D:x2-y2  D:xy  D:xz  D:yz
 F:z3  F:z  F:xyz  F:z2x  F:z2y  F:x  F:y


 Configuration of Valence Electrons
 ==================================

          Occupation Numbers
          -------------------------------------------------
 S        5*2
 P        3*6 1
 D        2*10
 F        0
          -------------------------------------------------

 Total:   49

 Net Charge: 0 (Nuclei minus Electrons)

 Preset values for MO occupations will be applied through SCF cycle no. 1000000
 Thereafter, the program will assign electrons to MOs that are spatially
 similar to the occupied MOs in a "reference" cycle ("KeepOrbitals").
 The reference cycle is always the PREVIOUS cycle: it will evolve with
 the SCF procedure.



 ================================
 (Slater-type)  F U N C T I O N S  ***  (Basis and Fit)  ***
 ================================
  

 Atom Type    1  (In)
 ==============

 Valence Basis Sets:  30
 -----------------------
   1 S  339.000000
   1 S   84.700000
   1 S   49.300000
   2 S   57.600000
   2 S   21.100000
   3 S   10.900000
   3 S    6.450000
   4 S    7.000000
   4 S    4.500000
   5 S    3.000000
   5 S    1.900000
   5 S    1.240000
   2 P   84.700000
   2 P   31.500000
   2 P   20.250000
   3 P   12.100000
   3 P    8.900000
   4 P    6.000000
   4 P    3.750000
   5 P    2.300000
   5 P    1.300000
   5 P    0.750000
   3 D   19.250000
   3 D   11.600000
   3 D    7.800000
   4 D    5.550000
   4 D    3.250000
   4 D    1.900000
   5 D    1.300000
   4 F    2.000000


 BAS: List of all Elementary Cartesian Basis Functions
 =====================================================

 The numbering in the list below (to the right of the function characteristics) is referred
 to in print-outs of MO eigenvectors and Mulliken populations in the BAS representation
 (as contrasted to the SFO representation).

 Notes:
 1. The functions are characterized by a polynomial prefactor (powers of x,y,z and r) and
    an exponential decay factor alpha.
 2. Since the basis sets are specific for an atom TYPE, the individual functions occur on
    all atoms of that type.
 3. The word 'Core' in the left margin signals that it is a Core Function (CF) : not a
    degree of freedom in the valence set, but only used to ensure orthogonalization of
    the other valence basis functions on the frozen Core Orbitals.


 (power of) X  Y  Z  R     Alpha  on Atom
            ==========     =====     ==========

 In                                   1
                                  ---------------------------------------------------------------------------
            0  0  0  0   339.000      1
            0  0  0  0    84.700      2
            0  0  0  0    49.300      3
            0  0  0  1    57.600      4
            0  0  0  1    21.100      5
            0  0  0  2    10.900      6
            0  0  0  2     6.450      7
            0  0  0  3     7.000      8
            0  0  0  3     4.500      9
            0  0  0  4     3.000     10
            0  0  0  4     1.900     11
            0  0  0  4     1.240     12
            1  0  0  0    84.700     13
            0  1  0  0    84.700     14
            0  0  1  0    84.700     15
            1  0  0  0    31.500     16
            0  1  0  0    31.500     17
            0  0  1  0    31.500     18
            1  0  0  0    20.250     19
            0  1  0  0    20.250     20
            0  0  1  0    20.250     21
            1  0  0  1    12.100     22
            0  1  0  1    12.100     23
            0  0  1  1    12.100     24
            1  0  0  1     8.900     25
            0  1  0  1     8.900     26
            0  0  1  1     8.900     27
            1  0  0  2     6.000     28
            0  1  0  2     6.000     29
            0  0  1  2     6.000     30
            1  0  0  2     3.750     31
            0  1  0  2     3.750     32
            0  0  1  2     3.750     33
            1  0  0  3     2.300     34
            0  1  0  3     2.300     35
            0  0  1  3     2.300     36
            1  0  0  3     1.300     37
            0  1  0  3     1.300     38
            0  0  1  3     1.300     39
            1  0  0  3     0.750     40
            0  1  0  3     0.750     41
            0  0  1  3     0.750     42
            2  0  0  0    19.250     43
            1  1  0  0    19.250     44
            1  0  1  0    19.250     45
            0  2  0  0    19.250     46
            0  1  1  0    19.250     47
            0  0  2  0    19.250     48
            2  0  0  0    11.600     49
            1  1  0  0    11.600     50
            1  0  1  0    11.600     51
            0  2  0  0    11.600     52
            0  1  1  0    11.600     53
            0  0  2  0    11.600     54
            2  0  0  0     7.800     55
            1  1  0  0     7.800     56
            1  0  1  0     7.800     57
            0  2  0  0     7.800     58
            0  1  1  0     7.800     59
            0  0  2  0     7.800     60
            2  0  0  1     5.550     61
            1  1  0  1     5.550     62
            1  0  1  1     5.550     63
            0  2  0  1     5.550     64
            0  1  1  1     5.550     65
            0  0  2  1     5.550     66
            2  0  0  1     3.250     67
            1  1  0  1     3.250     68
            1  0  1  1     3.250     69
            0  2  0  1     3.250     70
            0  1  1  1     3.250     71
            0  0  2  1     3.250     72
            2  0  0  1     1.900     73
            1  1  0  1     1.900     74
            1  0  1  1     1.900     75
            0  2  0  1     1.900     76
            0  1  1  1     1.900     77
            0  0  2  1     1.900     78
            2  0  0  2     1.300     79
            1  1  0  2     1.300     80
            1  0  1  2     1.300     81
            0  2  0  2     1.300     82
            0  1  1  2     1.300     83
            0  0  2  2     1.300     84
            3  0  0  0     2.000     85
            2  1  0  0     2.000     86
            2  0  1  0     2.000     87
            1  2  0  0     2.000     88
            1  1  1  0     2.000     89
            1  0  2  0     2.000     90
            0  3  0  0     2.000     91
            0  2  1  0     2.000     92
            0  1  2  0     2.000     93
            0  0  3  0     2.000     94

 Total number of charge fitting functions (nprimf)       277
 Total number of Cartesian basis functions (naos)         94
 Total number of Cartesian core functions  (ncos)          0



 BAS: List of all Elementary Cartesian Basis Functions
 =====================================================

 The numbering in the list below (to the right of the function characteristics) is referred
 to in print-outs of MO eigenvectors and Mulliken populations in the BAS representation
 (as contrasted to the SFO representation).

 Notes:
 1. The functions are characterized by a polynomial prefactor (powers of x,y,z and r) and
    an exponential decay factor alpha.
 2. Since the basis sets are specific for an atom TYPE, the individual functions occur on
    all atoms of that type.
 3. The word 'Core' in the left margin signals that it is a Core Function (CF) : not a
    degree of freedom in the valence set, but only used to ensure orthogonalization of
    the other valence basis functions on the frozen Core Orbitals.


 (power of) X  Y  Z  R     Alpha  on Atom
            ==========     =====     ==========

 In                                   1
                                  ---------------------------------------------------------------------------
            0  0  0  0   339.000      1
            0  0  0  0    84.700      2
            0  0  0  0    49.300      3
            0  0  0  1    57.600      4
            0  0  0  1    21.100      5
            0  0  0  2    10.900      6
            0  0  0  2     6.450      7
            0  0  0  3     7.000      8
            0  0  0  3     4.500      9
            0  0  0  4     3.000     10
            0  0  0  4     1.900     11
            0  0  0  4     1.240     12
            1  0  0  0    84.700     13
            0  1  0  0    84.700     14
            0  0  1  0    84.700     15
            1  0  0  0    31.500     16
            0  1  0  0    31.500     17
            0  0  1  0    31.500     18
            1  0  0  0    20.250     19
            0  1  0  0    20.250     20
            0  0  1  0    20.250     21
            1  0  0  1    12.100     22
            0  1  0  1    12.100     23
            0  0  1  1    12.100     24
            1  0  0  1     8.900     25
            0  1  0  1     8.900     26
            0  0  1  1     8.900     27
            1  0  0  2     6.000     28
            0  1  0  2     6.000     29
            0  0  1  2     6.000     30
            1  0  0  2     3.750     31
            0  1  0  2     3.750     32
            0  0  1  2     3.750     33
            1  0  0  3     2.300     34
            0  1  0  3     2.300     35
            0  0  1  3     2.300     36
            1  0  0  3     1.300     37
            0  1  0  3     1.300     38
            0  0  1  3     1.300     39
            1  0  0  3     0.750     40
            0  1  0  3     0.750     41
            0  0  1  3     0.750     42
            2  0  0  0    19.250     43
            1  1  0  0    19.250     44
            1  0  1  0    19.250     45
            0  2  0  0    19.250     46
            0  1  1  0    19.250     47
            0  0  2  0    19.250     48
            2  0  0  0    11.600     49
            1  1  0  0    11.600     50
            1  0  1  0    11.600     51
            0  2  0  0    11.600     52
            0  1  1  0    11.600     53
            0  0  2  0    11.600     54
            2  0  0  0     7.800     55
            1  1  0  0     7.800     56
            1  0  1  0     7.800     57
            0  2  0  0     7.800     58
            0  1  1  0     7.800     59
            0  0  2  0     7.800     60
            2  0  0  1     5.550     61
            1  1  0  1     5.550     62
            1  0  1  1     5.550     63
            0  2  0  1     5.550     64
            0  1  1  1     5.550     65
            0  0  2  1     5.550     66
            2  0  0  1     3.250     67
            1  1  0  1     3.250     68
            1  0  1  1     3.250     69
            0  2  0  1     3.250     70
            0  1  1  1     3.250     71
            0  0  2  1     3.250     72
            2  0  0  1     1.900     73
            1  1  0  1     1.900     74
            1  0  1  1     1.900     75
            0  2  0  1     1.900     76
            0  1  1  1     1.900     77
            0  0  2  1     1.900     78
            2  0  0  2     1.300     79
            1  1  0  2     1.300     80
            1  0  1  2     1.300     81
            0  2  0  2     1.300     82
            0  1  1  2     1.300     83
            0  0  2  2     1.300     84
            3  0  0  0     2.000     85
            2  1  0  0     2.000     86
            2  0  1  0     2.000     87
            1  2  0  0     2.000     88
            1  1  1  0     2.000     89
            1  0  2  0     2.000     90
            0  3  0  0     2.000     91
            0  2  1  0     2.000     92
            0  1  2  0     2.000     93
            0  0  3  0     2.000     94
1
 ***************************************************************************************************



                                              ***********************
                                              *  T E C H N I C A L  *
                                              ***********************
  



 =============================================================
 P A R A L L E L I Z A T I O N  and  V E C T O R I Z A T I O N
 =============================================================
  
 Nr of parallel processes:                                1
 Maximum vector length in NumInt loops:                 128

 IO buffersize (Mb):                                     64.000000



 =====================
 S C F   U P D A T E S
 =====================
  
 Max. nr. of cycles:                               300
 Convergence criterion:                              0.0000000100
   secondary criterion:                              0.0000000100

 Mix parameter (when DIIS does not apply):           0.2000000000
 Special mix parameter for the first cycle:          1.0000000000
 Mixed ADIIS+DIIS will be used
    Max number of expansion vectors:                10
    Pure ADIIS when Max([F,P]) is above              0.1000000000
    Pure DIIS when Max([F,P]) is below               0.0010000000
 Automatic ElectronSmearing (in case of problematic SCF convergence) disabled



 =================
 P R E C I S I O N  ***  (General: NumInt, NeglectFunctionTails, ...)  ***
 =================
  

 NumInt:           Target precision:                12.0000000000
 -------           Initial precision:               10.0000000000
                   Min. precision (optimization):   10.0000000000

 Neglect Functions:          Basis functions:        0.1000000000E-13
 ------------------          Fit functions:          0.1000000000E-13



 ===========================
 L I N E A R   S C A L I N G
 ===========================
  

 Cut-off radii density fit:                        0.1000000000E-97
 Overlap cut-off criterion AO matrix elements:     0.1000000000E-97
 Cut-offs for Coulomb potential and fitted density:0.1000000000E-97
 Cut-off criterion for Coulomb multipole terms:    0.1000000000E-97
 Progressive Convergence parameter:                 0.000000000    
1
 ***************************************************************************************************



                                            ***************************
                                            *  C O M P U T A T I O N  *
                                            ***************************
  

 Number of elements of the density matrix on this node (used, total):      4465      4465



 ===========================================
 Numerical Integration : Fuzzy Cells (Becke)
 ===========================================
  
 Becke grid quality: VERYGOOD       
  
 Lebedev angular grid order:             min:  13 max:  41
 Nr. of radial points:                   min: 187 max: 187

 Total nr. of points:        187
 Nr. of blocks:                2
 Block length:                94
 Nr. of dummy points:          1


 Test of Precision of the Numerical Integration Grid
 ===================================================

 Integral of the Total Core Density:                   0.00000000000000



 ========================
 Density Fitting (zlmFit)
 ========================
  
 ZlmFit Fit Quality: VERYGOOD       
  
 Max L-expansion:                        min:   0 max:   0
 Nr. of radial interpolation points:     min: 410 max: 410



 =====
 S C F  ***  ScaSCF  ***
 =====
  

 CYCLE    1
 SCF Error: norm([F,P])=      0.000000000000, max([F,P])=      0.000000000000
 orbitals (Q,E):
 ---------------
 S :1...12           ( 2.00 -1200.4998)  ( 2.00  -300.0532)  ( 2.00  -133.0479)  ( 2.00   -74.6470)
                     ( 2.00   -47.5615)  ( 0.00   -32.3563)  ( 0.00   -21.8848)  ( 0.00   -14.1696)
                     ( 0.00    -8.7251)  ( 0.00   635.8496)  ( 0.00  6620.7366)  ( 0.00 80087.9967)
 P :1...10           ( 6.00  -300.0225)  ( 6.00  -132.9502)  ( 6.00   -74.6121)  ( 1.00   -46.9679)
                     ( 0.00   -30.3586)  ( 0.00   -18.5052)  ( 0.00   -10.7059)  ( 0.00    -5.9208)
                     ( 0.00   100.9724)  ( 0.00  2945.1412)
 D :1...7            (10.00  -133.2408)  (10.00   -74.3842)  ( 0.00   -46.1195)  ( 0.00   -29.1534)
                     ( 0.00   -17.9440)  ( 0.00   -10.9447)  ( 0.00    -8.3204)
 F :1...1            ( 0.00   -22.5000)

 CYCLE    2
  SDIIS (wt  0.000):  1.0000 -0.0000
 A-DIIS (wt  1.000):  0.0000  1.0000
  DIIS coefficients:  0.0000  1.0000
 SCF Error: norm([F,P])=    264.586210717079, max([F,P])=     38.164391960028
 orbitals (Q,E):
 ---------------
 S :1...6            ( 2.00  -916.8188)  ( 2.00   -94.0741)  ( 2.00    -3.8137)  ( 2.00    -0.0046)
                     ( 2.00     0.2395)  ( 0.00     0.9913)
 P :1...5            ( 6.00   -81.4621)  ( 6.00    -0.5021)  ( 6.00     0.0265)  ( 1.00     0.1868)
                     ( 0.00     0.7816)
 D :1...3            (10.00     0.2218)  (10.00     0.9027)  ( 0.00     2.6478)
 F :1...1            ( 0.00     1.7207)

 CYCLE    3
  SDIIS (wt  0.000):  0.1535  0.8465
 A-DIIS (wt  1.000):  0.5379  0.4621
  DIIS coefficients:  0.5379  0.4621
 SCF Error: norm([F,P])=    107.911337975020, max([F,P])=     28.348189497147
 orbitals (Q,E):
 ---------------
 S :1...6            ( 2.00  -980.6416)  ( 2.00  -145.5923)  ( 2.00   -33.2441)  ( 2.00   -10.0312)
                     ( 2.00    -3.5814)  ( 0.00    -1.0552)
 P :1...5            ( 6.00  -135.1809)  ( 6.00   -29.3597)  ( 6.00    -8.6683)  ( 1.00    -3.0003)
                     ( 0.00    -0.8255)
 D :1...3            (10.00   -22.0328)  (10.00    -6.2990)  ( 0.00    -2.0540)
 F :1...1            ( 0.00    -1.7636)

 CYCLE    4
  SDIIS (wt  0.000):  0.0211 -0.0064  0.9853
 A-DIIS (wt  1.000):  0.0000  0.0000  1.0000
  DIIS coefficients:  0.0000  0.0000  1.0000
 SCF Error: norm([F,P])=     16.780372690928, max([F,P])=      2.646117150539
 orbitals (Q,E):
 ---------------
 S :1...6            ( 2.00  -982.2874)  ( 2.00  -140.9575)  ( 2.00   -23.7305)  ( 2.00    -1.8377)
                     ( 2.00    -0.0012)  ( 0.00     0.2940)
 P :1...5            ( 6.00  -131.6382)  ( 6.00   -19.9492)  ( 6.00    -0.7703)  ( 1.00     0.0220)
                     ( 0.00     0.1709)
[...]
 <May18-2019> <16:02:30>  >>>> PTBAS
 <May18-2019> <16:02:32>  >>>> CYCLE
 <May18-2019> <16:02:34>              |Error|         MaxErr       Wt(A-DIIS)
 <May18-2019> <16:02:34>      1      1.46136787      0.73036663
 <May18-2019> <16:02:35>      2      0.21410166      0.02829989    100.0
 <May18-2019> <16:02:37>      3      0.05714155      0.01044648    100.0
 <May18-2019> <16:02:39>      4      0.06271329      0.00868067      7.8
 <May18-2019> <16:02:40>      5      0.00694350      0.00070096      0.0
 <May18-2019> <16:02:42>      6      0.00274112      0.00058022      0.0
 <May18-2019> <16:02:44>      7      0.00016487      0.00003472      0.0
 <May18-2019> <16:02:46>      8      0.00005762      0.00000852      0.0
 <May18-2019> <16:02:47>      9      0.00000598      0.00000123      0.0
 <May18-2019> <16:02:49>     10      0.00000041      0.00000006      0.0
 <May18-2019> <16:02:49>  SCF converged
 <May18-2019> <16:02:51>     11      0.00000002      0.00000000      0.0
 <May18-2019> <16:02:51>  >>>> TOTEN
 <May18-2019> <16:02:54>  >>>> POPAN
 <May18-2019> <16:02:54>  >>>> DEBYE
 <May18-2019> <16:02:54>  >>>> ENGRAD
 <May18-2019> <16:03:02>  current energy                               -1.77997935 Hartree
 <May18-2019> <16:03:02>  energy change                      -0.18029652     0.00010000    F
 <May18-2019> <16:03:02>  constrained gradient max            0.25142760     0.00010000    F
 <May18-2019> <16:03:02>  constrained gradient rms            0.09895659     0.00006667    F
 <May18-2019> <16:03:02>  gradient max                        0.25142760
 <May18-2019> <16:03:02>  gradient rms                        0.09895659
 <May18-2019> <16:03:02>  cart. step max                      0.11909448     0.01000000    F
 <May18-2019> <16:03:02>  cart. step rms                      0.06110408     0.00666667    F
  Coordinates in Geometry Cycle 3
    Atom         X           Y           Z   (Angstrom)
    1.In        0.000000    0.000000    0.000000
    2.C         0.000000    2.156060    0.000000
    3.O         0.000000    3.265013    0.000000
    4.C         0.000000    0.000000    2.156060
    5.O         0.000000    0.000000    3.265013
    6.C         0.000000   -2.156060    0.000000
    7.O         0.000000   -3.265013    0.000000
    8.C         0.000000    0.000000   -2.156060
    9.O         0.000000    0.000000   -3.265013
   10.C         2.156060    0.000000    0.000000
   11.O         3.265013    0.000000    0.000000
   12.C        -2.156060    0.000000    0.000000
   13.O        -3.265013    0.000000    0.000000
 <May18-2019> <16:03:02>  >>>> CORORT
 <May18-2019> <16:03:02>  >>>> CLSMAT
 <May18-2019> <16:03:02>  >>>> ORTHON
 <May18-2019> <16:03:02>  >>>> GENPT
 <May18-2019> <16:03:02>  Block Length= 127
 <May18-2019> <16:03:02>  >>>> PTBAS
 <May18-2019> <16:03:04>  >>>> CYCLE
 <May18-2019> <16:03:06>              |Error|         MaxErr       Wt(A-DIIS)
 <May18-2019> <16:03:06>      1      1.41461395      0.62351138
 <May18-2019> <16:03:07>      2      0.11047088      0.01627631    100.0
 <May18-2019> <16:03:09>      3      0.31471023      0.04467519    100.0
 <May18-2019> <16:03:11>      4      0.09526634      0.01156426     10.7
 <May18-2019> <16:03:12>      5      0.00589427      0.00082231      0.0
 <May18-2019> <16:03:14>      6      0.00167515      0.00034843      0.0
 <May18-2019> <16:03:16>      7      0.00015718      0.00002108      0.0
 <May18-2019> <16:03:17>      8      0.00003785      0.00000451      0.0
 <May18-2019> <16:03:19>      9      0.00000168      0.00000033      0.0
 <May18-2019> <16:03:19>  SCF converged
 <May18-2019> <16:03:21>     10      0.00000013      0.00000002      0.0
 <May18-2019> <16:03:21>  >>>> TOTEN
 <May18-2019> <16:03:24>  >>>> POPAN
 <May18-2019> <16:03:24>  >>>> DEBYE
 <May18-2019> <16:03:24>  >>>> ENGRAD
 <May18-2019> <16:03:31>  current energy                               -1.90129709 Hartree
 <May18-2019> <16:03:31>  energy change                      -0.12131775     0.00010000    F
 <May18-2019> <16:03:31>  constrained gradient max            0.06558238     0.00010000    F
 <May18-2019> <16:03:31>  constrained gradient rms            0.03582712     0.00006667    F
 <May18-2019> <16:03:31>  gradient max                        0.06558238
 <May18-2019> <16:03:31>  gradient rms                        0.03582712
 <May18-2019> <16:03:31>  cart. step max                      0.15000000     0.01000000    F
 <May18-2019> <16:03:31>  cart. step rms                      0.08108640     0.00666667    F
  Coordinates in Geometry Cycle 4
    Atom         X           Y           Z   (Angstrom)
    1.In        0.000000    0.000000    0.000000
    2.C         0.000000    2.298319    0.000000
    3.O         0.000000    3.415013    0.000000
    4.C         0.000000    0.000000    2.298319
    5.O         0.000000    0.000000    3.415013
    6.C         0.000000   -2.298319    0.000000
    7.O         0.000000   -3.415013    0.000000
    8.C         0.000000    0.000000   -2.298319
    9.O         0.000000    0.000000   -3.415013
   10.C         2.298319    0.000000    0.000000
   11.O         3.415013    0.000000    0.000000
   12.C        -2.298319    0.000000    0.000000
   13.O        -3.415013    0.000000    0.000000
 <May18-2019> <16:03:31>  >>>> CORORT
 <May18-2019> <16:03:31>  >>>> CLSMAT
 <May18-2019> <16:03:31>  >>>> ORTHON
 <May18-2019> <16:03:31>  >>>> GENPT
 <May18-2019> <16:03:32>  Block Length= 127
 <May18-2019> <16:03:32>  >>>> PTBAS
 <May18-2019> <16:03:33>  >>>> CYCLE
 <May18-2019> <16:03:35>              |Error|         MaxErr       Wt(A-DIIS)
 <May18-2019> <16:03:35>      1      1.30829708      0.57908768
 <May18-2019> <16:03:37>      2      0.09230687      0.01262132    100.0
 <May18-2019> <16:03:38>      3      0.28356461      0.04242412    100.0
 <May18-2019> <16:03:40>      4      0.05900114      0.00807213      7.1
 <May18-2019> <16:03:41>      5      0.00549293      0.00067510      0.0
 <May18-2019> <16:03:43>      6      0.00103478      0.00014770      0.0
 <May18-2019> <16:03:45>      7      0.00056897      0.00009344      0.0
 <May18-2019> <16:03:46>      8      0.00005355      0.00000934      0.0
 <May18-2019> <16:03:48>      9      0.00000848      0.00000092      0.0
 <May18-2019> <16:03:48>  SCF converged
 <May18-2019> <16:03:49>     10      0.00000078      0.00000013      0.0
 <May18-2019> <16:03:49>  >>>> TOTEN
 <May18-2019> <16:03:52>  >>>> POPAN
 <May18-2019> <16:03:52>  >>>> DEBYE
 <May18-2019> <16:03:52>  >>>> ENGRAD
 <May18-2019> <16:04:00>  current energy                               -1.97502844 Hartree
 <May18-2019> <16:04:00>  energy change                      -0.07373135     0.00010000    F
 <May18-2019> <16:04:00>  constrained gradient max            0.02708490     0.00010000    F
 <May18-2019> <16:04:00>  constrained gradient rms            0.01485697     0.00006667    F
 <May18-2019> <16:04:00>  gradient max                        0.02708490
 <May18-2019> <16:04:00>  gradient rms                        0.01485697
 <May18-2019> <16:04:00>  cart. step max                      0.10624551     0.01000000    F
 <May18-2019> <16:04:00>  cart. step rms                      0.05744276     0.00666667    F
  Coordinates in Geometry Cycle 5
    Atom         X           Y           Z   (Angstrom)
    1.In        0.000000    0.000000    0.000000
    2.C         0.000000    2.399114    0.000000
    3.O         0.000000    3.521258    0.000000
    4.C         0.000000    0.000000    2.399114
    5.O         0.000000    0.000000    3.521258
    6.C         0.000000   -2.399114    0.000000
    7.O         0.000000   -3.521258    0.000000
    8.C         0.000000    0.000000   -2.399114
    9.O         0.000000    0.000000   -3.521258
   10.C         2.399114    0.000000    0.000000
   11.O         3.521258    0.000000    0.000000
   12.C        -2.399114    0.000000    0.000000
   13.O        -3.521258    0.000000    0.000000
 <May18-2019> <16:04:00>  >>>> CORORT
 <May18-2019> <16:04:00>  >>>> CLSMAT
 <May18-2019> <16:04:00>  >>>> ORTHON
 <May18-2019> <16:04:00>  >>>> GENPT
 <May18-2019> <16:04:00>  Block Length= 127
 <May18-2019> <16:04:00>  >>>> PTBAS
 <May18-2019> <16:04:01>  >>>> CYCLE
 <May18-2019> <16:04:03>              |Error|         MaxErr       Wt(A-DIIS)
 <May18-2019> <16:04:03>      1      0.74825596      0.35115501
 <May18-2019> <16:04:05>      2      0.08930051      0.01338908    100.0
 <May18-2019> <16:04:06>      3      0.33574203      0.05038075    100.0
 <May18-2019> <16:04:08>      4      0.09368974      0.01448170     13.6
 <May18-2019> <16:04:09>      5      0.00839765      0.00138768      0.4
 <May18-2019> <16:04:11>      6      0.00182269      0.00028350      0.0
 <May18-2019> <16:04:13>      7      0.00027261      0.00003074      0.0
 <May18-2019> <16:04:14>      8      0.00004567      0.00000411      0.0
 <May18-2019> <16:04:16>      9      0.00000676      0.00000072      0.0
 <May18-2019> <16:04:16>  SCF converged
 <May18-2019> <16:04:17>     10      0.00000057      0.00000010      0.0
 <May18-2019> <16:04:17>  >>>> TOTEN
 <May18-2019> <16:04:20>  >>>> POPAN
 <May18-2019> <16:04:20>  >>>> DEBYE
 <May18-2019> <16:04:20>  >>>> ENGRAD
 <May18-2019> <16:04:27>  current energy                               -1.99474651 Hartree
 <May18-2019> <16:04:27>  energy change                      -0.01971807     0.00010000    F
 <May18-2019> <16:04:27>  constrained gradient max            0.01808760     0.00010000    F
 <May18-2019> <16:04:27>  constrained gradient rms            0.00714384     0.00006667    F
 <May18-2019> <16:04:27>  gradient max                        0.01808760
 <May18-2019> <16:04:27>  gradient rms                        0.00714384
 <May18-2019> <16:04:27>  cart. step max                      0.10755067     0.01000000    F
 <May18-2019> <16:04:27>  cart. step rms                      0.05898320     0.00666667    F
  Coordinates in Geometry Cycle 6
    Atom         X           Y           Z   (Angstrom)
    1.In        0.000000    0.000000    0.000000
    2.C         0.000000    2.504217    0.000000
    3.O         0.000000    3.628809    0.000000
    4.C         0.000000    0.000000    2.504217
    5.O         0.000000    0.000000    3.628809
    6.C         0.000000   -2.504217    0.000000
    7.O         0.000000   -3.628809    0.000000
    8.C         0.000000    0.000000   -2.504217
    9.O         0.000000    0.000000   -3.628809
   10.C         2.504217    0.000000    0.000000
   11.O         3.628809    0.000000    0.000000
   12.C        -2.504217    0.000000    0.000000
   13.O        -3.628809    0.000000    0.000000
 <May18-2019> <16:04:27>  >>>> CORORT
 <May18-2019> <16:04:27>  >>>> CLSMAT
 <May18-2019> <16:04:27>  >>>> ORTHON
 <May18-2019> <16:04:27>  >>>> GENPT
 <May18-2019> <16:04:28>  Block Length= 127
 <May18-2019> <16:04:28>  >>>> PTBAS
 <May18-2019> <16:04:29>  >>>> CYCLE
 <May18-2019> <16:04:31>              |Error|         MaxErr       Wt(A-DIIS)
 <May18-2019> <16:04:31>      1      0.65604607      0.32764115
 <May18-2019> <16:04:32>      2      0.09965290      0.01543341    100.0
 <May18-2019> <16:04:34>      3      0.38112981      0.05709118    100.0
 <May18-2019> <16:04:35>      4      0.10794119      0.01666082     15.8
 <May18-2019> <16:04:37>      5      0.01098118      0.00212948      1.1
 <May18-2019> <16:04:38>      6      0.00092750      0.00015653      0.0
 <May18-2019> <16:04:40>      7      0.00035464      0.00003598      0.0
 <May18-2019> <16:04:41>      8      0.00005631      0.00000727      0.0
 <May18-2019> <16:04:43>      9      0.00000437      0.00000060      0.0
 <May18-2019> <16:04:43>  SCF converged
 <May18-2019> <16:04:44>     10      0.00000024      0.00000004      0.0
 <May18-2019> <16:04:44>  >>>> TOTEN
 <May18-2019> <16:04:47>  >>>> POPAN
 <May18-2019> <16:04:47>  >>>> DEBYE
 <May18-2019> <16:04:47>  >>>> ENGRAD
 <May18-2019> <16:04:54>  current energy                               -1.99735874 Hartree
 <May18-2019> <16:04:54>  energy change                      -0.00261223     0.00010000    F
 <May18-2019> <16:04:54>  constrained gradient max            0.00789068     0.00010000    F
 <May18-2019> <16:04:54>  constrained gradient rms            0.00376061     0.00006667    F
 <May18-2019> <16:04:54>  gradient max                        0.00789068
 <May18-2019> <16:04:54>  gradient rms                        0.00376061
 <May18-2019> <16:04:54>  cart. step max                      0.01301950     0.01000000    F
 <May18-2019> <16:04:54>  cart. step rms                      0.00682011     0.00666667    F
  Coordinates in Geometry Cycle 7
    Atom         X           Y           Z   (Angstrom)
    1.In        0.000000    0.000000    0.000000
    2.C         0.000000    2.492691    0.000000
    3.O         0.000000    3.615790    0.000000
    4.C         0.000000    0.000000    2.492691
    5.O         0.000000    0.000000    3.615790
    6.C         0.000000   -2.492691    0.000000
    7.O         0.000000   -3.615790    0.000000
    8.C         0.000000    0.000000   -2.492691
    9.O         0.000000    0.000000   -3.615790
   10.C         2.492691    0.000000    0.000000
   11.O         3.615790    0.000000    0.000000
   12.C        -2.492691    0.000000    0.000000
   13.O        -3.615790    0.000000    0.000000
 <May18-2019> <16:04:54>  >>>> CORORT
 <May18-2019> <16:04:54>  >>>> CLSMAT
 <May18-2019> <16:04:54>  >>>> ORTHON
 <May18-2019> <16:04:54>  >>>> GENPT
 <May18-2019> <16:04:54>  Block Length= 127
 <May18-2019> <16:04:54>  >>>> PTBAS
 <May18-2019> <16:04:56>  >>>> CYCLE
 <May18-2019> <16:04:57>              |Error|         MaxErr       Wt(A-DIIS)
 <May18-2019> <16:04:57>      1      0.06719933      0.03217044
 <May18-2019> <16:04:59>      2      0.01375902      0.00211136    100.0
 <May18-2019> <16:05:00>      3      0.00436556      0.00049213    100.0
 <May18-2019> <16:05:02>      4      0.00288730      0.00035133      0.0
 <May18-2019> <16:05:03>      5      0.00121002      0.00025867      0.0
 <May18-2019> <16:05:05>      6      0.00018251      0.00002226      0.0
 <May18-2019> <16:05:06>      7      0.00003224      0.00000550      0.0
 <May18-2019> <16:05:08>      8      0.00000483      0.00000046      0.0
 <May18-2019> <16:05:08>  SCF converged
 <May18-2019> <16:05:09>      9      0.00000105      0.00000011      0.0
 <May18-2019> <16:05:09>  >>>> TOTEN
 <May18-2019> <16:05:12>  >>>> POPAN
 <May18-2019> <16:05:12>  >>>> DEBYE
 <May18-2019> <16:05:12>  >>>> ENGRAD
 <May18-2019> <16:05:19>  current energy                               -1.99779596 Hartree
 <May18-2019> <16:05:19>  energy change                      -0.00043722     0.00010000    F
 <May18-2019> <16:05:19>  constrained gradient max            0.00132186     0.00010000    F
 <May18-2019> <16:05:19>  constrained gradient rms            0.00062135     0.00006667    F
 <May18-2019> <16:05:19>  gradient max                        0.00132186
 <May18-2019> <16:05:19>  gradient rms                        0.00062135
 <May18-2019> <16:05:19>  cart. step max                      0.00283122     0.01000000    T
 <May18-2019> <16:05:19>  cart. step rms                      0.00148932     0.00666667    T
  Coordinates in Geometry Cycle 8
    Atom         X           Y           Z   (Angstrom)
    1.In        0.000000    0.000000    0.000000
    2.C         0.000000    2.490161    0.000000
    3.O         0.000000    3.612958    0.000000
    4.C         0.000000    0.000000    2.490161
    5.O         0.000000    0.000000    3.612958
    6.C         0.000000   -2.490161    0.000000
    7.O         0.000000   -3.612958    0.000000
    8.C         0.000000    0.000000   -2.490161
    9.O         0.000000    0.000000   -3.612958
   10.C         2.490161    0.000000    0.000000
   11.O         3.612958    0.000000    0.000000
   12.C        -2.490161    0.000000    0.000000
   13.O        -3.612958    0.000000    0.000000
 <May18-2019> <16:05:19>  >>>> CORORT
 <May18-2019> <16:05:19>  >>>> CLSMAT
 <May18-2019> <16:05:19>  >>>> ORTHON
 <May18-2019> <16:05:19>  >>>> GENPT
 <May18-2019> <16:05:19>  Block Length= 127
 <May18-2019> <16:05:20>  >>>> PTBAS
 <May18-2019> <16:05:21>  >>>> CYCLE
 <May18-2019> <16:05:23>              |Error|         MaxErr       Wt(A-DIIS)
 <May18-2019> <16:05:23>      1      0.01484975      0.00715581
 <May18-2019> <16:05:24>      2      0.00295546      0.00045419    100.0
 <May18-2019> <16:05:26>      3      0.00094021      0.00010568    100.0
 <May18-2019> <16:05:27>      4      0.00062176      0.00007552      0.0
 <May18-2019> <16:05:29>      5      0.00026251      0.00005607      0.0
 <May18-2019> <16:05:30>      6      0.00003774      0.00000469      0.0
 <May18-2019> <16:05:32>      7      0.00000722      0.00000118      0.0
 <May18-2019> <16:05:33>      8      0.00000112      0.00000011      0.0
 <May18-2019> <16:05:33>  SCF converged
 <May18-2019> <16:05:35>      9      0.00000021      0.00000002      0.0
 <May18-2019> <16:05:35>  >>>> TOTEN
 <May18-2019> <16:05:38>  >>>> POPAN
 <May18-2019> <16:05:38>  >>>> DEBYE
 <May18-2019> <16:05:38>  >>>> ENGRAD
 <May18-2019> <16:05:44>  current energy                               -1.99786461 Hartree
 <May18-2019> <16:05:44>  energy change                      -0.00006865     0.00010000    T
 <May18-2019> <16:05:44>  constrained gradient max            0.00001187     0.00010000    T
 <May18-2019> <16:05:44>  constrained gradient rms            0.00000519     0.00006667    T
 <May18-2019> <16:05:44>  gradient max                        0.00001187
 <May18-2019> <16:05:44>  gradient rms                        0.00000519
 <May18-2019> <16:05:44>  cart. step max                      0.00003256     0.01000000    T
 <May18-2019> <16:05:44>  cart. step rms                      0.00001736     0.00666667    T
 <May18-2019> <16:05:44>  GEOMETRY CONVERGED
 <May18-2019> <16:05:44>  Calculating Energy Terms for Final Geometry
  Coordinates in Geometry Cycle 8
    Atom         X           Y           Z   (Angstrom)
    1.In        0.000000    0.000000    0.000000
    2.C         0.000000    2.490161    0.000000
    3.O         0.000000    3.612958    0.000000
    4.C         0.000000    0.000000    2.490161
    5.O         0.000000    0.000000    3.612958
    6.C         0.000000   -2.490161    0.000000
    7.O         0.000000   -3.612958    0.000000
    8.C         0.000000    0.000000   -2.490161
    9.O         0.000000    0.000000   -3.612958
   10.C         2.490161    0.000000    0.000000
   11.O         3.612958    0.000000    0.000000
   12.C        -2.490161    0.000000    0.000000
   13.O        -3.612958    0.000000    0.000000
 <May18-2019> <16:05:44>  >>>> CORORT
 <May18-2019> <16:05:45>  >>>> CLSMAT
 <May18-2019> <16:05:45>  >>>> ORTHON
 <May18-2019> <16:05:45>  >>>> GENPT
 <May18-2019> <16:05:45>  Block Length= 127
 <May18-2019> <16:05:45>  >>>> PTBAS
 <May18-2019> <16:05:46>  >>>> CYCLE
 <May18-2019> <16:05:48>              |Error|         MaxErr       Wt(A-DIIS)
 <May18-2019> <16:05:48>      1      0.00000002      0.00000001
 <May18-2019> <16:05:49>      2      0.00000007      0.00000001    100.0
 <May18-2019> <16:05:50>  SCF converged
 <May18-2019> <16:05:51>      3      0.00000027      0.00000005    100.0
 <May18-2019> <16:05:52>  >>>> TOTEN
 <May18-2019> <16:05:57>  >>>> POPAN
 <May18-2019> <16:05:57>  >>>> DEBYE
 <May18-2019> <16:05:57>  >>>> AMETS
 <May18-2019> <16:05:57>  >>>> POPUL
 <May18-2019> <16:05:57>   Bond Energy          -1.99786461 a.u.
 <May18-2019> <16:05:57>   Bond Energy         -54.36466211 eV
 <May18-2019> <16:05:57>   Bond Energy       -1253.68       kcal/mol
 <May18-2019> <16:05:57>  >>>> ENHESS
 <May18-2019> <16:05:58>  === NUCLEUS:     1
 <May18-2019> <16:06:48>  === NUCLEUS:     2
 <May18-2019> <16:07:35>  === NUCLEUS:     8
 <May18-2019> <16:08:24>  >>>> CALC_HESS_PMAT
 <May18-2019> <16:08:37>  >>>> CALC_HESS_WMAT
 <May18-2019> <16:08:42>  NORMAL TERMINATION
 <May18-2019> <16:08:42>  END
