
Create B   file=TZ2P-B
XC
  GGA blyp
End
End Input

 *******************************************************************************
 *                                                                             *
 *  -------------------------------------                                      *
 *   Amsterdam Density Functional  (ADF)         2017                          *
 *  -------------------------------------                                      *
 *                                               r58813 2017-04-12             *
 *                                                                             *
 *                                                                             *
 *                              =================                              *
 *                              |               |                              *
 *                              |     A D F     |                              *
 *                              |               |                              *
 *                              =================                              *
 *                                                                             *
 *                                                                             *
 *   Online information and documentation:  https://www.scm.com/support/       *
 *   E-mail:  support@scm.com   info@scm.com                                   *
 *                                                                             *
 *   Scientific publications using ADF results must be properly referenced     *
 *   See the User Manuals (or the web site) for recommended citations          *
 *   The terms and conditions of the End User License Agreement apply to       *
 *   the use of ADF, https://www.scm.com/license-terms/                        *
 *                                                                             *
 **********************  x86_64_linux_intel / intelmpi  ************************
 
 Licensed to: VU/FEW (+ SARA) / ALGEMEEN / Amsterdam / THE NETHERLANDS
 SCM User ID: u7668
  
 ADF 2017  RunTime: May19-2019 11:15:58  Nodes: 1  Procs: 1

 Temporary files are created in /local/datastore0/tcst25/190754/kid_0.dwsnk6

 Boron (TZ2P)



 ===========================
 A T T A C H E D   F I L E S
 ===========================
  
 CREATE - Data File:    TZ2P-B
                        Boron (TZ2P)



 ===============================
 M O D E L   P A R A M E T E R S
 ===============================
  
 DENSITY FUNCTIONAL POTENTIAL (scf)
    LDA:                               Exchange only                           == Not Default ==
    Gradient Corrections:              Becke88 LYP                             == Not Default ==

 SPIN  (restricted / unrestr.)
    Molecule:                          Restricted                               

 OTHER ASPECTS
    Relativistic Corrections:          ---                                      

    Nuclear Charge Density Model:      Point Charge Nuclei                      
    Core Treatment:                    Frozen Orbital(s)                        

    Hyperfine or Zeeman Interaction:   ---                                      



 =====================================
 S Y M M E T R Y ,   E L E C T R O N S
 =====================================
  
 Symmetry: ATOM

 Irreducible Representations, including subspecies
 -------------------------------------------------
 S
 P:x  P:y  P:z
 D:z2  D:x2-y2  D:xy  D:xz  D:yz
 F:z3  F:z  F:xyz  F:z2x  F:z2y  F:x  F:y


 Configuration of Valence Electrons
 ==================================

          Occupation Numbers
          -------------------------------------------------
 S        2*2
 P        1
 D        0
 F        0
          -------------------------------------------------

 Total:   5

 Net Charge: 0 (Nuclei minus Electrons)

 Preset values for MO occupations will be applied through SCF cycle no. 1000000
 Thereafter, the program will assign electrons to MOs that are spatially
 similar to the occupied MOs in a "reference" cycle ("KeepOrbitals").
 The reference cycle is always the PREVIOUS cycle: it will evolve with
 the SCF procedure.



 ================================
 (Slater-type)  F U N C T I O N S  ***  (Basis and Fit)  ***
 ================================
  

 Atom Type    1  (B)
 ==============

 Valence Basis Sets:  10
 -----------------------
   1 S    6.500000
   1 S    4.080000
   2 S    2.800000
   2 S    1.700000
   2 S    1.040000
   2 P    2.600000
   2 P    1.260000
   2 P    0.680000
   3 D    2.000000
   4 F    3.000000


 BAS: List of all Elementary Cartesian Basis Functions
 =====================================================

 The numbering in the list below (to the right of the function characteristics) is referred
 to in print-outs of MO eigenvectors and Mulliken populations in the BAS representation
 (as contrasted to the SFO representation).

 Notes:
 1. The functions are characterized by a polynomial prefactor (powers of x,y,z and r) and
    an exponential decay factor alpha.
 2. Since the basis sets are specific for an atom TYPE, the individual functions occur on
    all atoms of that type.
 3. The word 'Core' in the left margin signals that it is a Core Function (CF) : not a
    degree of freedom in the valence set, but only used to ensure orthogonalization of
    the other valence basis functions on the frozen Core Orbitals.


 (power of) X  Y  Z  R     Alpha  on Atom
            ==========     =====     ==========

 B                                    1
                                  ---------------------------------------------------------------------------
            0  0  0  0     6.500      1
            0  0  0  0     4.080      2
            0  0  0  1     2.800      3
            0  0  0  1     1.700      4
            0  0  0  1     1.040      5
            1  0  0  0     2.600      6
            0  1  0  0     2.600      7
            0  0  1  0     2.600      8
            1  0  0  0     1.260      9
            0  1  0  0     1.260     10
            0  0  1  0     1.260     11
            1  0  0  0     0.680     12
            0  1  0  0     0.680     13
            0  0  1  0     0.680     14
            2  0  0  0     2.000     15
            1  1  0  0     2.000     16
            1  0  1  0     2.000     17
            0  2  0  0     2.000     18
            0  1  1  0     2.000     19
            0  0  2  0     2.000     20
            3  0  0  0     3.000     21
            2  1  0  0     3.000     22
            2  0  1  0     3.000     23
            1  2  0  0     3.000     24
            1  1  1  0     3.000     25
            1  0  2  0     3.000     26
            0  3  0  0     3.000     27
            0  2  1  0     3.000     28
            0  1  2  0     3.000     29
            0  0  3  0     3.000     30

 Total number of charge fitting functions (nprimf)        84
 Total number of Cartesian basis functions (naos)         30
 Total number of Cartesian core functions  (ncos)          0



 BAS: List of all Elementary Cartesian Basis Functions
 =====================================================

 The numbering in the list below (to the right of the function characteristics) is referred
 to in print-outs of MO eigenvectors and Mulliken populations in the BAS representation
 (as contrasted to the SFO representation).

 Notes:
 1. The functions are characterized by a polynomial prefactor (powers of x,y,z and r) and
    an exponential decay factor alpha.
 2. Since the basis sets are specific for an atom TYPE, the individual functions occur on
    all atoms of that type.
 3. The word 'Core' in the left margin signals that it is a Core Function (CF) : not a
    degree of freedom in the valence set, but only used to ensure orthogonalization of
    the other valence basis functions on the frozen Core Orbitals.


 (power of) X  Y  Z  R     Alpha  on Atom
            ==========     =====     ==========

 B                                    1
                                  ---------------------------------------------------------------------------
            0  0  0  0     6.500      1
            0  0  0  0     4.080      2
            0  0  0  1     2.800      3
            0  0  0  1     1.700      4
            0  0  0  1     1.040      5
            1  0  0  0     2.600      6
            0  1  0  0     2.600      7
            0  0  1  0     2.600      8
            1  0  0  0     1.260      9
            0  1  0  0     1.260     10
            0  0  1  0     1.260     11
            1  0  0  0     0.680     12
            0  1  0  0     0.680     13
            0  0  1  0     0.680     14
            2  0  0  0     2.000     15
            1  1  0  0     2.000     16
            1  0  1  0     2.000     17
            0  2  0  0     2.000     18
            0  1  1  0     2.000     19
            0  0  2  0     2.000     20
            3  0  0  0     3.000     21
            2  1  0  0     3.000     22
            2  0  1  0     3.000     23
            1  2  0  0     3.000     24
            1  1  1  0     3.000     25
            1  0  2  0     3.000     26
            0  3  0  0     3.000     27
            0  2  1  0     3.000     28
            0  1  2  0     3.000     29
            0  0  3  0     3.000     30
1
 ***************************************************************************************************



                                              ***********************
                                              *  T E C H N I C A L  *
                                              ***********************
  



 =============================================================
 P A R A L L E L I Z A T I O N  and  V E C T O R I Z A T I O N
 =============================================================
  
 Nr of parallel processes:                                1
 Maximum vector length in NumInt loops:                 128

 IO buffersize (Mb):                                     64.000000



 =====================
 S C F   U P D A T E S
 =====================
  
 Max. nr. of cycles:                               300
 Convergence criterion:                              0.0000000100
   secondary criterion:                              0.0000000100

 Mix parameter (when DIIS does not apply):           0.2000000000
 Special mix parameter for the first cycle:          1.0000000000
 Mixed ADIIS+DIIS will be used
    Max number of expansion vectors:                10
    Pure ADIIS when Max([F,P]) is above              0.1000000000
    Pure DIIS when Max([F,P]) is below               0.0010000000
 Automatic ElectronSmearing (in case of problematic SCF convergence) disabled



 =================
 P R E C I S I O N  ***  (General: NumInt, NeglectFunctionTails, ...)  ***
 =================
  

 NumInt:           Target precision:                12.0000000000
 -------           Initial precision:               10.0000000000
                   Min. precision (optimization):   10.0000000000

 Neglect Functions:          Basis functions:        0.1000000000E-13
 ------------------          Fit functions:          0.1000000000E-13



 ===========================
 L I N E A R   S C A L I N G
 ===========================
  

 Cut-off radii density fit:                        0.1000000000E-97
 Overlap cut-off criterion AO matrix elements:     0.1000000000E-97
 Cut-offs for Coulomb potential and fitted density:0.1000000000E-97
 Cut-off criterion for Coulomb multipole terms:    0.1000000000E-97
 Progressive Convergence parameter:                 0.000000000    
1
 ***************************************************************************************************



                                            ***************************
                                            *  C O M P U T A T I O N  *
                                            ***************************
  

 Number of elements of the density matrix on this node (used, total):       465       465



 ===========================================
 Numerical Integration : Fuzzy Cells (Becke)
 ===========================================
  
 Becke grid quality: VERYGOOD       
  
 Lebedev angular grid order:             min:  13 max:  41
 Nr. of radial points:                   min:  76 max:  76

 Total nr. of points:         76
 Nr. of blocks:                1
 Block length:                76
 Nr. of dummy points:          0


 Test of Precision of the Numerical Integration Grid
 ===================================================

 Integral of the Total Core Density:                   0.00000000000000



 ========================
 Density Fitting (zlmFit)
 ========================
  
 ZlmFit Fit Quality: VERYGOOD       
  
 Max L-expansion:                        min:   0 max:   0
 Nr. of radial interpolation points:     min: 160 max: 160



 =====
 S C F  ***  ScaSCF  ***
 =====
  

 CYCLE    1
 SCF Error: norm([F,P])=      0.000000000000, max([F,P])=      0.000000000000
 orbitals (Q,E):
 ---------------
 S :1...5            ( 2.00   -12.4973)  ( 2.00    -3.1204)  ( 0.00    -1.3604)  ( 0.00    -0.2943)
                     ( 0.00    21.5464)
 P :1...3            ( 1.00    -3.1235)  ( 0.00    -1.3596)  ( 0.00    -0.7394)
 D :1...1            ( 0.00    -1.3333)
 F :1...1            ( 0.00     0.7500)

 CYCLE    2
  SDIIS (wt  0.000):  1.0000 -0.0000
 A-DIIS (wt  1.000):  0.0000  1.0000
  DIIS coefficients:  0.0000  1.0000
 SCF Error: norm([F,P])=      3.201330977607, max([F,P])=      2.031081303225
 orbitals (Q,E):
 ---------------
 S :1...3            ( 2.00    -5.1485)  ( 2.00    -0.0523)  ( 0.00     0.4686)
 P :1...2            ( 1.00     0.0666)  ( 0.00     0.4019)
 D :1...1            ( 0.00     1.4190)
 F :1...1            ( 0.00     3.7944)

 CYCLE    3
  SDIIS (wt  0.000):  0.2042  0.7958
 A-DIIS (wt  1.000):  0.0000  1.0000
  DIIS coefficients:  0.0000  1.0000
 SCF Error: norm([F,P])=      1.059647529898, max([F,P])=      0.903801365934
 orbitals (Q,E):
 ---------------
 S :1...3            ( 2.00    -7.3819)  ( 2.00    -0.6247)  ( 0.00     0.0523)
 P :1...2            ( 1.00    -0.4098)  ( 0.00     0.0156)
 D :1...1            ( 0.00     0.7591)
 F :1...1            ( 0.00     3.0307)

 CYCLE    4
  SDIIS (wt  0.000): -0.0657  0.2250  0.8407
 A-DIIS (wt  1.000):  0.0000  0.0783  0.9217
  DIIS coefficients:  0.0000  0.0783  0.9217
 SCF Error: norm([F,P])=      0.493931505683, max([F,P])=      0.425225417034
 orbitals (Q,E):
 ---------------
 S :1...3            ( 2.00    -6.3769)  ( 2.00    -0.2569)  ( 0.00     0.2543)
 P :1...2            ( 1.00    -0.0589)  ( 0.00     0.1767)
 D :1...1            ( 0.00     1.1356)
 F :1...1            ( 0.00     3.4562)

 CYCLE    5
  SDIIS (wt  0.000): -0.0197 -0.0259  0.3434  0.7023
 A-DIIS (wt  1.000):  0.0000  0.0000  0.0563  0.9437
  DIIS coefficients:  0.0000  0.0000  0.0563  0.9437
 SCF Error: norm([F,P])=      0.206029166069, max([F,P])=      0.185718658653
 orbitals (Q,E):
 ---------------
 S :1...3            ( 2.00    -6.8031)  ( 2.00    -0.4013)  ( 0.00     0.1657)
 P :1...2            ( 1.00    -0.1851)  ( 0.00     0.0945)
 D :1...1            ( 0.00     0.9783)
 F :1...1            ( 0.00     3.2760)

 CYCLE    6
  SDIIS (wt  0.040):  0.0020 -0.0191 -0.0724  0.3380  0.7516
 A-DIIS (wt  0.960):  0.0000  0.0000  0.0000  0.1279  0.8721
  DIIS coefficients:  0.0001 -0.0008 -0.0029  0.1364  0.8673
 SCF Error: norm([F,P])=      0.108666236307, max([F,P])=      0.095999235340
 orbitals (Q,E):
 ---------------
 S :1...3            ( 2.00    -6.5936)  ( 2.00    -0.3211)  ( 0.00     0.2123)
 P :1...2            ( 1.00    -0.1117)  ( 0.00     0.1342)
 D :1...1            ( 0.00     1.0635)
 F :1...1            ( 0.00     3.3726)

 CYCLE    7
  SDIIS (wt  0.623):  0.0001  0.0010 -0.0101 -0.0760  0.2420  0.8431
 A-DIIS (wt  0.377):  0.0000  0.0000  0.0000  0.0000  0.0000  1.0000
  DIIS coefficients:  0.0000  0.0006 -0.0063 -0.0474  0.1508  0.9022
 SCF Error: norm([F,P])=      0.042990228412, max([F,P])=      0.038286426173
 orbitals (Q,E):
 ---------------
 S :1...3            ( 2.00    -6.6663)  ( 2.00    -0.3474)  ( 0.00     0.1965)
 P :1...2            ( 1.00    -0.1351)  ( 0.00     0.1199)
 D :1...1            ( 0.00     1.0351)
 F :1...1            ( 0.00     3.3402)

 CYCLE    8
  SDIIS (wt  0.913): -0.0000 -0.0002  0.0019  0.0064 -0.0593  0.0854  0.9659
 A-DIIS (wt  0.087):  0.0000  0.0000  0.0000  0.0000  0.0000  0.0000  1.0000
  DIIS coefficients: -0.0000 -0.0001  0.0017  0.0058 -0.0542  0.0780  0.9688
 SCF Error: norm([F,P])=      0.010787888157, max([F,P])=      0.009564971828
 orbitals (Q,E):
 ---------------
 S :1...3            ( 2.00    -6.6507)  ( 2.00    -0.3415)  ( 0.00     0.2000)
 P :1...2            ( 1.00    -0.1298)  ( 0.00     0.1229)
 D :1...1            ( 0.00     1.0414)
 F :1...1            ( 0.00     3.3473)

 CYCLE    9
  SDIIS (wt  1.000):  0.0000 -0.0000 -0.0001  0.0003  0.0011 -0.0072  0.0264  0.9795
  DIIS coefficients:  0.0000 -0.0000 -0.0001  0.0003  0.0011 -0.0072  0.0264  0.9795
 SCF Error: norm([F,P])=      0.000636740363, max([F,P])=      0.000564218321
 orbitals (Q,E):
 ---------------
 S :1...3            ( 2.00    -6.6516)  ( 2.00    -0.3418)  ( 0.00     0.1998)
 P :1...2            ( 1.00    -0.1301)  ( 0.00     0.1227)
 D :1...1            ( 0.00     1.0410)
 F :1...1            ( 0.00     3.3469)

 CYCLE   10
  SDIIS (wt  1.000):  0.0000 -0.0000 -0.0000  0.0000 -0.0001 -0.0014 -0.0132  1.0146
  DIIS coefficients:  0.0000 -0.0000 -0.0000  0.0000 -0.0001 -0.0014 -0.0132  1.0146
 SCF Error: norm([F,P])=      0.000000069414, max([F,P])=      0.000000045677
 orbitals (Q,E):
 ---------------
 S :1...3            ( 2.00    -6.6516)  ( 2.00    -0.3418)  ( 0.00     0.1998)
 P :1...2            ( 1.00    -0.1301)  ( 0.00     0.1227)
 D :1...1            ( 0.00     1.0410)
 F :1...1            ( 0.00     3.3469)

 CYCLE   11
  SDIIS (wt  1.000):  0.0000  0.0001 -0.0087  1.0086
  DIIS coefficients:  0.0000  0.0001 -0.0087  1.0086
 SCF Error: norm([F,P])=      0.000000001536, max([F,P])=      0.000000001320
 orbitals (Q,E):
 ---------------
 S :1...3            ( 2.00    -6.6516)  ( 2.00    -0.3418)  ( 0.00     0.1998)
 P :1...2            ( 1.00    -0.1301)  ( 0.00     0.1227)
 D :1...1            ( 0.00     1.0410)
 F :1...1            ( 0.00     3.3469)

 SCF CONVERGED

 CYCLE   12
1
 ***************************************************************************************************



                                                *******************
                                                *  R E S U L T S  *
                                                *******************
  
 *** Setting up for NEW gradients in Focky
 *** Using FIT density in Focky

 Orbital Energies, per Irrep and Spin:
 ======================================
                        Occup              E (au)              E (eV)       Diff (eV) with prev. cycle
                        -----      --------------------        ------       --------------------------
 S
               1        2.000     -0.66515687214051E+01      -180.998              -1.01E-09
               2        2.000     -0.34181662617275E+00        -9.301              -3.46E-10
               3        0.000      0.19978908653882E+00         5.437
               4        0.000      0.25678398584364E+01        69.874
               5        0.000      0.26802831021785E+02       729.342
 P
               1        1.000     -0.13007918804391E+00        -3.540              -3.34E-10
               2        0.000      0.12274275416038E+00         3.340
               3        0.000      0.16610041333254E+01        45.198
 D
               1        0.000      0.10410256852691E+01        28.328
 F
               1        0.000      0.33469463509924E+01        91.075


 Partially Occupied:
               1 P                -0.13007918804391E+00
  
 HOMO :        2 S                -0.34181662617275E+00
 LUMO :        2 P                 0.12274275416038E+00
  


 Orbital Energies, all Irreps
 ========================================

 Irrep        no.  (spin)   Occup              E (au)                E (eV)
 ---------------------------------------------------------------------------
 S             1             2.00       -0.66515687214051E+01      -180.9984
 S             2             2.00       -0.34181662617275E+00        -9.3013
 P             1             1.00       -0.13007918804391E+00        -3.5396
 P             2             0.00        0.12274275416038E+00         3.3400
 S             3             0.00        0.19978908653882E+00         5.4365
 D             1             0.00        0.10410256852691E+01        28.3278
 P             3             0.00        0.16610041333254E+01        45.1982
 S             4             0.00        0.25678398584364E+01        69.8745
 F             1             0.00        0.33469463509924E+01        91.0750
 S             5             0.00        0.26802831021785E+02       729.3421


 All Electron Calculation, thus no Orbital Energies of the Core Orbitals are calculated



 =======================================
 M U L L I K E N   P O P U L A T I O N S
 =======================================
  
 The survey below gives for each atom:
 a) the total charge (Z minus electrons)
 b) the net spin polarization (nr of electrons spin-A minus spin-B)
 c) for each spin the atomic electron valence density (integrated) per L-value.

 Atom              Charge    Spin density          S         P         D         F
 ----              ------    ------------       ------    ------    ------    ------
 1 B               0.0000                       4.0000    1.0000    0.0000    0.0000

 Populations of individual BAS functions
 ----------------------------------------
 1 B            0.4768  1.5152 -0.1012  1.1788  0.9304  0.0321  0.0321  0.0321  0.1894  0.1894
                0.1894  0.1119  0.1119  0.1119  0.0000  0.0000  0.0000  0.0000  0.0000  0.0000
                0.0000  0.0000  0.0000  0.0000  0.0000  0.0000  0.0000  0.0000  0.0000  0.0000

 Gross Charges per Atom (Z minus electrons)
 ==========================================
             0.0000
 Net Total:  0.00000000



 =======================================================================
 Electrostatic potential at the Nuclei due to electrons and other nuclei
 =======================================================================
  
         Atom                  Potential
         ----                  ---------
     1)   B                  11.38333432
 
 
 ========================
 No memory problems found
 ========================
 
 Maximum number of active allocate calls:         447
 
 *******************************************************************************

                             A D F   E X I T
 NORMAL TERMINATION



 =================
 Timing Statistics
 =================
  
 Total Used :                     CPU=        0.70      System=        0.04     Elapsed=        0.74

 Calls  Section                     ( Mean, Percentage )
 ---------------------------------------------------------------------------------------------------
     3  ><      ................      0.00    0.14             0.00    0.00             0.00    0.11
     1  INIT    ................      0.01    1.71             0.02   55.55             0.03    4.68
     1  GEOMET  ................      0.01    1.28             0.00   11.11             0.01    1.76
     1  INPUTA  ................      0.00    0.43             0.00    0.00             0.00    0.41
     1  MAINSY  ................      0.01    1.14             0.00    0.00             0.01    1.07
     1  SYMFIT  ................      0.00    0.14             0.00    0.00             0.00    0.16
     1  CORORT  ................      0.00    0.00             0.00    0.00             0.00    0.06
     1  SYMORB  ................      0.00    0.29             0.00    0.00             0.00    0.22
     1  CLSMAT  ................      0.01    1.14             0.00    2.78             0.01    1.23
     1  ORTHON  ................      0.00    0.43             0.00    0.00             0.00    0.39
     1  GENPT   ................      0.02    3.00             0.00    0.00             0.02    2.86
     1  PTBAS   ................      0.01    0.86             0.00    0.00             0.01    0.84
    12  FOCKY   ................      0.04   72.75             0.00   13.89             0.04   69.78
    12  FOCKTR  ................      0.00    2.71             0.00    0.00             0.00    2.27
    12  SDIIS   ................      0.00    4.56             0.00    0.00             0.00    4.42
     1  COREPS  ................      0.03    4.71             0.00    0.00             0.03    4.47
     1  POPAN   ................      0.01    0.86             0.00    8.33             0.01    1.24
     1  DEBYE   ................      0.00    0.14             0.00    0.00             0.00    0.12
     1  EXIT PROCEDURE .........      0.03    3.71             0.00    8.33             0.03    3.91


 Currently Open Files (EXIT00)
 ====================

 Unit    Access Format  Status   Type       Ident (file)
 -------------------------------------------------------
   3      SEQ    FORM   TRANSP  NORMAL      LOGFILE
                                          ( logfile )


 Buffered I/O statistics
 =======================
 Memory available:                     67108864
 Number of records fitting in memory:     16131
 Input :   0.1% of                        26710  *4k bytes
 Output:  13.8% of                         1359  *4k bytes
 Records from serial files evicted:           0
                    others evicted:           0
 Hash table lookups:      68982 with          0 conflicts (  0.00%)

 ***************************************************************************************************
 (LOGFILE)
 <May19-2019> <11:15:58>  ADF 2017  RunTime: May19-2019 11:15:58  Nodes: 1  Procs: 1
 <May19-2019> <11:15:58>  Boron (TZ2P)
 <May19-2019> <11:15:58>  RunType   : CREATE
 <May19-2019> <11:15:58>  Net Charge: 0 (Nuclei minus Electrons)
 <May19-2019> <11:15:58>  Symmetry  : ATOM
  Coordinates
    Atom         X           Y           Z   (Angstrom)
    1.B         0.000000    0.000000    0.000000
 <May19-2019> <11:15:58>  >>>> CORORT
 <May19-2019> <11:15:58>  >>>> CLSMAT
 <May19-2019> <11:15:58>  >>>> ORTHON
 <May19-2019> <11:15:58>  >>>> GENPT
 <May19-2019> <11:15:58>  Block Length=  76
 <May19-2019> <11:15:58>  >>>> PTBAS
 <May19-2019> <11:15:58>  >>>> CYCLE
 <May19-2019> <11:15:59>              |Error|         MaxErr       Wt(A-DIIS)
 <May19-2019> <11:15:59>      1      0.00000000      0.00000000
 <May19-2019> <11:15:59>      2      3.20133098      2.03108130    100.0
 <May19-2019> <11:15:59>      3      1.05964753      0.90380137    100.0
 <May19-2019> <11:15:59>      4      0.49393151      0.42522542    100.0
 <May19-2019> <11:15:59>      5      0.20602917      0.18571866    100.0
 <May19-2019> <11:15:59>      6      0.10866624      0.09599924     96.0
 <May19-2019> <11:15:59>      7      0.04299023      0.03828643     37.7
 <May19-2019> <11:15:59>      8      0.01078789      0.00956497      8.7
 <May19-2019> <11:15:59>      9      0.00063674      0.00056422      0.0
 <May19-2019> <11:15:59>     10      0.00000007      0.00000005      0.0
 <May19-2019> <11:15:59>     11      0.00000000      0.00000000      0.0
 <May19-2019> <11:15:59>  SCF converged
 <May19-2019> <11:15:59>     12      0.00000000      0.00000000      0.0
 <May19-2019> <11:15:59>  >>>> POPAN
 <May19-2019> <11:15:59>  >>>> DEBYE
 <May19-2019> <11:15:59>  NORMAL TERMINATION
 <May19-2019> <11:15:59>  END

Create O   file=TZ2P-O
XC
  GGA blyp
End
End Input

 *******************************************************************************
 *                                                                             *
 *  -------------------------------------                                      *
 *   Amsterdam Density Functional  (ADF)         2017                          *
 *  -------------------------------------                                      *
 *                                               r58813 2017-04-12             *
 *                                                                             *
 *                                                                             *
 *                              =================                              *
 *                              |               |                              *
 *                              |     A D F     |                              *
 *                              |               |                              *
 *                              =================                              *
 *                                                                             *
 *                                                                             *
 *   Online information and documentation:  https://www.scm.com/support/       *
 *   E-mail:  support@scm.com   info@scm.com                                   *
 *                                                                             *
 *   Scientific publications using ADF results must be properly referenced     *
 *   See the User Manuals (or the web site) for recommended citations          *
 *   The terms and conditions of the End User License Agreement apply to       *
 *   the use of ADF, https://www.scm.com/license-terms/                        *
 *                                                                             *
 **********************  x86_64_linux_intel / intelmpi  ************************
 
 Licensed to: VU/FEW (+ SARA) / ALGEMEEN / Amsterdam / THE NETHERLANDS
 SCM User ID: u7668
  
 ADF 2017  RunTime: May19-2019 11:15:59  Nodes: 1  Procs: 1

 Temporary files are created in /local/datastore0/tcst25/190754/kid_0.8VMuqT

 Oxygen (TZ2P)



 ===========================
 A T T A C H E D   F I L E S
 ===========================
  
 CREATE - Data File:    TZ2P-O
                        Oxygen (TZ2P)



 ===============================
 M O D E L   P A R A M E T E R S
 ===============================
  
 DENSITY FUNCTIONAL POTENTIAL (scf)
    LDA:                               Exchange only                           == Not Default ==
    Gradient Corrections:              Becke88 LYP                             == Not Default ==

 SPIN  (restricted / unrestr.)
    Molecule:                          Restricted                               

 OTHER ASPECTS
    Relativistic Corrections:          ---                                      

    Nuclear Charge Density Model:      Point Charge Nuclei                      
    Core Treatment:                    Frozen Orbital(s)                        

    Hyperfine or Zeeman Interaction:   ---                                      



 =====================================
 S Y M M E T R Y ,   E L E C T R O N S
 =====================================
  
 Symmetry: ATOM

 Irreducible Representations, including subspecies
 -------------------------------------------------
 S
 P:x  P:y  P:z
 D:z2  D:x2-y2  D:xy  D:xz  D:yz
 F:z3  F:z  F:xyz  F:z2x  F:z2y  F:x  F:y


 Configuration of Valence Electrons
 ==================================

          Occupation Numbers
          -------------------------------------------------
 S        2*2
 P        4
 D        0
 F        0
          -------------------------------------------------

 Total:   8

 Net Charge: 0 (Nuclei minus Electrons)

 Preset values for MO occupations will be applied through SCF cycle no. 1000000
 Thereafter, the program will assign electrons to MOs that are spatially
 similar to the occupied MOs in a "reference" cycle ("KeepOrbitals").
 The reference cycle is always the PREVIOUS cycle: it will evolve with
 the SCF procedure.



 ================================
 (Slater-type)  F U N C T I O N S  ***  (Basis and Fit)  ***
 ================================
  

 Atom Type    1  (O)
 ==============

 Valence Basis Sets:  10
 -----------------------
   1 S    9.800000
   1 S    6.800000
   2 S    7.580000
   2 S    2.880000
   2 S    1.720000
   2 P    4.080000
   2 P    2.080000
   2 P    1.120000
   3 D    2.000000
   4 F    3.000000


 BAS: List of all Elementary Cartesian Basis Functions
 =====================================================

 The numbering in the list below (to the right of the function characteristics) is referred
 to in print-outs of MO eigenvectors and Mulliken populations in the BAS representation
 (as contrasted to the SFO representation).

 Notes:
 1. The functions are characterized by a polynomial prefactor (powers of x,y,z and r) and
    an exponential decay factor alpha.
 2. Since the basis sets are specific for an atom TYPE, the individual functions occur on
    all atoms of that type.
 3. The word 'Core' in the left margin signals that it is a Core Function (CF) : not a
    degree of freedom in the valence set, but only used to ensure orthogonalization of
    the other valence basis functions on the frozen Core Orbitals.


 (power of) X  Y  Z  R     Alpha  on Atom
            ==========     =====     ==========

 O                                    1
                                  ---------------------------------------------------------------------------
            0  0  0  0     9.800      1
            0  0  0  0     6.800      2
            0  0  0  1     7.580      3
            0  0  0  1     2.880      4
            0  0  0  1     1.720      5
            1  0  0  0     4.080      6
            0  1  0  0     4.080      7
            0  0  1  0     4.080      8
            1  0  0  0     2.080      9
            0  1  0  0     2.080     10
            0  0  1  0     2.080     11
            1  0  0  0     1.120     12
            0  1  0  0     1.120     13
            0  0  1  0     1.120     14
            2  0  0  0     2.000     15
            1  1  0  0     2.000     16
            1  0  1  0     2.000     17
            0  2  0  0     2.000     18
            0  1  1  0     2.000     19
            0  0  2  0     2.000     20
            3  0  0  0     3.000     21
            2  1  0  0     3.000     22
            2  0  1  0     3.000     23
            1  2  0  0     3.000     24
            1  1  1  0     3.000     25
            1  0  2  0     3.000     26
            0  3  0  0     3.000     27
            0  2  1  0     3.000     28
            0  1  2  0     3.000     29
            0  0  3  0     3.000     30

 Total number of charge fitting functions (nprimf)        84
 Total number of Cartesian basis functions (naos)         30
 Total number of Cartesian core functions  (ncos)          0



 BAS: List of all Elementary Cartesian Basis Functions
 =====================================================

 The numbering in the list below (to the right of the function characteristics) is referred
 to in print-outs of MO eigenvectors and Mulliken populations in the BAS representation
 (as contrasted to the SFO representation).

 Notes:
 1. The functions are characterized by a polynomial prefactor (powers of x,y,z and r) and
    an exponential decay factor alpha.
 2. Since the basis sets are specific for an atom TYPE, the individual functions occur on
    all atoms of that type.
 3. The word 'Core' in the left margin signals that it is a Core Function (CF) : not a
    degree of freedom in the valence set, but only used to ensure orthogonalization of
    the other valence basis functions on the frozen Core Orbitals.


 (power of) X  Y  Z  R     Alpha  on Atom
            ==========     =====     ==========

 O                                    1
                                  ---------------------------------------------------------------------------
            0  0  0  0     9.800      1
            0  0  0  0     6.800      2
            0  0  0  1     7.580      3
            0  0  0  1     2.880      4
            0  0  0  1     1.720      5
            1  0  0  0     4.080      6
            0  1  0  0     4.080      7
            0  0  1  0     4.080      8
            1  0  0  0     2.080      9
            0  1  0  0     2.080     10
            0  0  1  0     2.080     11
            1  0  0  0     1.120     12
            0  1  0  0     1.120     13
            0  0  1  0     1.120     14
            2  0  0  0     2.000     15
            1  1  0  0     2.000     16
            1  0  1  0     2.000     17
            0  2  0  0     2.000     18
            0  1  1  0     2.000     19
            0  0  2  0     2.000     20
            3  0  0  0     3.000     21
            2  1  0  0     3.000     22
            2  0  1  0     3.000     23
            1  2  0  0     3.000     24
            1  1  1  0     3.000     25
            1  0  2  0     3.000     26
            0  3  0  0     3.000     27
            0  2  1  0     3.000     28
            0  1  2  0     3.000     29
            0  0  3  0     3.000     30
1
 ***************************************************************************************************



                                              ***********************
                                              *  T E C H N I C A L  *
                                              ***********************
  



 =============================================================
 P A R A L L E L I Z A T I O N  and  V E C T O R I Z A T I O N
 =============================================================
  
 Nr of parallel processes:                                1
 Maximum vector length in NumInt loops:                 128

 IO buffersize (Mb):                                     64.000000



 =====================
 S C F   U P D A T E S
 =====================
  
 Max. nr. of cycles:                               300
 Convergence criterion:                              0.0000000100
   secondary criterion:                              0.0000000100

 Mix parameter (when DIIS does not apply):           0.2000000000
 Special mix parameter for the first cycle:          1.0000000000
 Mixed ADIIS+DIIS will be used
    Max number of expansion vectors:                10
    Pure ADIIS when Max([F,P]) is above              0.1000000000
    Pure DIIS when Max([F,P]) is below               0.0010000000
 Automatic ElectronSmearing (in case of problematic SCF convergence) disabled



 =================
 P R E C I S I O N  ***  (General: NumInt, NeglectFunctionTails, ...)  ***
 =================
  

 NumInt:           Target precision:                12.0000000000
 -------           Initial precision:               10.0000000000
                   Min. precision (optimization):   10.0000000000

 Neglect Functions:          Basis functions:        0.1000000000E-13
 ------------------          Fit functions:          0.1000000000E-13



 ===========================
 L I N E A R   S C A L I N G
 ===========================
  

 Cut-off radii density fit:                        0.1000000000E-97
 Overlap cut-off criterion AO matrix elements:     0.1000000000E-97
 Cut-offs for Coulomb potential and fitted density:0.1000000000E-97
 Cut-off criterion for Coulomb multipole terms:    0.1000000000E-97
 Progressive Convergence parameter:                 0.000000000    
1
 ***************************************************************************************************



                                            ***************************
                                            *  C O M P U T A T I O N  *
                                            ***************************
  

 Number of elements of the density matrix on this node (used, total):       465       465



 ===========================================
 Numerical Integration : Fuzzy Cells (Becke)
 ===========================================
  
 Becke grid quality: VERYGOOD       
  
 Lebedev angular grid order:             min:  13 max:  41
 Nr. of radial points:                   min:  68 max:  68

 Total nr. of points:         68
 Nr. of blocks:                1
 Block length:                68
 Nr. of dummy points:          0


 Test of Precision of the Numerical Integration Grid
 ===================================================

 Integral of the Total Core Density:                   0.00000000000000



 ========================
 Density Fitting (zlmFit)
 ========================
  
 ZlmFit Fit Quality: VERYGOOD       
  
 Max L-expansion:                        min:   0 max:   0
 Nr. of radial interpolation points:     min: 180 max: 180



 =====
 S C F  ***  ScaSCF  ***
 =====
  

 CYCLE    1
 SCF Error: norm([F,P])=      0.000000000000, max([F,P])=      0.000000000000
 orbitals (Q,E):
 ---------------
 S :1...5            ( 2.00   -31.9999)  ( 2.00    -7.9363)  ( 0.00    -3.4636)  ( 0.00     4.3191)
                     ( 0.00   110.5486)
 P :1...3            ( 4.00    -7.9991)  ( 0.00    -3.4855)  ( 0.00    -1.8903)
 D :1...1            ( 0.00    -3.3333)
 F :1...1            ( 0.00    -1.5000)

 CYCLE    2
  SDIIS (wt  0.000):  1.0000 -0.0000
 A-DIIS (wt  1.000):  0.0000  1.0000
  DIIS coefficients:  0.0000  1.0000
 SCF Error: norm([F,P])=      8.765745414074, max([F,P])=      5.518031311555
 orbitals (Q,E):
 ---------------
 S :1...3            ( 2.00   -14.5579)  ( 2.00    -0.0124)  ( 0.00     1.8192)
 P :1...2            ( 4.00     0.2183)  ( 0.00     1.2385)
 D :1...1            ( 0.00     1.5388)
 F :1...1            ( 0.00     3.9464)

 CYCLE    3
  SDIIS (wt  0.000):  0.2278  0.7722
 A-DIIS (wt  1.000):  0.3148  0.6852
  DIIS coefficients:  0.3148  0.6852
 SCF Error: norm([F,P])=      3.585499450444, max([F,P])=      2.499410108106
 orbitals (Q,E):
 ---------------
 S :1...3            ( 2.00   -19.8063)  ( 2.00    -1.5198)  ( 0.00     0.3996)
 P :1...2            ( 4.00    -0.9763)  ( 0.00     0.1325)
 D :1...1            ( 0.00     0.6540)
 F :1...1            ( 0.00     2.8642)

 CYCLE    4
  SDIIS (wt  0.000): -0.0456  0.1707  0.8749
 A-DIIS (wt  1.000):  0.0000  0.0000  1.0000
  DIIS coefficients:  0.0000  0.0000  1.0000
 SCF Error: norm([F,P])=      1.147919112368, max([F,P])=      0.583019620058
 orbitals (Q,E):
 ---------------
 S :1...3            ( 2.00   -18.0523)  ( 2.00    -0.5465)  ( 0.00     1.0349)
 P :1...2            ( 4.00    -0.0477)  ( 0.00     0.5307)
 D :1...1            ( 0.00     1.2443)
 F :1...1            ( 0.00     3.5731)

 CYCLE    5
  SDIIS (wt  0.000): -0.0195 -0.0760  0.5845  0.5110
 A-DIIS (wt  1.000):  0.0000  0.0000  0.6414  0.3586
  DIIS coefficients:  0.0000  0.0000  0.6414  0.3586
 SCF Error: norm([F,P])=      1.519585468023, max([F,P])=      0.840542006159
 orbitals (Q,E):
 ---------------
 S :1...3            ( 2.00   -18.8182)  ( 2.00    -0.8502)  ( 0.00     0.8091)
 P :1...2            ( 4.00    -0.3077)  ( 0.00     0.3582)
 D :1...1            ( 0.00     1.0753)
 F :1...1            ( 0.00     3.3669)

 CYCLE    6
  SDIIS (wt  0.000):  0.0038 -0.0006  0.0668 -0.0496  0.9795
 A-DIIS (wt  1.000):  0.0000  0.0000  0.0000  0.0000  1.0000
  DIIS coefficients:  0.0000  0.0000  0.0000  0.0000  1.0000
 SCF Error: norm([F,P])=      0.178828926625, max([F,P])=      0.104242033505
 orbitals (Q,E):
 ---------------
 S :1...3            ( 2.00   -19.0541)  ( 2.00    -0.9245)  ( 0.00     0.7610)
 P :1...2            ( 4.00    -0.3806)  ( 0.00     0.3267)
 D :1...1            ( 0.00     1.0451)
 F :1...1            ( 0.00     3.3284)

 CYCLE    7
  SDIIS (wt  0.000): -0.0003  0.0004 -0.0182  0.0130  0.4190  0.5861
 A-DIIS (wt  1.000):  0.0000  0.0000  0.0000  0.0000  0.5807  0.4193
  DIIS coefficients:  0.0000  0.0000  0.0000  0.0000  0.5807  0.4193
 SCF Error: norm([F,P])=      0.200125290981, max([F,P])=      0.113649127569
 orbitals (Q,E):
 ---------------
 S :1...3            ( 2.00   -18.9379)  ( 2.00    -0.8781)  ( 0.00     0.7909)
 P :1...2            ( 4.00    -0.3354)  ( 0.00     0.3452)
 D :1...1            ( 0.00     1.0687)
 F :1...1            ( 0.00     3.3572)

 CYCLE    8
  SDIIS (wt  0.910): -0.0000  0.0002  0.0044 -0.0011 -0.0192 -0.1454  1.1612
 A-DIIS (wt  0.090):  0.0000  0.0000  0.0000  0.0000  0.0000  0.0000  1.0000
  DIIS coefficients: -0.0000  0.0002  0.0040 -0.0010 -0.0175 -0.1323  1.1466
 SCF Error: norm([F,P])=      0.016951777154, max([F,P])=      0.009947196225
 orbitals (Q,E):
 ---------------
 S :1...3            ( 2.00   -18.9255)  ( 2.00    -0.8739)  ( 0.00     0.7936)
 P :1...2            ( 4.00    -0.3314)  ( 0.00     0.3469)
 D :1...1            ( 0.00     1.0707)
 F :1...1            ( 0.00     3.3597)

 CYCLE    9
  SDIIS (wt  1.000): -0.0000  0.0000  0.0000 -0.0001  0.0003  0.0067  0.0145  0.9786
  DIIS coefficients: -0.0000  0.0000  0.0000 -0.0001  0.0003  0.0067  0.0145  0.9786
 SCF Error: norm([F,P])=      0.001748429775, max([F,P])=      0.000984374869
 orbitals (Q,E):
 ---------------
 S :1...3            ( 2.00   -18.9266)  ( 2.00    -0.8743)  ( 0.00     0.7933)
 P :1...2            ( 4.00    -0.3318)  ( 0.00     0.3467)
 D :1...1            ( 0.00     1.0705)
 F :1...1            ( 0.00     3.3595)

 CYCLE   10
  SDIIS (wt  1.000): -0.0000 -0.0000 -0.0000 -0.0000  0.0000  0.0001 -0.0011 -0.0034  1.0043
  DIIS coefficients: -0.0000 -0.0000 -0.0000 -0.0000  0.0000  0.0001 -0.0011 -0.0034  1.0043
 SCF Error: norm([F,P])=      0.000001425696, max([F,P])=      0.000000713883
 orbitals (Q,E):
 ---------------
 S :1...3            ( 2.00   -18.9266)  ( 2.00    -0.8743)  ( 0.00     0.7933)
 P :1...2            ( 4.00    -0.3318)  ( 0.00     0.3467)
 D :1...1            ( 0.00     1.0705)
 F :1...1            ( 0.00     3.3595)

 CYCLE   11
  SDIIS (wt  1.000):  0.0000 -0.0000 -0.0000 -0.0001 -0.0046  1.0047
  DIIS coefficients:  0.0000 -0.0000 -0.0000 -0.0001 -0.0046  1.0047
 SCF Error: norm([F,P])=      0.000000048706, max([F,P])=      0.000000022971
 orbitals (Q,E):
 ---------------
 S :1...3            ( 2.00   -18.9266)  ( 2.00    -0.8743)  ( 0.00     0.7933)
 P :1...2            ( 4.00    -0.3318)  ( 0.00     0.3467)
 D :1...1            ( 0.00     1.0705)
 F :1...1            ( 0.00     3.3595)

 CYCLE   12
  SDIIS (wt  1.000):  0.0000  0.0003  0.0049  0.9947
  DIIS coefficients:  0.0000  0.0003  0.0049  0.9947
 SCF Error: norm([F,P])=      0.000000002392, max([F,P])=      0.000000001168
 orbitals (Q,E):
 ---------------
 S :1...3            ( 2.00   -18.9266)  ( 2.00    -0.8743)  ( 0.00     0.7933)
 P :1...2            ( 4.00    -0.3318)  ( 0.00     0.3467)
 D :1...1            ( 0.00     1.0705)
 F :1...1            ( 0.00     3.3595)

 SCF CONVERGED

 CYCLE   13
1
 ***************************************************************************************************



                                                *******************
                                                *  R E S U L T S  *
                                                *******************
  
 *** Setting up for NEW gradients in Focky
 *** Using FIT density in Focky

 Orbital Energies, per Irrep and Spin:
 ======================================
                        Occup              E (au)              E (eV)       Diff (eV) with prev. cycle
                        -----      --------------------        ------       --------------------------
 S
               1        2.000     -0.18926622910087E+02      -515.020               5.76E-10
               2        2.000     -0.87432318445324E+00       -23.792               3.90E-10
               3        0.000      0.79334608634537E+00        21.588
               4        0.000      0.13459763470969E+02       366.259
               5        0.000      0.12310776301329E+03      3349.933
 P
               1        4.000     -0.33177161342558E+00        -9.028               3.71E-10
               2        0.000      0.34673871865826E+00         9.435
               3        0.000      0.38246989192600E+01       104.075
 D
               1        0.000      0.10704889823391E+01        29.129
 F
               1        0.000      0.33594552407685E+01        91.415


 Partially Occupied:
               1 P                -0.33177161342558E+00
  
 HOMO :        2 S                -0.87432318445324E+00
 LUMO :        2 P                 0.34673871865826E+00
  


 Orbital Energies, all Irreps
 ========================================

 Irrep        no.  (spin)   Occup              E (au)                E (eV)
 ---------------------------------------------------------------------------
 S             1             2.00       -0.18926622910087E+02      -515.0196
 S             2             2.00       -0.87432318445324E+00       -23.7915
 P             1             4.00       -0.33177161342558E+00        -9.0280
 P             2             0.00        0.34673871865826E+00         9.4352
 S             3             0.00        0.79334608634537E+00        21.5880
 D             1             0.00        0.10704889823391E+01        29.1295
 F             1             0.00        0.33594552407685E+01        91.4154
 P             3             0.00        0.38246989192600E+01       104.0754
 S             4             0.00        0.13459763470969E+02       366.2588
 S             5             0.00        0.12310776301329E+03      3349.9327


 All Electron Calculation, thus no Orbital Energies of the Core Orbitals are calculated



 =======================================
 M U L L I K E N   P O P U L A T I O N S
 =======================================
  
 The survey below gives for each atom:
 a) the total charge (Z minus electrons)
 b) the net spin polarization (nr of electrons spin-A minus spin-B)
 c) for each spin the atomic electron valence density (integrated) per L-value.

 Atom              Charge    Spin density          S         P         D         F
 ----              ------    ------------       ------    ------    ------    ------
 1 O              -0.0000                       4.0000    4.0000    0.0000    0.0000

 Populations of individual BAS functions
 ----------------------------------------
 1 O            0.6447  1.3214  0.0008  1.1425  0.8905  0.2537  0.2537  0.2537  0.7364  0.7364
                0.7364  0.3432  0.3432  0.3432  0.0000  0.0000  0.0000  0.0000  0.0000  0.0000
                0.0000  0.0000  0.0000  0.0000  0.0000  0.0000  0.0000  0.0000  0.0000  0.0000

 Gross Charges per Atom (Z minus electrons)
 ==========================================
            -0.0000
 Net Total: -0.00000000



 =======================================================================
 Electrostatic potential at the Nuclei due to electrons and other nuclei
 =======================================================================
  
         Atom                  Potential
         ----                  ---------
     1)   O                  22.23872615
 
 
 ========================
 No memory problems found
 ========================
 
 Maximum number of active allocate calls:         447
 
 *******************************************************************************

                             A D F   E X I T
 NORMAL TERMINATION



 =================
 Timing Statistics
 =================
  
 Total Used :                     CPU=        0.79      System=        0.04     Elapsed=        0.83

 Calls  Section                     ( Mean, Percentage )
 ---------------------------------------------------------------------------------------------------
     3  ><      ................      0.00    0.13             0.00    0.00             0.00    0.09
     1  INIT    ................      0.01    1.65             0.02   51.28             0.03    4.22
     1  GEOMET  ................      0.01    1.40             0.00    5.13             0.01    1.57
     1  INPUTA  ................      0.00    0.25             0.00    2.56             0.00    0.37
     1  MAINSY  ................      0.01    1.02             0.00    0.00             0.01    0.96
     1  SYMFIT  ................      0.00    0.00             0.00    2.56             0.00    0.15
     1  CORORT  ................      0.00    0.13             0.00    0.00             0.00    0.05
     1  SYMORB  ................      0.00    0.13             0.00    0.00             0.00    0.19
     1  CLSMAT  ................      0.01    1.14             0.00    0.00             0.01    1.10
     1  ORTHON  ................      0.00    0.25             0.00    2.56             0.00    0.35
     1  GENPT   ................      0.02    2.54             0.00    2.56             0.02    2.54
     1  PTBAS   ................      0.00    0.63             0.00    2.56             0.01    0.74
    13  FOCKY   ................      0.05   74.87             0.00   17.95             0.05   72.12
    13  FOCKTR  ................      0.00    2.41             0.00    0.00             0.00    2.20
    13  SDIIS   ................      0.00    4.19             0.00    5.13             0.00    4.26
     1  COREPS  ................      0.04    4.70             0.00    0.00             0.04    4.38
     1  POPAN   ................      0.01    1.02             0.00    2.56             0.01    1.10
     1  DEBYE   ................      0.00    0.13             0.00    0.00             0.00    0.11
     1  EXIT PROCEDURE .........      0.03    3.43             0.00    5.13             0.03    3.48


 Currently Open Files (EXIT00)
 ====================

 Unit    Access Format  Status   Type       Ident (file)
 -------------------------------------------------------
   3      SEQ    FORM   TRANSP  NORMAL      LOGFILE
                                          ( logfile )


 Buffered I/O statistics
 =======================
 Memory available:                     67108864
 Number of records fitting in memory:     16131
 Input :   0.1% of                        27833  *4k bytes
 Output:  13.5% of                         1390  *4k bytes
 Records from serial files evicted:           0
                    others evicted:           0
 Hash table lookups:      71898 with          0 conflicts (  0.00%)

 ***************************************************************************************************
 (LOGFILE)
 <May19-2019> <11:15:58>  ADF 2017  RunTime: May19-2019 11:15:58  Nodes: 1  Procs: 1
 <May19-2019> <11:15:58>  Boron (TZ2P)
 <May19-2019> <11:15:58>  RunType   : CREATE
 <May19-2019> <11:15:58>  Net Charge: 0 (Nuclei minus Electrons)
 <May19-2019> <11:15:58>  Symmetry  : ATOM
  Coordinates
    Atom         X           Y           Z   (Angstrom)
    1.B         0.000000    0.000000    0.000000
 <May19-2019> <11:15:58>  >>>> CORORT
 <May19-2019> <11:15:58>  >>>> CLSMAT
 <May19-2019> <11:15:58>  >>>> ORTHON
 <May19-2019> <11:15:58>  >>>> GENPT
 <May19-2019> <11:15:58>  Block Length=  76
 <May19-2019> <11:15:58>  >>>> PTBAS
 <May19-2019> <11:15:58>  >>>> CYCLE
 <May19-2019> <11:15:59>              |Error|         MaxErr       Wt(A-DIIS)
 <May19-2019> <11:15:59>      1      0.00000000      0.00000000
 <May19-2019> <11:15:59>      2      3.20133098      2.03108130    100.0
 <May19-2019> <11:15:59>      3      1.05964753      0.90380137    100.0
 <May19-2019> <11:15:59>      4      0.49393151      0.42522542    100.0
 <May19-2019> <11:15:59>      5      0.20602917      0.18571866    100.0
 <May19-2019> <11:15:59>      6      0.10866624      0.09599924     96.0
 <May19-2019> <11:15:59>      7      0.04299023      0.03828643     37.7
 <May19-2019> <11:15:59>      8      0.01078789      0.00956497      8.7
 <May19-2019> <11:15:59>      9      0.00063674      0.00056422      0.0
 <May19-2019> <11:15:59>     10      0.00000007      0.00000005      0.0
 <May19-2019> <11:15:59>     11      0.00000000      0.00000000      0.0
 <May19-2019> <11:15:59>  SCF converged
 <May19-2019> <11:15:59>     12      0.00000000      0.00000000      0.0
 <May19-2019> <11:15:59>  >>>> POPAN
 <May19-2019> <11:15:59>  >>>> DEBYE
 <May19-2019> <11:15:59>  NORMAL TERMINATION
 <May19-2019> <11:15:59>  END
 <May19-2019> <11:15:59>  ADF 2017  RunTime: May19-2019 11:15:59  Nodes: 1  Procs: 1
 <May19-2019> <11:15:59>  Oxygen (TZ2P)
 <May19-2019> <11:15:59>  RunType   : CREATE
 <May19-2019> <11:15:59>  Net Charge: 0 (Nuclei minus Electrons)
 <May19-2019> <11:15:59>  Symmetry  : ATOM
  Coordinates
    Atom         X           Y           Z   (Angstrom)
    1.O         0.000000    0.000000    0.000000
 <May19-2019> <11:15:59>  >>>> CORORT
 <May19-2019> <11:15:59>  >>>> CLSMAT
 <May19-2019> <11:15:59>  >>>> ORTHON
 <May19-2019> <11:15:59>  >>>> GENPT
 <May19-2019> <11:15:59>  Block Length=  68
 <May19-2019> <11:15:59>  >>>> PTBAS
 <May19-2019> <11:15:59>  >>>> CYCLE
 <May19-2019> <11:15:59>              |Error|         MaxErr       Wt(A-DIIS)
 <May19-2019> <11:15:59>      1      0.00000000      0.00000000
 <May19-2019> <11:15:59>      2      8.76574541      5.51803131    100.0
 <May19-2019> <11:16:00>      3      3.58549945      2.49941011    100.0
 <May19-2019> <11:16:00>      4      1.14791911      0.58301962    100.0
 <May19-2019> <11:16:00>      5      1.51958547      0.84054201    100.0
 <May19-2019> <11:16:00>      6      0.17882893      0.10424203    100.0
 <May19-2019> <11:16:00>      7      0.20012529      0.11364913    100.0
 <May19-2019> <11:16:00>      8      0.01695178      0.00994720      9.0
 <May19-2019> <11:16:00>      9      0.00174843      0.00098437      0.0
 <May19-2019> <11:16:00>     10      0.00000143      0.00000071      0.0
 <May19-2019> <11:16:00>     11      0.00000005      0.00000002      0.0
 <May19-2019> <11:16:00>     12      0.00000000      0.00000000      0.0
 <May19-2019> <11:16:00>  SCF converged
 <May19-2019> <11:16:00>     13      0.00000000      0.00000000      0.0
 <May19-2019> <11:16:00>  >>>> POPAN
 <May19-2019> <11:16:00>  >>>> DEBYE
 <May19-2019> <11:16:00>  NORMAL TERMINATION
 <May19-2019> <11:16:00>  END

Create C   file=TZ2P-C
XC
  GGA blyp
End
End Input

 *******************************************************************************
 *                                                                             *
 *  -------------------------------------                                      *
 *   Amsterdam Density Functional  (ADF)         2017                          *
 *  -------------------------------------                                      *
 *                                               r58813 2017-04-12             *
 *                                                                             *
 *                                                                             *
 *                              =================                              *
 *                              |               |                              *
 *                              |     A D F     |                              *
 *                              |               |                              *
 *                              =================                              *
 *                                                                             *
 *                                                                             *
 *   Online information and documentation:  https://www.scm.com/support/       *
 *   E-mail:  support@scm.com   info@scm.com                                   *
 *                                                                             *
 *   Scientific publications using ADF results must be properly referenced     *
 *   See the User Manuals (or the web site) for recommended citations          *
 *   The terms and conditions of the End User License Agreement apply to       *
 *   the use of ADF, https://www.scm.com/license-terms/                        *
 *                                                                             *
 **********************  x86_64_linux_intel / intelmpi  ************************
 
 Licensed to: VU/FEW (+ SARA) / ALGEMEEN / Amsterdam / THE NETHERLANDS
 SCM User ID: u7668
  
 ADF 2017  RunTime: May19-2019 11:16:00  Nodes: 1  Procs: 1

 Temporary files are created in /local/datastore0/tcst25/190754/kid_0.FBX2TR

 Carbon (TZ2P)



 ===========================
 A T T A C H E D   F I L E S
 ===========================
  
 CREATE - Data File:    TZ2P-C
                        Carbon (TZ2P)



 ===============================
 M O D E L   P A R A M E T E R S
 ===============================
  
 DENSITY FUNCTIONAL POTENTIAL (scf)
    LDA:                               Exchange only                           == Not Default ==
    Gradient Corrections:              Becke88 LYP                             == Not Default ==

 SPIN  (restricted / unrestr.)
    Molecule:                          Restricted                               

 OTHER ASPECTS
    Relativistic Corrections:          ---                                      

    Nuclear Charge Density Model:      Point Charge Nuclei                      
    Core Treatment:                    Frozen Orbital(s)                        

    Hyperfine or Zeeman Interaction:   ---                                      



 =====================================
 S Y M M E T R Y ,   E L E C T R O N S
 =====================================
  
 Symmetry: ATOM

 Irreducible Representations, including subspecies
 -------------------------------------------------
 S
 P:x  P:y  P:z
 D:z2  D:x2-y2  D:xy  D:xz  D:yz
 F:z3  F:z  F:xyz  F:z2x  F:z2y  F:x  F:y


 Configuration of Valence Electrons
 ==================================

          Occupation Numbers
          -------------------------------------------------
 S        2*2
 P        2
 D        0
 F        0
          -------------------------------------------------

 Total:   6

 Net Charge: 0 (Nuclei minus Electrons)

 Preset values for MO occupations will be applied through SCF cycle no. 1000000
 Thereafter, the program will assign electrons to MOs that are spatially
 similar to the occupied MOs in a "reference" cycle ("KeepOrbitals").
 The reference cycle is always the PREVIOUS cycle: it will evolve with
 the SCF procedure.



 ================================
 (Slater-type)  F U N C T I O N S  ***  (Basis and Fit)  ***
 ================================
  

 Atom Type    1  (C)
 ==============

 Valence Basis Sets:  10
 -----------------------
   1 S    7.680000
   1 S    5.000000
   2 S    1.280000
   2 S    2.100000
   2 S    4.600000
   2 P    0.820000
   2 P    1.480000
   2 P    2.940000
   3 D    2.200000
   4 F    3.300000


 BAS: List of all Elementary Cartesian Basis Functions
 =====================================================

 The numbering in the list below (to the right of the function characteristics) is referred
 to in print-outs of MO eigenvectors and Mulliken populations in the BAS representation
 (as contrasted to the SFO representation).

 Notes:
 1. The functions are characterized by a polynomial prefactor (powers of x,y,z and r) and
    an exponential decay factor alpha.
 2. Since the basis sets are specific for an atom TYPE, the individual functions occur on
    all atoms of that type.
 3. The word 'Core' in the left margin signals that it is a Core Function (CF) : not a
    degree of freedom in the valence set, but only used to ensure orthogonalization of
    the other valence basis functions on the frozen Core Orbitals.


 (power of) X  Y  Z  R     Alpha  on Atom
            ==========     =====     ==========

 C                                    1
                                  ---------------------------------------------------------------------------
            0  0  0  0     7.680      1
            0  0  0  0     5.000      2
            0  0  0  1     1.280      3
            0  0  0  1     2.100      4
            0  0  0  1     4.600      5
            1  0  0  0     0.820      6
            0  1  0  0     0.820      7
            0  0  1  0     0.820      8
            1  0  0  0     1.480      9
            0  1  0  0     1.480     10
            0  0  1  0     1.480     11
            1  0  0  0     2.940     12
            0  1  0  0     2.940     13
            0  0  1  0     2.940     14
            2  0  0  0     2.200     15
            1  1  0  0     2.200     16
            1  0  1  0     2.200     17
            0  2  0  0     2.200     18
            0  1  1  0     2.200     19
            0  0  2  0     2.200     20
            3  0  0  0     3.300     21
            2  1  0  0     3.300     22
            2  0  1  0     3.300     23
            1  2  0  0     3.300     24
            1  1  1  0     3.300     25
            1  0  2  0     3.300     26
            0  3  0  0     3.300     27
            0  2  1  0     3.300     28
            0  1  2  0     3.300     29
            0  0  3  0     3.300     30

 Total number of charge fitting functions (nprimf)        84
 Total number of Cartesian basis functions (naos)         30
 Total number of Cartesian core functions  (ncos)          0



 BAS: List of all Elementary Cartesian Basis Functions
 =====================================================

 The numbering in the list below (to the right of the function characteristics) is referred
 to in print-outs of MO eigenvectors and Mulliken populations in the BAS representation
 (as contrasted to the SFO representation).

 Notes:
 1. The functions are characterized by a polynomial prefactor (powers of x,y,z and r) and
    an exponential decay factor alpha.
 2. Since the basis sets are specific for an atom TYPE, the individual functions occur on
    all atoms of that type.
 3. The word 'Core' in the left margin signals that it is a Core Function (CF) : not a
    degree of freedom in the valence set, but only used to ensure orthogonalization of
    the other valence basis functions on the frozen Core Orbitals.


 (power of) X  Y  Z  R     Alpha  on Atom
            ==========     =====     ==========

 C                                    1
                                  ---------------------------------------------------------------------------
            0  0  0  0     7.680      1
            0  0  0  0     5.000      2
            0  0  0  1     1.280      3
            0  0  0  1     2.100      4
            0  0  0  1     4.600      5
            1  0  0  0     0.820      6
            0  1  0  0     0.820      7
            0  0  1  0     0.820      8
            1  0  0  0     1.480      9
            0  1  0  0     1.480     10
            0  0  1  0     1.480     11
            1  0  0  0     2.940     12
            0  1  0  0     2.940     13
            0  0  1  0     2.940     14
            2  0  0  0     2.200     15
            1  1  0  0     2.200     16
            1  0  1  0     2.200     17
            0  2  0  0     2.200     18
            0  1  1  0     2.200     19
            0  0  2  0     2.200     20
            3  0  0  0     3.300     21
            2  1  0  0     3.300     22
            2  0  1  0     3.300     23
            1  2  0  0     3.300     24
            1  1  1  0     3.300     25
            1  0  2  0     3.300     26
            0  3  0  0     3.300     27
            0  2  1  0     3.300     28
            0  1  2  0     3.300     29
            0  0  3  0     3.300     30
1
 ***************************************************************************************************



                                              ***********************
                                              *  T E C H N I C A L  *
                                              ***********************
  



 =============================================================
 P A R A L L E L I Z A T I O N  and  V E C T O R I Z A T I O N
 =============================================================
  
 Nr of parallel processes:                                1
 Maximum vector length in NumInt loops:                 128

 IO buffersize (Mb):                                     64.000000



 =====================
 S C F   U P D A T E S
 =====================
  
 Max. nr. of cycles:                               300
 Convergence criterion:                              0.0000000100
   secondary criterion:                              0.0000000100

 Mix parameter (when DIIS does not apply):           0.2000000000
 Special mix parameter for the first cycle:          1.0000000000
 Mixed ADIIS+DIIS will be used
    Max number of expansion vectors:                10
    Pure ADIIS when Max([F,P]) is above              0.1000000000
    Pure DIIS when Max([F,P]) is below               0.0010000000
 Automatic ElectronSmearing (in case of problematic SCF convergence) disabled



 =================
 P R E C I S I O N  ***  (General: NumInt, NeglectFunctionTails, ...)  ***
 =================
  

 NumInt:           Target precision:                12.0000000000
 -------           Initial precision:               10.0000000000
                   Min. precision (optimization):   10.0000000000

 Neglect Functions:          Basis functions:        0.1000000000E-13
 ------------------          Fit functions:          0.1000000000E-13



 ===========================
 L I N E A R   S C A L I N G
 ===========================
  

 Cut-off radii density fit:                        0.1000000000E-97
 Overlap cut-off criterion AO matrix elements:     0.1000000000E-97
 Cut-offs for Coulomb potential and fitted density:0.1000000000E-97
 Cut-off criterion for Coulomb multipole terms:    0.1000000000E-97
 Progressive Convergence parameter:                 0.000000000    
1
 ***************************************************************************************************



                                            ***************************
                                            *  C O M P U T A T I O N  *
                                            ***************************
  

 Number of elements of the density matrix on this node (used, total):       465       465



 ===========================================
 Numerical Integration : Fuzzy Cells (Becke)
 ===========================================
  
 Becke grid quality: VERYGOOD       
  
 Lebedev angular grid order:             min:  13 max:  41
 Nr. of radial points:                   min:  72 max:  72

 Total nr. of points:         72
 Nr. of blocks:                1
 Block length:                72
 Nr. of dummy points:          0


 Test of Precision of the Numerical Integration Grid
 ===================================================

 Integral of the Total Core Density:                   0.00000000000000



 ========================
 Density Fitting (zlmFit)
 ========================
  
 ZlmFit Fit Quality: VERYGOOD       
  
 Max L-expansion:                        min:   0 max:   0
 Nr. of radial interpolation points:     min: 160 max: 160



 =====
 S C F  ***  ScaSCF  ***
 =====
  

 CYCLE    1
 SCF Error: norm([F,P])=      0.000000000000, max([F,P])=      0.000000000000
 orbitals (Q,E):
 ---------------
 S :1...5            ( 2.00   -17.9995)  ( 2.00    -4.4761)  ( 0.00    -1.9482)  ( 0.00     0.6812)
                     ( 0.00    42.8100)
 P :1...3            ( 2.00    -4.4994)  ( 0.00    -1.9807)  ( 0.00    -1.0849)
 D :1...1            ( 0.00    -1.9800)
 F :1...1            ( 0.00     0.4950)

 CYCLE    2
  SDIIS (wt  0.000):  1.0000 -0.0000
 A-DIIS (wt  1.000):  0.0000  1.0000
  DIIS coefficients:  0.0000  1.0000
 SCF Error: norm([F,P])=      4.480319744476, max([F,P])=      3.328841325837
 orbitals (Q,E):
 ---------------
 S :1...3            ( 2.00    -7.7917)  ( 2.00    -0.0500)  ( 0.00     0.8490)
 P :1...2            ( 2.00     0.1033)  ( 0.00     0.5895)
 D :1...1            ( 0.00     1.7552)
 F :1...1            ( 0.00     4.6366)

 CYCLE    3
  SDIIS (wt  0.000):  0.2185  0.7815
 A-DIIS (wt  1.000):  0.1233  0.8767
  DIIS coefficients:  0.1233  0.8767
 SCF Error: norm([F,P])=      1.636788894664, max([F,P])=      1.315295345514
 orbitals (Q,E):
 ---------------
 S :1...3            ( 2.00   -10.9862)  ( 2.00    -0.9428)  ( 0.00     0.1231)
 P :1...2            ( 2.00    -0.6386)  ( 0.00     0.0246)
 D :1...1            ( 0.00     0.8395)
 F :1...1            ( 0.00     3.5625)

 CYCLE    4
  SDIIS (wt  0.000): -0.0629  0.2184  0.8445
 A-DIIS (wt  1.000):  0.0000  0.0872  0.9128
  DIIS coefficients:  0.0000  0.0872  0.9128
 SCF Error: norm([F,P])=      0.722267649759, max([F,P])=      0.580815510644
 orbitals (Q,E):
 ---------------
 S :1...3            ( 2.00    -9.6419)  ( 2.00    -0.3647)  ( 0.00     0.4682)
 P :1...2            ( 2.00    -0.0765)  ( 0.00     0.2450)
 D :1...1            ( 0.00     1.3742)
 F :1...1            ( 0.00     4.1720)

 CYCLE    5
  SDIIS (wt  0.000): -0.0214 -0.0561  0.3847  0.6927
 A-DIIS (wt  1.000):  0.0000  0.0000  0.2646  0.7354
  DIIS coefficients:  0.0000  0.0000  0.2646  0.7354
 SCF Error: norm([F,P])=      0.412794757847, max([F,P])=      0.328642040749
 orbitals (Q,E):
 ---------------
 S :1...3            ( 2.00   -10.1968)  ( 2.00    -0.5643)  ( 0.00     0.3336)
 P :1...2            ( 2.00    -0.2533)  ( 0.00     0.1428)
 D :1...1            ( 0.00     1.1818)
 F :1...1            ( 0.00     3.9467)

 CYCLE    6
  SDIIS (wt  0.032):  0.0025 -0.0116 -0.0698  0.2077  0.8712
 A-DIIS (wt  0.968):  0.0000  0.0000  0.0000  0.0000  1.0000
  DIIS coefficients:  0.0001 -0.0004 -0.0022  0.0066  0.9959
 SCF Error: norm([F,P])=      0.126643163176, max([F,P])=      0.096847488733
 orbitals (Q,E):
 ---------------
 S :1...3            ( 2.00    -9.9458)  ( 2.00    -0.4545)  ( 0.00     0.4037)
 P :1...2            ( 2.00    -0.1511)  ( 0.00     0.1903)
 D :1...1            ( 0.00     1.2866)
 F :1...1            ( 0.00     4.0669)

 CYCLE    7
  SDIIS (wt  0.100): -0.0001  0.0030  0.0073 -0.1526  0.2846  0.8578
 A-DIIS (wt  0.900):  0.0000  0.0000  0.0000  0.0000  0.4446  0.5554
  DIIS coefficients: -0.0000  0.0003  0.0007 -0.0152  0.4286  0.5856
 SCF Error: norm([F,P])=      0.115568228223, max([F,P])=      0.090123764632
 orbitals (Q,E):
 ---------------
 S :1...3            ( 2.00   -10.0697)  ( 2.00    -0.5032)  ( 0.00     0.3719)
 P :1...2            ( 2.00    -0.1955)  ( 0.00     0.1673)
 D :1...1            ( 0.00     1.2400)
 F :1...1            ( 0.00     4.0128)

 CYCLE    8
  SDIIS (wt  0.958): -0.0001  0.0006  0.0026 -0.0162 -0.0129  0.1023  0.9238
 A-DIIS (wt  0.042):  0.0000  0.0000  0.0000  0.0000  0.0000  0.0000  1.0000
  DIIS coefficients: -0.0001  0.0005  0.0025 -0.0155 -0.0124  0.0980  0.9270
 SCF Error: norm([F,P])=      0.006629277794, max([F,P])=      0.005140885246
 orbitals (Q,E):
 ---------------
 S :1...3            ( 2.00   -10.0626)  ( 2.00    -0.5000)  ( 0.00     0.3739)
 P :1...2            ( 2.00    -0.1926)  ( 0.00     0.1686)
 D :1...1            ( 0.00     1.2431)
 F :1...1            ( 0.00     4.0163)

 CYCLE    9
  SDIIS (wt  1.000): -0.0000 -0.0000 -0.0000 -0.0000  0.0023 -0.0004 -0.0164  1.0145
  DIIS coefficients: -0.0000 -0.0000 -0.0000 -0.0000  0.0023 -0.0004 -0.0164  1.0145
 SCF Error: norm([F,P])=      0.000215737590, max([F,P])=      0.000163422091
 orbitals (Q,E):
 ---------------
 S :1...3            ( 2.00   -10.0628)  ( 2.00    -0.5001)  ( 0.00     0.3739)
 P :1...2            ( 2.00    -0.1927)  ( 0.00     0.1686)
 D :1...1            ( 0.00     1.2430)
 F :1...1            ( 0.00     4.0162)

 CYCLE   10
  SDIIS (wt  1.000):  0.0000 -0.0000 -0.0000  0.0001  0.0000 -0.0011  0.0167  0.9843
  DIIS coefficients:  0.0000 -0.0000 -0.0000  0.0001  0.0000 -0.0011  0.0167  0.9843
 SCF Error: norm([F,P])=      0.000001946474, max([F,P])=      0.000001322854
 orbitals (Q,E):
 ---------------
 S :1...3            ( 2.00   -10.0628)  ( 2.00    -0.5001)  ( 0.00     0.3739)
 P :1...2            ( 2.00    -0.1927)  ( 0.00     0.1686)
 D :1...1            ( 0.00     1.2430)
 F :1...1            ( 0.00     4.0162)

 CYCLE   11
  SDIIS (wt  1.000):  0.0000 -0.0000 -0.0002 -0.0078  1.0079
  DIIS coefficients:  0.0000 -0.0000 -0.0002 -0.0078  1.0079
 SCF Error: norm([F,P])=      0.000000018017, max([F,P])=      0.000000015021
 orbitals (Q,E):
 ---------------
 S :1...3            ( 2.00   -10.0628)  ( 2.00    -0.5001)  ( 0.00     0.3739)
 P :1...2            ( 2.00    -0.1927)  ( 0.00     0.1686)
 D :1...1            ( 0.00     1.2430)
 F :1...1            ( 0.00     4.0162)

 CYCLE   12
  SDIIS (wt  1.000):  0.0000 -0.0001  0.0057  0.9944
  DIIS coefficients:  0.0000 -0.0001  0.0057  0.9944
 SCF Error: norm([F,P])=      0.000000000214, max([F,P])=      0.000000000163
 orbitals (Q,E):
 ---------------
 S :1...3            ( 2.00   -10.0628)  ( 2.00    -0.5001)  ( 0.00     0.3739)
 P :1...2            ( 2.00    -0.1927)  ( 0.00     0.1686)
 D :1...1            ( 0.00     1.2430)
 F :1...1            ( 0.00     4.0162)

 SCF CONVERGED

 CYCLE   13
1
 ***************************************************************************************************



                                                *******************
                                                *  R E S U L T S  *
                                                *******************
  
 *** Setting up for NEW gradients in Focky
 *** Using FIT density in Focky

 Orbital Energies, per Irrep and Spin:
 ======================================
                        Occup              E (au)              E (eV)       Diff (eV) with prev. cycle
                        -----      --------------------        ------       --------------------------
 S
               1        2.000     -0.10062819482682E+02      -273.823              -1.46E-09
               2        2.000     -0.50012405867783E+00       -13.609              -9.06E-10
               3        0.000      0.37386666571790E+00        10.173
               4        0.000      0.54114616881923E+01       147.253
               5        0.000      0.50154618712632E+02      1364.777
 P
               1        2.000     -0.19265861396330E+00        -5.243              -8.46E-10
               2        0.000      0.16859720175392E+00         4.588
               3        0.000      0.20146797119588E+01        54.822
 D
               1        0.000      0.12429821924707E+01        33.823
 F
               1        0.000      0.40162441326384E+01       109.288


 Partially Occupied:
               1 P                -0.19265861396330E+00
  
 HOMO :        2 S                -0.50012405867783E+00
 LUMO :        2 P                 0.16859720175392E+00
  


 Orbital Energies, all Irreps
 ========================================

 Irrep        no.  (spin)   Occup              E (au)                E (eV)
 ---------------------------------------------------------------------------
 S             1             2.00       -0.10062819482682E+02      -273.8233
 S             2             2.00       -0.50012405867783E+00       -13.6091
 P             1             2.00       -0.19265861396330E+00        -5.2425
 P             2             0.00        0.16859720175392E+00         4.5878
 S             3             0.00        0.37386666571790E+00        10.1734
 D             1             0.00        0.12429821924707E+01        33.8233
 P             3             0.00        0.20146797119588E+01        54.8222
 F             1             0.00        0.40162441326384E+01       109.2876
 S             4             0.00        0.54114616881923E+01       147.2534
 S             5             0.00        0.50154618712632E+02      1364.7766


 All Electron Calculation, thus no Orbital Energies of the Core Orbitals are calculated



 =======================================
 M U L L I K E N   P O P U L A T I O N S
 =======================================
  
 The survey below gives for each atom:
 a) the total charge (Z minus electrons)
 b) the net spin polarization (nr of electrons spin-A minus spin-B)
 c) for each spin the atomic electron valence density (integrated) per L-value.

 Atom              Charge    Spin density          S         P         D         F
[...]
    6.C          0.000   0.000  -0.075         0.000  -0.000  -0.000         0.001  -0.000  -0.000
    7.O         -0.000  -0.000  -0.080        -0.000   0.000   0.000         0.000  -0.000   0.000
    8.C          0.003   0.000   0.317         0.399  -0.000   0.003        -0.554  -0.001  -0.001
    9.O          0.001  -0.000  -0.075        -0.302  -0.000  -0.000         0.413   0.000   0.000
   10.C         -0.003   0.000   0.317        -0.399  -0.000   0.003        -0.554  -0.001   0.001
   11.O         -0.001  -0.000  -0.075         0.302   0.000  -0.000         0.413   0.000  -0.000


                      2214.646                      2216.129                      2227.090
              ------------------------      ------------------------      ------------------------
    1.B         -0.000  -0.001  -0.000         0.000  -0.000  -0.002        -0.000  -0.000   0.004
    2.C          0.001  -0.554  -0.001        -0.000  -0.156   0.002        -0.000   0.373   0.001
    3.O         -0.000   0.413   0.000         0.000   0.116  -0.000         0.000  -0.271   0.000
    4.C          0.001  -0.554   0.001        -0.000   0.156   0.002        -0.000  -0.373   0.001
    5.O         -0.000   0.413  -0.000         0.000  -0.116  -0.000         0.000   0.271   0.000
    6.C          0.000   0.001  -0.000        -0.000   0.000  -0.739         0.000   0.000  -0.314
    7.O          0.000   0.000   0.000        -0.000   0.000   0.551         0.000  -0.000   0.229
    8.C         -0.121   0.004  -0.000        -0.156   0.000   0.002         0.373  -0.000   0.001
    9.O          0.090  -0.000   0.000         0.116  -0.000  -0.000        -0.271   0.000   0.000
   10.C         -0.121   0.004   0.000         0.156   0.000   0.002        -0.373   0.000   0.001
   11.O          0.090  -0.000  -0.000        -0.116  -0.000  -0.000         0.271   0.000   0.000




 List of All Frequencies:


 Intensities
 ===========

               Frequency       Dipole Strength        Absorption Intensity (degeneracy not counted)
                 cm-1           1e-40 esu2 cm2          km/mole
              ----------          ----------          ----------
             -190.184400            0.000000           -0.000000
             -175.997595         3977.110013         -175.449610
             -175.997595         3977.110013         -175.449610
               85.187063            0.000000            0.000000
               97.718636          667.926273           16.360026
               98.095268            2.042294            0.050216
               98.095268            2.042294            0.050216
              103.772118            0.000000            0.000000
              129.917636          147.190770            4.793213
              129.917636          147.190770            4.793213
              149.474729          849.470962           31.826903
              257.855348           95.195782            6.152788
              281.397303            0.000000            0.000000
              309.884482           79.056191            6.140642
              309.884482           79.056191            6.140642
              345.782249            0.000000            0.000000
              451.098694            2.001991            0.226366
              451.098694            2.001991            0.226366
              542.282523            0.000000            0.000000
              547.849768          618.041990           84.870651
              547.849768          618.041990           84.870651
              549.819315          120.423795           16.596265
             2206.518013            0.000000            0.000000
             2214.645754            0.337055            0.187104
             2214.645754            0.337055            0.187104
             2216.128564            1.205101            0.669416
             2227.090224            0.110002            0.061407



 ============================
 Statistical Thermal Analysis  ***  ideal gas assumed  ***
 ============================
  
 Pressure:                  1.000000 atm.
 Temperature:             298.150000 K



 Moments of Inertia (and direction vectors)
 ==========================================

        1978.9608       1978.9608       2804.3025
 ------------------------------------------------
           1.0000          0.0000          0.0000
           0.0000          1.0000          0.0000
           0.0000          0.0000          1.0000


 The rotational contribution to the molecular entropy includes
 a term, dependent on the symmetry number sigma. The results 
 reported below were computed using sigma = 4, determined from
 the point group symmetry of the input geometry (C(4V)). 
 If this is not the correct symmetry, please contact SCM to report a bug.
 Contributions from frequencies below 20 1/cm are not included in
 the vibrational sums. Their contributions, if any, are reported separately.


     Temp                                                       Transl     Rotat    Vibrat     Total
     ----                                                       ------     -----    ------     -----

     298.15   Entropy (cal/mole-K):                             40.946    28.020    37.109   106.075
              Internal Energy (Kcal/mole):                       0.889     0.889    29.395    31.172
              Constant Volume Heat Capacity (cal/mole-K):        2.981     2.981    31.187    37.148

              Summary of energy terms
                                                   hartree              eV         kcal/mol           kJ/mol
                                      --------------------     -----------       ----------      -----------
              Bond Energy:              -1.342262646315085        -36.5248          -842.28         -3524.11
              Internal Energy:           0.049675958884320          1.3518            31.17           130.42
              pV/n = RT:                 0.000944186013486          0.0257             0.59             2.48
              Enthalpy H:               -1.291642501417279        -35.1474          -810.52         -3391.21
              -T*S:                     -0.050399495577696         -1.3714           -31.63          -132.32
              Gibbs free energy:        -1.342041996994975        -36.5188          -842.14         -3523.53
 

 ***************************************************************************************************
 


====================================================================
*** DONE CALCULATING ANALYTICAL SECOND DERIVATIVES OF THE ENERGY ***
====================================================================

 
 
 ========================
 No memory problems found
 ========================
 
 Maximum number of active allocate calls:        2504
 
 *******************************************************************************

                             A D F   E X I T
 NORMAL TERMINATION



 =================
 Timing Statistics
 =================
  
 Total Used :                     CPU=      145.74      System=        0.64     Elapsed=      146.59

 Calls  Section                     ( Mean, Percentage )
 ---------------------------------------------------------------------------------------------------
     3  ><      ................      0.00    0.00             0.00    0.00             0.00    0.00
     1  INIT    ................      0.43    0.30             0.02    3.28             0.46    0.31
     1  GEOMET  ................      0.05    0.04             0.01    1.40             0.06    0.04
     1  FRAGM   ................      0.03    0.02             0.01    1.40             0.05    0.04
     1  INPUTA  ................      0.00    0.00             0.00    0.00             0.00    0.00
     1  ATDEN   ................      0.01    0.01             0.00    0.31             0.01    0.01
     1  MAINSY  ................      0.02    0.01             0.02    2.81             0.05    0.03
     1  SYMFIT  ................      0.01    0.00             0.00    0.00             0.01    0.01
     1  CORORT  ................      0.00    0.00             0.00    0.00             0.00    0.00
     1  SYMORB  ................      0.01    0.01             0.00    0.16             0.01    0.01
     1  CLSMAT  ................      0.01    0.01             0.00    0.00             0.02    0.01
     1  ORTHON  ................      0.02    0.01             0.00    0.16             0.02    0.01
     1  GENPT   ................      0.19    0.13             0.02    2.50             0.20    0.14
     1  PTBAS   ................      0.55    0.38             0.00    0.78             0.56    0.38
    15  FOCKY   ................      0.80    8.25             0.00    5.30             0.81    8.24
    15  FOCKTR  ................      0.00    0.04             0.00    0.16             0.00    0.05
    15  SDIIS   ................      0.01    0.06             0.00    1.09             0.01    0.06
     1  COREPS  ................      0.57    0.39             0.00    0.16             0.58    0.39
     1  TOTEN   ................      2.41    1.65             0.01    1.40             2.42    1.65
     1  POPAN   ................      0.01    0.01             0.00    0.00             0.01    0.01
     1  DEBYE   ................      0.01    0.01             0.00    0.16             0.02    0.01
     1  INPUTE  ................      0.00    0.00             0.00    0.16             0.00    0.00
     1  SYMORE  ................      0.00    0.00             0.00    0.00             0.00    0.00
     1  METS    ................      0.00    0.00             0.00    0.00             0.00    0.00
     1  CETS    ................      0.01    0.00             0.00    0.00             0.01    0.00
     2  ELNRGY  ................      1.29    1.77             0.00    0.47             1.29    1.77
     1  POPUL   ................      0.03    0.02             0.00    0.16             0.05    0.03
     1  ENGRAD  ................      0.00    0.00             0.00    0.00             0.00    0.00
     1  ENHESS  ................    126.56   86.84             0.49   77.22           127.17   86.75
     1  EXIT PROCEDURE .........      0.04    0.03             0.01    0.94             0.05    0.03


 Currently Open Files (EXIT00)
 ====================

 Unit    Access Format  Status   Type       Ident (file)
 -------------------------------------------------------
   3      SEQ    FORM   TRANSP  NORMAL      LOGFILE
                                          ( logfile )


 Buffered I/O statistics
 =======================
 Memory available:                     67108864
 Number of records fitting in memory:     16131
 Input :   0.2% of                       651216  *4k bytes
 Output:   5.1% of                        29323  *4k bytes
 Records from serial files evicted:           0
                    others evicted:           0
 Hash table lookups:    1735146 with          0 conflicts (  0.00%)

 ***************************************************************************************************
 (LOGFILE)
 <May19-2019> <11:15:58>  ADF 2017  RunTime: May19-2019 11:15:58  Nodes: 1  Procs: 1
 <May19-2019> <11:15:58>  Boron (TZ2P)
 <May19-2019> <11:15:58>  RunType   : CREATE
 <May19-2019> <11:15:58>  Net Charge: 0 (Nuclei minus Electrons)
 <May19-2019> <11:15:58>  Symmetry  : ATOM
  Coordinates
    Atom         X           Y           Z   (Angstrom)
    1.B         0.000000    0.000000    0.000000
 <May19-2019> <11:15:58>  >>>> CORORT
 <May19-2019> <11:15:58>  >>>> CLSMAT
 <May19-2019> <11:15:58>  >>>> ORTHON
 <May19-2019> <11:15:58>  >>>> GENPT
 <May19-2019> <11:15:58>  Block Length=  76
 <May19-2019> <11:15:58>  >>>> PTBAS
 <May19-2019> <11:15:58>  >>>> CYCLE
 <May19-2019> <11:15:59>              |Error|         MaxErr       Wt(A-DIIS)
 <May19-2019> <11:15:59>      1      0.00000000      0.00000000
 <May19-2019> <11:15:59>      2      3.20133098      2.03108130    100.0
 <May19-2019> <11:15:59>      3      1.05964753      0.90380137    100.0
 <May19-2019> <11:15:59>      4      0.49393151      0.42522542    100.0
 <May19-2019> <11:15:59>      5      0.20602917      0.18571866    100.0
 <May19-2019> <11:15:59>      6      0.10866624      0.09599924     96.0
 <May19-2019> <11:15:59>      7      0.04299023      0.03828643     37.7
 <May19-2019> <11:15:59>      8      0.01078789      0.00956497      8.7
 <May19-2019> <11:15:59>      9      0.00063674      0.00056422      0.0
 <May19-2019> <11:15:59>     10      0.00000007      0.00000005      0.0
 <May19-2019> <11:15:59>     11      0.00000000      0.00000000      0.0
 <May19-2019> <11:15:59>  SCF converged
 <May19-2019> <11:15:59>     12      0.00000000      0.00000000      0.0
 <May19-2019> <11:15:59>  >>>> POPAN
 <May19-2019> <11:15:59>  >>>> DEBYE
 <May19-2019> <11:15:59>  NORMAL TERMINATION
 <May19-2019> <11:15:59>  END
 <May19-2019> <11:15:59>  ADF 2017  RunTime: May19-2019 11:15:59  Nodes: 1  Procs: 1
 <May19-2019> <11:15:59>  Oxygen (TZ2P)
 <May19-2019> <11:15:59>  RunType   : CREATE
 <May19-2019> <11:15:59>  Net Charge: 0 (Nuclei minus Electrons)
 <May19-2019> <11:15:59>  Symmetry  : ATOM
  Coordinates
    Atom         X           Y           Z   (Angstrom)
    1.O         0.000000    0.000000    0.000000
 <May19-2019> <11:15:59>  >>>> CORORT
 <May19-2019> <11:15:59>  >>>> CLSMAT
 <May19-2019> <11:15:59>  >>>> ORTHON
 <May19-2019> <11:15:59>  >>>> GENPT
 <May19-2019> <11:15:59>  Block Length=  68
 <May19-2019> <11:15:59>  >>>> PTBAS
 <May19-2019> <11:15:59>  >>>> CYCLE
 <May19-2019> <11:15:59>              |Error|         MaxErr       Wt(A-DIIS)
 <May19-2019> <11:15:59>      1      0.00000000      0.00000000
 <May19-2019> <11:15:59>      2      8.76574541      5.51803131    100.0
 <May19-2019> <11:16:00>      3      3.58549945      2.49941011    100.0
 <May19-2019> <11:16:00>      4      1.14791911      0.58301962    100.0
 <May19-2019> <11:16:00>      5      1.51958547      0.84054201    100.0
 <May19-2019> <11:16:00>      6      0.17882893      0.10424203    100.0
 <May19-2019> <11:16:00>      7      0.20012529      0.11364913    100.0
 <May19-2019> <11:16:00>      8      0.01695178      0.00994720      9.0
 <May19-2019> <11:16:00>      9      0.00174843      0.00098437      0.0
 <May19-2019> <11:16:00>     10      0.00000143      0.00000071      0.0
 <May19-2019> <11:16:00>     11      0.00000005      0.00000002      0.0
 <May19-2019> <11:16:00>     12      0.00000000      0.00000000      0.0
 <May19-2019> <11:16:00>  SCF converged
 <May19-2019> <11:16:00>     13      0.00000000      0.00000000      0.0
 <May19-2019> <11:16:00>  >>>> POPAN
 <May19-2019> <11:16:00>  >>>> DEBYE
 <May19-2019> <11:16:00>  NORMAL TERMINATION
 <May19-2019> <11:16:00>  END
 <May19-2019> <11:16:00>  ADF 2017  RunTime: May19-2019 11:16:00  Nodes: 1  Procs: 1
 <May19-2019> <11:16:00>  Carbon (TZ2P)
 <May19-2019> <11:16:00>  RunType   : CREATE
 <May19-2019> <11:16:00>  Net Charge: 0 (Nuclei minus Electrons)
 <May19-2019> <11:16:00>  Symmetry  : ATOM
  Coordinates
    Atom         X           Y           Z   (Angstrom)
    1.C         0.000000    0.000000    0.000000
 <May19-2019> <11:16:00>  >>>> CORORT
 <May19-2019> <11:16:00>  >>>> CLSMAT
 <May19-2019> <11:16:00>  >>>> ORTHON
 <May19-2019> <11:16:00>  >>>> GENPT
 <May19-2019> <11:16:00>  Block Length=  72
 <May19-2019> <11:16:00>  >>>> PTBAS
 <May19-2019> <11:16:00>  >>>> CYCLE
 <May19-2019> <11:16:00>              |Error|         MaxErr       Wt(A-DIIS)
 <May19-2019> <11:16:00>      1      0.00000000      0.00000000
 <May19-2019> <11:16:00>      2      4.48031974      3.32884133    100.0
 <May19-2019> <11:16:00>      3      1.63678889      1.31529535    100.0
 <May19-2019> <11:16:00>      4      0.72226765      0.58081551    100.0
 <May19-2019> <11:16:01>      5      0.41279476      0.32864204    100.0
 <May19-2019> <11:16:01>      6      0.12664316      0.09684749     96.8
 <May19-2019> <11:16:01>      7      0.11556823      0.09012376     90.0
 <May19-2019> <11:16:01>      8      0.00662928      0.00514089      4.2
 <May19-2019> <11:16:01>      9      0.00021574      0.00016342      0.0
 <May19-2019> <11:16:01>     10      0.00000195      0.00000132      0.0
 <May19-2019> <11:16:01>     11      0.00000002      0.00000002      0.0
 <May19-2019> <11:16:01>     12      0.00000000      0.00000000      0.0
 <May19-2019> <11:16:01>  SCF converged
 <May19-2019> <11:16:01>     13      0.00000000      0.00000000      0.0
 <May19-2019> <11:16:01>  >>>> POPAN
 <May19-2019> <11:16:01>  >>>> DEBYE
 <May19-2019> <11:16:01>  NORMAL TERMINATION
 <May19-2019> <11:16:01>  END
 <May19-2019> <11:16:01>  ADF 2017  RunTime: May19-2019 11:16:01  Nodes: 1  Procs: 12
 <May19-2019> <11:16:02>  *** (NO TITLE) ***
 <May19-2019> <11:16:02>  RunType   : SINGLE POINT
 <May19-2019> <11:16:02>  Net Charge: 3 (Nuclei minus Electrons)
 <May19-2019> <11:16:02>  Symmetry  : C(4V)
 <May19-2019> <11:16:02>  >>>> FRAGM
  Coordinates
    Atom         X           Y           Z   (Angstrom)
    1.B         0.000000    0.000000    0.000000
    2.C         0.000000    1.947573    0.000000
    3.O         0.000000    3.070552    0.000000
    4.C         0.000000   -1.947573    0.000000
    5.O         0.000000   -3.070552    0.000000
    6.C         0.000000    0.000000   -1.947573
    7.O         0.000000    0.000000   -3.070552
    8.C         1.947573    0.000000    0.000000
    9.O         3.070552    0.000000    0.000000
   10.C        -1.947573    0.000000    0.000000
   11.O        -3.070552    0.000000    0.000000
 <May19-2019> <11:16:02>  >>>> CORORT
 <May19-2019> <11:16:02>  >>>> CLSMAT
 <May19-2019> <11:16:02>  >>>> ORTHON
 <May19-2019> <11:16:02>  >>>> GENPT
 <May19-2019> <11:16:02>  Block Length= 128
 <May19-2019> <11:16:02>  >>>> PTBAS
 <May19-2019> <11:16:03>  >>>> CYCLE
 <May19-2019> <11:16:04>              |Error|         MaxErr       Wt(A-DIIS)
 <May19-2019> <11:16:04>      1      7.05340136      1.81393960
 <May19-2019> <11:16:04>      2      1.40246416      0.31793481    100.0
 <May19-2019> <11:16:05>      3      0.29055532      0.05222740    100.0
 <May19-2019> <11:16:06>      4      0.52879643      0.10968651    100.0
 <May19-2019> <11:16:07>      5      0.22341993      0.04496590     44.4
 <May19-2019> <11:16:08>      6      0.26588481      0.06166661    100.0
 <May19-2019> <11:16:08>      7      0.05019378      0.02205351     21.3
 <May19-2019> <11:16:09>      8      0.04752037      0.02259330     21.3
 <May19-2019> <11:16:10>      9      0.00364471      0.00095005      0.0
 <May19-2019> <11:16:11>     10      0.00048043      0.00010195      0.0
 <May19-2019> <11:16:12>     11      0.00009226      0.00001891      0.0
 <May19-2019> <11:16:12>     12      0.00001591      0.00000343      0.0
 <May19-2019> <11:16:13>     13      0.00000283      0.00000105      0.0
 <May19-2019> <11:16:14>     14      0.00000033      0.00000009      0.0
 <May19-2019> <11:16:14>  SCF converged
 <May19-2019> <11:16:15>     15      0.00000003      0.00000001      0.0
 <May19-2019> <11:16:15>  >>>> TOTEN
 <May19-2019> <11:16:18>  >>>> POPAN
 <May19-2019> <11:16:18>  >>>> DEBYE
 <May19-2019> <11:16:18>  >>>> AMETS
 <May19-2019> <11:16:18>   Bond Energy          -1.34226265 a.u.
 <May19-2019> <11:16:18>   Bond Energy         -36.52482500 eV
 <May19-2019> <11:16:18>   Bond Energy        -842.28       kcal/mol
 <May19-2019> <11:16:18>  >>>> POPUL
 <May19-2019> <11:16:18>  >>>> ENGRAD
 <May19-2019> <11:16:21>  >>>> ENHESS
 <May19-2019> <11:16:21>  === NUCLEUS:     1
 <May19-2019> <11:16:46>  === NUCLEUS:     2
 <May19-2019> <11:17:11>  === NUCLEUS:     4
 <May19-2019> <11:17:34>  === NUCLEUS:     7
 <May19-2019> <11:17:59>  === NUCLEUS:     9
 <May19-2019> <11:18:21>  >>>> CALC_HESS_PMAT
 <May19-2019> <11:18:26>  >>>> CALC_HESS_WMAT
 <May19-2019> <11:18:28>  NORMAL TERMINATION
 <May19-2019> <11:18:28>  END
